                         Program Version 5.0.2 -  RELEASE  -
|  1> %maxcore 20000
|  2> %pal
|  3>  nprocs= 4
|  4> end
|  5> ! RI-B2GP-PLYP   def2-TZVP def2/J def2-TZVP/C RIJCOSX CPCM TightSCF
|  6> %TDDFT
|  7>    NROOTS   30
|  8>    dcorr 4
|  9>    TDA      FALSE
| 10> END
| 11>
| 12> %CPCM
| 13>    SMD          TRUE
| 14>    SMDsolvent   "N,N-DIMETHYLACETAMIDE"
| 15> END
| 16>
| 17>
| 18> * xyz 0 1
| 19> C                  -3.61688000    1.95222700    0.00979700
| 20> C                  -2.44498300    2.69219500    0.00577400
| 21> C                  -1.20128400    2.06784400   -0.00149600
| 22> C                  -1.17907300    0.66788400   -0.00746600
| 23> C                  -2.34227100   -0.06585600   -0.00741200
| 24> C                  -3.59805500    0.55825700    0.00165200
| 25> C                   1.17925100    0.66797700    0.00012600
| 26> C                   1.20135300    2.06794100   -0.00564300
| 27> C                   2.44501800    2.69237500   -0.01150300
| 28> H                   2.49303900    3.77321800   -0.00557800
| 29> C                   3.61696900    1.95248600   -0.01421200
| 30> C                   3.59827200    0.55852100   -0.00584900
| 31> C                   2.34249600   -0.06566900    0.00156900
| 32> H                  -2.49308300    3.77303600   -0.00006600
| 33> H                  -2.25543500   -1.14453900    0.00896800
| 34> H                   4.56073300    2.48154200    0.00265200
| 35> N                   0.00000900    2.76974200   -0.00410800
| 36> C                  -0.00004400    4.19949700   -0.00031200
| 37> C                   0.00177500    4.89081800   -1.20408000
| 38> C                  -0.00193000    4.88400000    1.20737700
| 39> C                   0.00177600    6.27761900   -1.19683800
| 40> C                  -0.00208600    6.27078300    1.20807700
| 41> H                  -0.00331900    4.32511400    2.13518600
| 42> C                  -0.00019500    6.96725300    0.00757900
| 43> H                  -0.00358800    6.80775300    2.14807900
| 44> H                  -0.00025800    8.04987200    0.01064200
| 45> H                   2.25571800   -1.14436300   -0.01477100
| 46> H                  -4.56071600    2.48121500   -0.00600400
| 47> C                  -4.83465400   -0.23344000   -0.00549800
| 48> C                  -4.86912000   -1.53095200   -0.52941200
| 49> C                  -6.03242900    0.27587300    0.50971700
| 50> C                  -6.03346800   -2.27397400   -0.54043000
| 51> H                  -3.97000500   -1.96338800   -0.95084000
| 52> C                  -7.19568500   -0.46915300    0.50181400
| 53> H                  -6.05130600    1.27062200    0.93751300
| 54> C                  -7.22900300   -1.76453000   -0.02454400
| 55> H                  -6.01072000   -3.27794800   -0.94633800
| 56> H                  -8.10232300   -0.03070500    0.90091100
| 57> C                  -8.46775000   -2.55848400   -0.03671700
| 58> C                  -8.69537900   -3.52297100   -1.02463100
| 59> C                  -9.45568300   -2.37552800    0.93692500
| 60> C                  -9.86027200   -4.27171800   -1.03872000
| 61> H                  -7.95862700   -3.67262300   -1.80424300
| 62> C                 -10.62003700   -3.12578400    0.92352900
| 63> H                  -9.29910100   -1.65084400    1.72667100
| 64> C                 -10.82954000   -4.07809300   -0.06437200
| 65> H                 -10.01498200   -5.00597100   -1.81977700
| 66> H                 -11.36515500   -2.97070200    1.69415900
| 67> H                 -11.74002800   -4.66387300   -0.07456800
| 68> C                   4.83493800   -0.23306800    0.00315900
| 69> C                   4.86829700   -1.53110400    0.52585200
| 70> C                   6.03385300    0.27676000   -0.50893300
| 71> C                   6.03252800   -2.27425500    0.53845900
| 72> H                   3.96829300   -1.96390300    0.94498200
| 73> C                   7.19702400   -0.46839400   -0.49941800
| 74> H                   6.05370500    1.27200400   -0.93557100
| 75> C                   7.22914400   -1.76437800    0.02552300
| 76> H                   6.00883900   -3.27870400    0.94315900
| 77> H                   8.10456900   -0.02959600   -0.89607400
| 78> C                   8.46773800   -2.55854200    0.03917500
| 79> C                   8.69365700   -3.52365500    1.02687300
| 80> C                   9.45714600   -2.37529900   -0.93288700
| 81> C                   9.85829700   -4.27277200    1.04223400
| 82> H                   7.95576200   -3.67358200    1.80535600
| 83> C                  10.62126300   -3.12591200   -0.91821500
| 84> H                   9.30198600   -1.65016900   -1.72250000
| 85> C                  10.82903400   -4.07888800    0.06940600
| 86> H                  10.01163200   -5.00753100    1.82308600
| 87> H                  11.36754600   -2.97055700   -1.68766400
| 88> H                  11.73931500   -4.66497100    0.08052700
| 89> O                   0.00012000   -0.03539000   -0.00456200
| 90> H                   0.00321700    6.81993700   -2.13376300
| 91> H                   0.00321900    4.33723700   -2.13505800
| 92> *
| 93>
| 94>
| 95>                          ****END OF INPUT****

CARTESIAN COORDINATES (ANGSTROEM)
---------------------------------
  C     -3.616880    1.952227    0.009797
  C     -2.444983    2.692195    0.005774
  C     -1.201284    2.067844   -0.001496
  C     -1.179073    0.667884   -0.007466
  C     -2.342271   -0.065856   -0.007412
  C     -3.598055    0.558257    0.001652
  C      1.179251    0.667977    0.000126
  C      1.201353    2.067941   -0.005643
  C      2.445018    2.692375   -0.011503
  H      2.493039    3.773218   -0.005578
  C      3.616969    1.952486   -0.014212
  C      3.598272    0.558521   -0.005849
  C      2.342496   -0.065669    0.001569
  H     -2.493083    3.773036   -0.000066
  H     -2.255435   -1.144539    0.008968
  H      4.560733    2.481542    0.002652
  N      0.000009    2.769742   -0.004108
  C     -0.000044    4.199497   -0.000312
  C      0.001775    4.890818   -1.204080
  C     -0.001930    4.884000    1.207377
  C      0.001776    6.277619   -1.196838
  C     -0.002086    6.270783    1.208077
  H     -0.003319    4.325114    2.135186
  C     -0.000195    6.967253    0.007579
  H     -0.003588    6.807753    2.148079
  H     -0.000258    8.049872    0.010642
  H      2.255718   -1.144363   -0.014771
  H     -4.560716    2.481215   -0.006004
  C     -4.834654   -0.233440   -0.005498
  C     -4.869120   -1.530952   -0.529412
  C     -6.032429    0.275873    0.509717
  C     -6.033468   -2.273974   -0.540430
  H     -3.970005   -1.963388   -0.950840
  C     -7.195685   -0.469153    0.501814
  H     -6.051306    1.270622    0.937513
  C     -7.229003   -1.764530   -0.024544
  H     -6.010720   -3.277948   -0.946338
  H     -8.102323   -0.030705    0.900911
  C     -8.467750   -2.558484   -0.036717
  C     -8.695379   -3.522971   -1.024631
  C     -9.455683   -2.375528    0.936925
  C     -9.860272   -4.271718   -1.038720
  H     -7.958627   -3.672623   -1.804243
  C    -10.620037   -3.125784    0.923529
  H     -9.299101   -1.650844    1.726671
  C    -10.829540   -4.078093   -0.064372
  H    -10.014982   -5.005971   -1.819777
  H    -11.365155   -2.970702    1.694159
  H    -11.740028   -4.663873   -0.074568
  C      4.834938   -0.233068    0.003159
  C      4.868297   -1.531104    0.525852
  C      6.033853    0.276760   -0.508933
  C      6.032528   -2.274255    0.538459
  H      3.968293   -1.963903    0.944982
  C      7.197024   -0.468394   -0.499418
  H      6.053705    1.272004   -0.935571
  C      7.229144   -1.764378    0.025523
  H      6.008839   -3.278704    0.943159
  H      8.104569   -0.029596   -0.896074
  C      8.467738   -2.558542    0.039175
  C      8.693657   -3.523655    1.026873
  C      9.457146   -2.375299   -0.932887
  C      9.858297   -4.272772    1.042234
  H      7.955762   -3.673582    1.805356
  C     10.621263   -3.125912   -0.918215
  H      9.301986   -1.650169   -1.722500
  C     10.829034   -4.078888    0.069406
  H     10.011632   -5.007531    1.823086
  H     11.367546   -2.970557   -1.687664
  H     11.739315   -4.664971    0.080527
  O      0.000120   -0.035390   -0.004562
  H      0.003217    6.819937   -2.133763
  H      0.003219    4.337237   -2.135058

 Total Charge           Charge          ....    0
 Multiplicity           Mult            ....    1
 Number of Electrons    NEL             ....  296
 Basis Dimension        Dim             .... 1538

ORBITAL ENERGIES
----------------

  NO   OCC          E(Eh)            E(eV)
   0   2.0000     -19.988397      -543.9119
   1   2.0000     -15.063663      -409.9031
   2   2.0000     -10.846028      -295.1354
   3   2.0000     -10.846009      -295.1349
   4   2.0000     -10.832207      -294.7593
   5   2.0000     -10.832190      -294.7589
   6   2.0000     -10.819544      -294.4148
   7   2.0000     -10.789211      -293.5894
   8   2.0000     -10.789204      -293.5892
   9   2.0000     -10.788814      -293.5786
  10   2.0000     -10.788812      -293.5785
  11   2.0000     -10.787123      -293.5325
  12   2.0000     -10.787119      -293.5324
  13   2.0000     -10.786808      -293.5240
  14   2.0000     -10.786803      -293.5238
  15   2.0000     -10.781013      -293.3663
  16   2.0000     -10.780996      -293.3658
  17   2.0000     -10.780114      -293.3418
  18   2.0000     -10.779535      -293.3261
  19   2.0000     -10.778836      -293.3070
  20   2.0000     -10.778048      -293.2856
  21   2.0000     -10.778047      -293.2856
  22   2.0000     -10.777409      -293.2682
  23   2.0000     -10.777409      -293.2682
  24   2.0000     -10.775590      -293.2187
  25   2.0000     -10.775587      -293.2186
  26   2.0000     -10.775458      -293.2151
  27   2.0000     -10.775457      -293.2151
  28   2.0000     -10.775378      -293.2129
  29   2.0000     -10.775375      -293.2129
  30   2.0000     -10.775327      -293.2115
  31   2.0000     -10.775324      -293.2115
  32   2.0000     -10.775154      -293.2069
  33   2.0000     -10.775153      -293.2068
  34   2.0000     -10.774377      -293.1857
  35   2.0000     -10.774373      -293.1856
  36   2.0000     -10.774326      -293.1843
  37   2.0000     -10.774324      -293.1843
  38   2.0000     -10.774316      -293.1840
  39   2.0000     -10.774311      -293.1839
  40   2.0000     -10.774121      -293.1787
  41   2.0000     -10.774120      -293.1787
  42   2.0000     -10.773247      -293.1550
  43   2.0000     -10.773246      -293.1549
  44   2.0000      -1.295930       -35.2640
  45   2.0000      -1.164418       -31.6854
  46   2.0000      -1.056689       -28.7540
  47   2.0000      -1.050533       -28.5865
  48   2.0000      -1.043411       -28.3927
  49   2.0000      -1.036646       -28.2086
  50   2.0000      -1.028763       -27.9941
  51   2.0000      -1.021351       -27.7924
  52   2.0000      -1.007816       -27.4241
  53   2.0000      -0.960034       -26.1238
  54   2.0000      -0.947939       -25.7947
  55   2.0000      -0.930524       -25.3208
  56   2.0000      -0.918986       -25.0069
  57   2.0000      -0.917190       -24.9580
  58   2.0000      -0.909753       -24.7556
  59   2.0000      -0.908952       -24.7338
  60   2.0000      -0.907744       -24.7010
  61   2.0000      -0.900341       -24.4995
  62   2.0000      -0.898406       -24.4469
  63   2.0000      -0.894980       -24.3537
  64   2.0000      -0.880895       -23.9704
  65   2.0000      -0.867057       -23.5938
  66   2.0000      -0.843417       -22.9505
  67   2.0000      -0.792886       -21.5755
  68   2.0000      -0.789131       -21.4733
  69   2.0000      -0.763124       -20.7656
  70   2.0000      -0.758163       -20.6307
  71   2.0000      -0.748781       -20.3754
  72   2.0000      -0.747568       -20.3423
  73   2.0000      -0.744443       -20.2573
  74   2.0000      -0.732023       -19.9194
  75   2.0000      -0.723622       -19.6908
  76   2.0000      -0.713357       -19.4114
  77   2.0000      -0.709985       -19.3197
  78   2.0000      -0.707679       -19.2569
  79   2.0000      -0.703260       -19.1367
  80   2.0000      -0.682923       -18.5833
  81   2.0000      -0.676637       -18.4122
  82   2.0000      -0.649804       -17.6821
  83   2.0000      -0.640637       -17.4326
  84   2.0000      -0.640348       -17.4248
  85   2.0000      -0.617005       -16.7896
  86   2.0000      -0.616419       -16.7736
  87   2.0000      -0.602317       -16.3899
  88   2.0000      -0.595530       -16.2052
  89   2.0000      -0.586340       -15.9551
  90   2.0000      -0.583735       -15.8842
  91   2.0000      -0.580149       -15.7867
  92   2.0000      -0.578539       -15.7428
  93   2.0000      -0.572527       -15.5793
  94   2.0000      -0.566495       -15.4151
  95   2.0000      -0.561836       -15.2883
  96   2.0000      -0.551046       -14.9947
  97   2.0000      -0.547339       -14.8939
  98   2.0000      -0.542066       -14.7504
  99   2.0000      -0.539826       -14.6894
 100   2.0000      -0.536791       -14.6068
 101   2.0000      -0.535287       -14.5659
 102   2.0000      -0.532714       -14.4959
 103   2.0000      -0.530905       -14.4467
 104   2.0000      -0.528093       -14.3701
 105   2.0000      -0.524296       -14.2668
 106   2.0000      -0.522894       -14.2287
 107   2.0000      -0.520336       -14.1591
 108   2.0000      -0.519888       -14.1469
 109   2.0000      -0.508150       -13.8275
 110   2.0000      -0.507492       -13.8096
 111   2.0000      -0.501185       -13.6379
 112   2.0000      -0.483454       -13.1555
 113   2.0000      -0.482578       -13.1316
 114   2.0000      -0.480923       -13.0866
 115   2.0000      -0.478897       -13.0315
 116   2.0000      -0.473302       -12.8792
 117   2.0000      -0.463599       -12.6152
 118   2.0000      -0.461160       -12.5488
 119   2.0000      -0.459621       -12.5069
 120   2.0000      -0.453705       -12.3459
 121   2.0000      -0.451610       -12.2889
 122   2.0000      -0.448562       -12.2060
 123   2.0000      -0.445482       -12.1222
 124   2.0000      -0.441982       -12.0269
 125   2.0000      -0.437143       -11.8953
 126   2.0000      -0.435496       -11.8505
 127   2.0000      -0.432425       -11.7669
 128   2.0000      -0.428817       -11.6687
 129   2.0000      -0.426123       -11.5954
 130   2.0000      -0.422826       -11.5057
 131   2.0000      -0.411325       -11.1927
 132   2.0000      -0.410850       -11.1798
 133   2.0000      -0.406722       -11.0675
 134   2.0000      -0.360793        -9.8177
 135   2.0000      -0.340675        -9.2702
 136   2.0000      -0.324835        -8.8392
 137   2.0000      -0.315362        -8.5814
 138   2.0000      -0.313800        -8.5389
 139   2.0000      -0.311732        -8.4826
 140   2.0000      -0.311470        -8.4755
 141   2.0000      -0.309592        -8.4244
 142   2.0000      -0.308562        -8.3964
 143   2.0000      -0.308390        -8.3917
 144   2.0000      -0.294334        -8.0092
 145   2.0000      -0.274402        -7.4669
 146   2.0000      -0.258493        -7.0340
 147   2.0000      -0.219262        -5.9664
 148   0.0000       0.007445         0.2026
 149   0.0000       0.018911         0.5146
 150   0.0000       0.042549         1.1578
 151   0.0000       0.049093         1.3359
 152   0.0000       0.053018         1.4427

MULLIKEN ATOMIC CHARGES
-----------------------
   0 C :   -0.267466
   1 C :   -0.232306
   2 C :    0.089866
   3 C :    0.270551
   4 C :   -0.391025
   5 C :    0.217951
   6 C :    0.273062
   7 C :    0.089139
   8 C :   -0.232942
   9 H :    0.178586
  10 C :   -0.266844
  11 C :    0.218175
  12 C :   -0.392401
  13 H :    0.178538
  14 H :    0.152101
  15 H :    0.161012
  16 N :    0.012467
  17 C :    0.102101
  18 C :   -0.259887
  19 C :   -0.260756
  20 C :   -0.111032
  21 C :   -0.110915
  22 H :    0.163994
  23 C :   -0.144506
  24 H :    0.164325
  25 H :    0.164766
  26 H :    0.152042
  27 H :    0.160912
  28 C :    0.125131
  29 C :   -0.231082
  30 C :   -0.236091
  31 C :   -0.239618
  32 H :    0.159259
  33 C :   -0.236426
  34 H :    0.158999
  35 C :    0.221137
  36 H :    0.159549
  37 H :    0.160429
  38 C :    0.102904
  39 C :   -0.247714
  40 C :   -0.249855
  41 C :   -0.170208
  42 H :    0.161347
  43 C :   -0.167061
  44 H :    0.162302
  45 C :   -0.155008
  46 H :    0.160346
  47 H :    0.159715
  48 H :    0.162199
  49 C :    0.125320
  50 C :   -0.231637
  51 C :   -0.236287
  52 C :   -0.239534
  53 H :    0.159128
  54 C :   -0.236250
  55 H :    0.159036
  56 C :    0.220651
  57 H :    0.159598
  58 H :    0.160434
  59 C :    0.102613
  60 C :   -0.248026
  61 C :   -0.248951
  62 C :   -0.170121
  63 H :    0.161369
  64 C :   -0.166923
  65 H :    0.162384
  66 C :   -0.155070
  67 H :    0.160404
  68 H :    0.159555
  69 H :    0.162214
  70 O :   -0.327941
  71 H :    0.164365
  72 H :    0.163911
Sum of atomic charges:   -0.0000000

LOEWDIN ATOMIC CHARGES
----------------------
   0 C :   -0.110838
   1 C :   -0.117974
   2 C :   -0.137098
   3 C :   -0.190491
   4 C :   -0.074241
   5 C :   -0.120909
   6 C :   -0.190493
   7 C :   -0.137099
   8 C :   -0.117977
   9 H :    0.161786
  10 C :   -0.110826
  11 C :   -0.120909
  12 C :   -0.074245
  13 H :    0.161788
  14 H :    0.162025
  15 H :    0.156992
  16 N :    0.274124
  17 C :   -0.169004
  18 C :   -0.097881
  19 C :   -0.097862
  20 C :   -0.137026
  21 C :   -0.137029
  22 H :    0.159773
  23 C :   -0.137175
  24 H :    0.153081
  25 H :    0.152441
  26 H :    0.162022
  27 H :    0.156997
  28 C :   -0.109168
  29 C :   -0.104711
  30 C :   -0.104092
  31 C :   -0.103437
  32 H :    0.156103
  33 C :   -0.103461
  34 H :    0.156025
  35 C :   -0.110663
  36 H :    0.156539
  37 H :    0.156472
  38 C :   -0.110098
  39 C :   -0.106158
  40 C :   -0.106247
  41 C :   -0.146803
  42 H :    0.155242
  43 C :   -0.146669
  44 H :    0.155285
  45 C :   -0.149559
  46 H :    0.151266
  47 H :    0.151211
  48 H :    0.149822
  49 C :   -0.109166
  50 C :   -0.104712
  51 C :   -0.104090
  52 C :   -0.103446
  53 H :    0.156100
  54 C :   -0.103463
  55 H :    0.156027
  56 C :   -0.110666
  57 H :    0.156542
  58 H :    0.156475
  59 C :   -0.110101
  60 C :   -0.106159
  61 C :   -0.106249
  62 C :   -0.146802
  63 H :    0.155244
  64 C :   -0.146667
  65 H :    0.155287
  66 C :   -0.149561
  67 H :    0.151266
  68 H :    0.151209
  69 H :    0.149821
  70 O :    0.291428
  71 H :    0.153080
  72 H :    0.159751

  Mayer bond orders larger than 0.100000
B(  0-C ,  1-C ) :   1.4312 B(  0-C ,  5-C ) :   1.3811 B(  0-C , 27-H ) :   0.9711
B(  1-C ,  2-C ) :   1.3592 B(  1-C , 13-H ) :   0.9669 B(  2-C ,  3-C ) :   1.3214
B(  2-C , 16-N ) :   1.0921 B(  3-C ,  4-C ) :   1.4854 B(  3-C , 70-O ) :   1.0010
B(  4-C ,  5-C ) :   1.3400 B(  4-C , 14-H ) :   0.9780 B(  5-C , 28-C ) :   0.9282
B(  6-C ,  7-C ) :   1.3214 B(  6-C , 12-C ) :   1.4848 B(  6-C , 70-O ) :   1.0010
B(  7-C ,  8-C ) :   1.3586 B(  7-C , 16-N ) :   1.0919 B(  8-C ,  9-H ) :   0.9672
B(  8-C , 10-C ) :   1.4312 B( 10-C , 11-C ) :   1.3812 B( 10-C , 15-H ) :   0.9709
B( 11-C , 12-C ) :   1.3400 B( 11-C , 49-C ) :   0.9278 B( 12-C , 26-H ) :   0.9786
B( 16-N , 17-C ) :   0.7139 B( 17-C , 18-C ) :   1.4661 B( 17-C , 19-C ) :   1.4669
B( 18-C , 20-C ) :   1.4154 B( 18-C , 72-H ) :   0.9834 B( 19-C , 21-C ) :   1.4157
B( 19-C , 22-H ) :   0.9832 B( 20-C , 23-C ) :   1.3938 B( 20-C , 71-H ) :   0.9786
B( 21-C , 23-C ) :   1.3936 B( 21-C , 24-H ) :   0.9786 B( 23-C , 25-H ) :   0.9762
B( 28-C , 29-C ) :   1.3641 B( 28-C , 30-C ) :   1.3690 B( 29-C , 31-C ) :   1.4644
B( 29-C , 32-H ) :   0.9729 B( 30-C , 33-C ) :   1.4655 B( 30-C , 34-H ) :   0.9742
B( 31-C , 35-C ) :   1.3626 B( 31-C , 36-H ) :   0.9758 B( 33-C , 35-C ) :   1.3592
B( 33-C , 37-H ) :   0.9746 B( 35-C , 38-C ) :   0.9081 B( 38-C , 39-C ) :   1.3807
B( 38-C , 40-C ) :   1.3833 B( 39-C , 41-C ) :   1.4532 B( 39-C , 42-H ) :   0.9688
B( 40-C , 43-C ) :   1.4511 B( 40-C , 44-H ) :   0.9685 B( 41-C , 45-C ) :   1.4015
B( 41-C , 46-H ) :   0.9805 B( 43-C , 45-C ) :   1.4012 B( 43-C , 47-H ) :   0.9808
B( 45-C , 48-H ) :   0.9764 B( 49-C , 50-C ) :   1.3636 B( 49-C , 51-C ) :   1.3688
B( 50-C , 52-C ) :   1.4650 B( 50-C , 53-H ) :   0.9730 B( 51-C , 54-C ) :   1.4654
B( 51-C , 55-H ) :   0.9742 B( 52-C , 56-C ) :   1.3627 B( 52-C , 57-H ) :   0.9758
B( 54-C , 56-C ) :   1.3592 B( 54-C , 58-H ) :   0.9746 B( 56-C , 59-C ) :   0.9083
B( 59-C , 60-C ) :   1.3809 B( 59-C , 61-C ) :   1.3835 B( 60-C , 62-C ) :   1.4530
B( 60-C , 63-H ) :   0.9688 B( 61-C , 64-C ) :   1.4506 B( 61-C , 65-H ) :   0.9684
B( 62-C , 66-C ) :   1.4015 B( 62-C , 67-H ) :   0.9805 B( 64-C , 66-C ) :   1.4010
B( 64-C , 68-H ) :   0.9810 B( 66-C , 69-H ) :   0.9764

MP2 TOTAL ENERGY:    -1746.720055408 Eh

-----------------------------------------------------------------------------
         ABSORPTION SPECTRUM VIA TRANSITION ELECTRIC DIPOLE MOMENTS
-----------------------------------------------------------------------------
State   Energy    Wavelength  fosc         T2        TX        TY        TZ
        (cm-1)      (nm)                 (au**2)    (au)      (au)      (au)
-----------------------------------------------------------------------------
   1   25664.7    389.6   1.127711216  14.46563  -3.80332   0.00141  -0.01881
   2   31613.0    316.3   0.712108278   7.41577  -0.00136  -2.72319   0.00164
   3   30336.0    329.6   0.350412845   3.80275  -1.94955  -0.00160  -0.04462
   4   32894.3    304.0   0.079851321   0.79917  -0.00325   0.89396  -0.00084
   5   35831.5    279.1   0.696040691   6.39506  -2.52877   0.00022  -0.01995
   6   32687.6    305.9   0.000341750   0.00344  -0.00316   0.05858  -0.00012
   7   36101.9    277.0   0.003658118   0.03336  -0.18251   0.00535  -0.00433
   8   36196.8    276.3   0.004864947   0.04425   0.00493   0.21029  -0.00027
   9   36822.2    271.6   0.000026743   0.00024  -0.00077   0.01542  -0.00091
  10   38923.8    256.9   0.000143590   0.00121   0.03209   0.00004  -0.01359
  11   39319.8    254.3   0.000203250   0.00170  -0.00028   0.04125   0.00004
  12   36551.0    273.6   0.002015869   0.01816  -0.13422  -0.00031   0.01187
  13   40455.6    247.2   0.397224608   3.23246   1.79374   0.00021   0.12228
  14   41724.1    239.7   0.000069607   0.00055   0.02304   0.00384   0.00193
  15   42175.8    237.1   0.001374599   0.01073  -0.01953   0.00060   0.10172
  16   38509.6    259.7   0.026477708   0.22635   0.47133  -0.00017  -0.06482
  17   42025.8    237.9   0.020972805   0.16429  -0.00137   0.40532   0.00125
  18   42928.9    232.9   0.097765488   0.74974  -0.83883  -0.00109   0.21472
  19   45567.4    219.5   0.469781179   3.39404  -1.84219   0.00060   0.01964
  20   49769.0    200.9   0.004486714   0.02968   0.00387   0.17223   0.00032
  21   44995.0    222.2   0.055926608   0.40919  -0.43226   0.00620  -0.47149
  22   44639.8    224.0   0.112053763   0.82638   0.00211   0.90904   0.00519
  23   45754.3    218.6   0.133322595   0.95928   0.00338  -0.97942  -0.00015
  24   45690.5    218.9   0.316035756   2.27712  -1.41581  -0.00107   0.52211
  25   46344.7    215.8   0.264105864   1.87609   0.00322   1.36970  -0.00116
  26   45028.1    222.1   0.222184024   1.62444   0.02910  -1.27364  -0.03781
  27   44940.2    222.5   0.379328861   2.77879   1.02550   0.04030  -1.31359
  28   47279.5    211.5   0.874922526   6.09217  -2.41414   0.00013  -0.51389
  29   48499.8    206.2   0.711020732   4.82634   0.00332  -2.19689  -0.00154
  30   45816.1    218.3   0.452769759   3.25338   1.73814   0.00191  -0.48193

FINAL SINGLE POINT ENERGY     -1743.730263997161

DIPOLE MOMENT
-------------
                                X             Y             Z
Electronic contribution:      0.00079       4.78596      -0.02566
Nuclear contribution   :     -0.00106      -3.31033       0.02858
                        -----------------------------------------
Total Dipole Moment    :     -0.00027       1.47563       0.00292
                        -----------------------------------------
Magnitude (a.u.)       :      1.47563
Magnitude (Debye)      :      3.75075

Rotational constants in cm-1:     0.003126     0.000782     0.000637
Rotational constants in MHz :    93.711609    23.448179    19.093811

                             ****ORCA TERMINATED NORMALLY****
TOTAL RUN TIME: 4 days 7 hours 8 minutes 29 seconds 757 msec
