                         Program Version 5.0.2 -  RELEASE  -
|  1> %maxcore 3200
|  2> %pal
|  3>  nprocs= 8
|  4> end
|  5> ! RI-wB2PLYP def2-TZVP def2/J def2-TZVP/C RIJCOSX CPCM TightSCF
|  6> %TDDFT DCORR 1
|  7>    NROOTS   30
|  8>
|  9>    TDA      FALSE
| 10> END
| 11>
| 12> %CPCM
| 13>    SMD          TRUE
| 14>    SMDsolvent   "N,N-DIMETHYLACETAMIDE"
| 15> END
| 16>
| 17>
| 18> * xyz 0 1
| 19> C                  -3.61688000    1.95222700    0.00979700
| 20> C                  -2.44498300    2.69219500    0.00577400
| 21> C                  -1.20128400    2.06784400   -0.00149600
| 22> C                  -1.17907300    0.66788400   -0.00746600
| 23> C                  -2.34227100   -0.06585600   -0.00741200
| 24> C                  -3.59805500    0.55825700    0.00165200
| 25> C                   1.17925100    0.66797700    0.00012600
| 26> C                   1.20135300    2.06794100   -0.00564300
| 27> C                   2.44501800    2.69237500   -0.01150300
| 28> H                   2.49303900    3.77321800   -0.00557800
| 29> C                   3.61696900    1.95248600   -0.01421200
| 30> C                   3.59827200    0.55852100   -0.00584900
| 31> C                   2.34249600   -0.06566900    0.00156900
| 32> H                  -2.49308300    3.77303600   -0.00006600
| 33> H                  -2.25543500   -1.14453900    0.00896800
| 34> H                   4.56073300    2.48154200    0.00265200
| 35> N                   0.00000900    2.76974200   -0.00410800
| 36> C                  -0.00004400    4.19949700   -0.00031200
| 37> C                   0.00177500    4.89081800   -1.20408000
| 38> C                  -0.00193000    4.88400000    1.20737700
| 39> C                   0.00177600    6.27761900   -1.19683800
| 40> C                  -0.00208600    6.27078300    1.20807700
| 41> H                  -0.00331900    4.32511400    2.13518600
| 42> C                  -0.00019500    6.96725300    0.00757900
| 43> H                  -0.00358800    6.80775300    2.14807900
| 44> H                  -0.00025800    8.04987200    0.01064200
| 45> H                   2.25571800   -1.14436300   -0.01477100
| 46> H                  -4.56071600    2.48121500   -0.00600400
| 47> C                  -4.83465400   -0.23344000   -0.00549800
| 48> C                  -4.86912000   -1.53095200   -0.52941200
| 49> C                  -6.03242900    0.27587300    0.50971700
| 50> C                  -6.03346800   -2.27397400   -0.54043000
| 51> H                  -3.97000500   -1.96338800   -0.95084000
| 52> C                  -7.19568500   -0.46915300    0.50181400
| 53> H                  -6.05130600    1.27062200    0.93751300
| 54> C                  -7.22900300   -1.76453000   -0.02454400
| 55> H                  -6.01072000   -3.27794800   -0.94633800
| 56> H                  -8.10232300   -0.03070500    0.90091100
| 57> C                  -8.46775000   -2.55848400   -0.03671700
| 58> C                  -8.69537900   -3.52297100   -1.02463100
| 59> C                  -9.45568300   -2.37552800    0.93692500
| 60> C                  -9.86027200   -4.27171800   -1.03872000
| 61> H                  -7.95862700   -3.67262300   -1.80424300
| 62> C                 -10.62003700   -3.12578400    0.92352900
| 63> H                  -9.29910100   -1.65084400    1.72667100
| 64> C                 -10.82954000   -4.07809300   -0.06437200
| 65> H                 -10.01498200   -5.00597100   -1.81977700
| 66> H                 -11.36515500   -2.97070200    1.69415900
| 67> H                 -11.74002800   -4.66387300   -0.07456800
| 68> C                   4.83493800   -0.23306800    0.00315900
| 69> C                   4.86829700   -1.53110400    0.52585200
| 70> C                   6.03385300    0.27676000   -0.50893300
| 71> C                   6.03252800   -2.27425500    0.53845900
| 72> H                   3.96829300   -1.96390300    0.94498200
| 73> C                   7.19702400   -0.46839400   -0.49941800
| 74> H                   6.05370500    1.27200400   -0.93557100
| 75> C                   7.22914400   -1.76437800    0.02552300
| 76> H                   6.00883900   -3.27870400    0.94315900
| 77> H                   8.10456900   -0.02959600   -0.89607400
| 78> C                   8.46773800   -2.55854200    0.03917500
| 79> C                   8.69365700   -3.52365500    1.02687300
| 80> C                   9.45714600   -2.37529900   -0.93288700
| 81> C                   9.85829700   -4.27277200    1.04223400
| 82> H                   7.95576200   -3.67358200    1.80535600
| 83> C                  10.62126300   -3.12591200   -0.91821500
| 84> H                   9.30198600   -1.65016900   -1.72250000
| 85> C                  10.82903400   -4.07888800    0.06940600
| 86> H                  10.01163200   -5.00753100    1.82308600
| 87> H                  11.36754600   -2.97055700   -1.68766400
| 88> H                  11.73931500   -4.66497100    0.08052700
| 89> O                   0.00012000   -0.03539000   -0.00456200
| 90> H                   0.00321700    6.81993700   -2.13376300
| 91> H                   0.00321900    4.33723700   -2.13505800
| 92> *
| 93>
| 94>
| 95>                          ****END OF INPUT****

CARTESIAN COORDINATES (ANGSTROEM)
---------------------------------
  C     -3.616880    1.952227    0.009797
  C     -2.444983    2.692195    0.005774
  C     -1.201284    2.067844   -0.001496
  C     -1.179073    0.667884   -0.007466
  C     -2.342271   -0.065856   -0.007412
  C     -3.598055    0.558257    0.001652
  C      1.179251    0.667977    0.000126
  C      1.201353    2.067941   -0.005643
  C      2.445018    2.692375   -0.011503
  H      2.493039    3.773218   -0.005578
  C      3.616969    1.952486   -0.014212
  C      3.598272    0.558521   -0.005849
  C      2.342496   -0.065669    0.001569
  H     -2.493083    3.773036   -0.000066
  H     -2.255435   -1.144539    0.008968
  H      4.560733    2.481542    0.002652
  N      0.000009    2.769742   -0.004108
  C     -0.000044    4.199497   -0.000312
  C      0.001775    4.890818   -1.204080
  C     -0.001930    4.884000    1.207377
  C      0.001776    6.277619   -1.196838
  C     -0.002086    6.270783    1.208077
  H     -0.003319    4.325114    2.135186
  C     -0.000195    6.967253    0.007579
  H     -0.003588    6.807753    2.148079
  H     -0.000258    8.049872    0.010642
  H      2.255718   -1.144363   -0.014771
  H     -4.560716    2.481215   -0.006004
  C     -4.834654   -0.233440   -0.005498
  C     -4.869120   -1.530952   -0.529412
  C     -6.032429    0.275873    0.509717
  C     -6.033468   -2.273974   -0.540430
  H     -3.970005   -1.963388   -0.950840
  C     -7.195685   -0.469153    0.501814
  H     -6.051306    1.270622    0.937513
  C     -7.229003   -1.764530   -0.024544
  H     -6.010720   -3.277948   -0.946338
  H     -8.102323   -0.030705    0.900911
  C     -8.467750   -2.558484   -0.036717
  C     -8.695379   -3.522971   -1.024631
  C     -9.455683   -2.375528    0.936925
  C     -9.860272   -4.271718   -1.038720
  H     -7.958627   -3.672623   -1.804243
  C    -10.620037   -3.125784    0.923529
  H     -9.299101   -1.650844    1.726671
  C    -10.829540   -4.078093   -0.064372
  H    -10.014982   -5.005971   -1.819777
  H    -11.365155   -2.970702    1.694159
  H    -11.740028   -4.663873   -0.074568
  C      4.834938   -0.233068    0.003159
  C      4.868297   -1.531104    0.525852
  C      6.033853    0.276760   -0.508933
  C      6.032528   -2.274255    0.538459
  H      3.968293   -1.963903    0.944982
  C      7.197024   -0.468394   -0.499418
  H      6.053705    1.272004   -0.935571
  C      7.229144   -1.764378    0.025523
  H      6.008839   -3.278704    0.943159
  H      8.104569   -0.029596   -0.896074
  C      8.467738   -2.558542    0.039175
  C      8.693657   -3.523655    1.026873
  C      9.457146   -2.375299   -0.932887
  C      9.858297   -4.272772    1.042234
  H      7.955762   -3.673582    1.805356
  C     10.621263   -3.125912   -0.918215
  H      9.301986   -1.650169   -1.722500
  C     10.829034   -4.078888    0.069406
  H     10.011632   -5.007531    1.823086
  H     11.367546   -2.970557   -1.687664
  H     11.739315   -4.664971    0.080527
  O      0.000120   -0.035390   -0.004562
  H      0.003217    6.819937   -2.133763
  H      0.003219    4.337237   -2.135058

 Total Charge           Charge          ....    0
 Multiplicity           Mult            ....    1
 Number of Electrons    NEL             ....  296
 Basis Dimension        Dim             .... 1538

ORBITAL ENERGIES
----------------

  NO   OCC          E(Eh)            E(eV)
   0   2.0000     -19.845953      -540.0358
   1   2.0000     -14.947064      -406.7303
   2   2.0000     -10.757863      -292.7363
   3   2.0000     -10.757841      -292.7357
   4   2.0000     -10.744243      -292.3657
   5   2.0000     -10.744224      -292.3652
   6   2.0000     -10.730825      -292.0006
   7   2.0000     -10.701120      -291.1923
   8   2.0000     -10.701113      -291.1921
   9   2.0000     -10.700471      -291.1746
  10   2.0000     -10.700468      -291.1745
  11   2.0000     -10.699059      -291.1362
  12   2.0000     -10.699055      -291.1361
  13   2.0000     -10.698790      -291.1289
  14   2.0000     -10.698785      -291.1287
  15   2.0000     -10.692106      -290.9470
  16   2.0000     -10.692099      -290.9468
  17   2.0000     -10.691169      -290.9215
  18   2.0000     -10.690638      -290.9070
  19   2.0000     -10.689983      -290.8892
  20   2.0000     -10.689866      -290.8860
  21   2.0000     -10.689863      -290.8860
  22   2.0000     -10.688977      -290.8618
  23   2.0000     -10.688976      -290.8618
  24   2.0000     -10.687038      -290.8091
  25   2.0000     -10.687035      -290.8090
  26   2.0000     -10.686990      -290.8078
  27   2.0000     -10.686987      -290.8077
  28   2.0000     -10.686912      -290.8057
  29   2.0000     -10.686910      -290.8056
  30   2.0000     -10.686381      -290.7912
  31   2.0000     -10.686378      -290.7911
  32   2.0000     -10.686255      -290.7878
  33   2.0000     -10.686253      -290.7877
  34   2.0000     -10.685935      -290.7791
  35   2.0000     -10.685930      -290.7789
  36   2.0000     -10.685890      -290.7779
  37   2.0000     -10.685885      -290.7777
  38   2.0000     -10.685539      -290.7683
  39   2.0000     -10.685537      -290.7682
  40   2.0000     -10.685335      -290.7627
  41   2.0000     -10.685333      -290.7627
  42   2.0000     -10.684372      -290.7365
  43   2.0000     -10.684371      -290.7365
  44   2.0000      -1.324170       -36.0325
  45   2.0000      -1.197620       -32.5889
  46   2.0000      -1.094050       -29.7706
  47   2.0000      -1.087730       -29.5986
  48   2.0000      -1.080717       -29.4078
  49   2.0000      -1.073749       -29.2182
  50   2.0000      -1.066013       -29.0077
  51   2.0000      -1.058785       -28.8110
  52   2.0000      -1.045490       -28.4492
  53   2.0000      -0.998333       -27.1660
  54   2.0000      -0.986169       -26.8350
  55   2.0000      -0.969264       -26.3750
  56   2.0000      -0.957222       -26.0473
  57   2.0000      -0.955521       -26.0010
  58   2.0000      -0.947505       -25.7829
  59   2.0000      -0.947302       -25.7774
  60   2.0000      -0.946002       -25.7420
  61   2.0000      -0.938344       -25.5336
  62   2.0000      -0.936268       -25.4771
  63   2.0000      -0.933088       -25.3906
  64   2.0000      -0.919022       -25.0079
  65   2.0000      -0.905261       -24.6334
  66   2.0000      -0.881509       -23.9871
  67   2.0000      -0.833439       -22.6790
  68   2.0000      -0.830078       -22.5876
  69   2.0000      -0.803956       -21.8767
  70   2.0000      -0.798528       -21.7290
  71   2.0000      -0.789248       -21.4765
  72   2.0000      -0.788083       -21.4448
  73   2.0000      -0.784496       -21.3472
  74   2.0000      -0.772172       -21.0119
  75   2.0000      -0.763611       -20.7789
  76   2.0000      -0.753262       -20.4973
  77   2.0000      -0.749400       -20.3922
  78   2.0000      -0.747605       -20.3434
  79   2.0000      -0.744611       -20.2619
  80   2.0000      -0.725868       -19.7519
  81   2.0000      -0.717487       -19.5238
  82   2.0000      -0.693050       -18.8588
  83   2.0000      -0.684528       -18.6269
  84   2.0000      -0.684125       -18.6160
  85   2.0000      -0.659594       -17.9485
  86   2.0000      -0.657380       -17.8882
  87   2.0000      -0.644839       -17.5470
  88   2.0000      -0.637278       -17.3412
  89   2.0000      -0.631142       -17.1742
  90   2.0000      -0.624161       -16.9843
  91   2.0000      -0.622316       -16.9341
  92   2.0000      -0.618661       -16.8346
  93   2.0000      -0.613132       -16.6842
  94   2.0000      -0.608210       -16.5502
  95   2.0000      -0.604998       -16.4628
  96   2.0000      -0.592666       -16.1272
  97   2.0000      -0.588166       -16.0048
  98   2.0000      -0.582847       -15.8601
  99   2.0000      -0.580523       -15.7968
 100   2.0000      -0.576803       -15.6956
 101   2.0000      -0.576315       -15.6823
 102   2.0000      -0.573967       -15.6184
 103   2.0000      -0.571548       -15.5526
 104   2.0000      -0.568412       -15.4673
 105   2.0000      -0.565590       -15.3905
 106   2.0000      -0.563391       -15.3306
 107   2.0000      -0.561213       -15.2714
 108   2.0000      -0.560793       -15.2600
 109   2.0000      -0.548775       -14.9329
 110   2.0000      -0.548101       -14.9146
 111   2.0000      -0.541731       -14.7412
 112   2.0000      -0.530740       -14.4422
 113   2.0000      -0.525350       -14.2955
 114   2.0000      -0.522991       -14.2313
 115   2.0000      -0.521951       -14.2030
 116   2.0000      -0.519321       -14.1314
 117   2.0000      -0.512480       -13.9453
 118   2.0000      -0.507296       -13.8042
 119   2.0000      -0.499168       -13.5830
 120   2.0000      -0.498719       -13.5708
 121   2.0000      -0.493044       -13.4164
 122   2.0000      -0.491578       -13.3765
 123   2.0000      -0.490753       -13.3541
 124   2.0000      -0.484987       -13.1972
 125   2.0000      -0.476571       -12.9681
 126   2.0000      -0.476286       -12.9604
 127   2.0000      -0.471481       -12.8297
 128   2.0000      -0.467973       -12.7342
 129   2.0000      -0.465454       -12.6656
 130   2.0000      -0.461907       -12.5691
 131   2.0000      -0.452746       -12.3198
 132   2.0000      -0.449390       -12.2285
 133   2.0000      -0.449262       -12.2250
 134   2.0000      -0.405417       -11.0319
 135   2.0000      -0.384325       -10.4580
 136   2.0000      -0.368087       -10.0162
 137   2.0000      -0.357864        -9.7380
 138   2.0000      -0.355921        -9.6851
 139   2.0000      -0.354167        -9.6374
 140   2.0000      -0.353932        -9.6310
 141   2.0000      -0.351637        -9.5685
 142   2.0000      -0.351015        -9.5516
 143   2.0000      -0.350857        -9.5473
 144   2.0000      -0.335575        -9.1315
 145   2.0000      -0.314834        -8.5671
 146   2.0000      -0.297925        -8.1069
 147   2.0000      -0.256968        -6.9924
 148   0.0000       0.029996         0.8162
 149   0.0000       0.041938         1.1412
 150   0.0000       0.066545         1.8108
 151   0.0000       0.073569         2.0019
 152   0.0000       0.078075         2.1245

MULLIKEN ATOMIC CHARGES
-----------------------
   0 C :   -0.263295
   1 C :   -0.242748
   2 C :    0.080570
   3 C :    0.214739
   4 C :   -0.350423
   5 C :    0.169666
   6 C :    0.217743
   7 C :    0.079745
   8 C :   -0.243412
   9 H :    0.199407
  10 C :   -0.262684
  11 C :    0.170028
  12 C :   -0.352111
  13 H :    0.199338
  14 H :    0.174879
  15 H :    0.180008
  16 N :    0.005887
  17 C :    0.001369
  18 C :   -0.236867
  19 C :   -0.237583
  20 C :   -0.132511
  21 C :   -0.132458
  22 H :    0.183419
  23 C :   -0.160383
  24 H :    0.182262
  25 H :    0.182863
  26 H :    0.174797
  27 H :    0.179883
  28 C :    0.118874
  29 C :   -0.243476
  30 C :   -0.245050
  31 C :   -0.249229
  32 H :    0.178328
  33 C :   -0.246856
  34 H :    0.178650
  35 C :    0.178986
  36 H :    0.179901
  37 H :    0.180497
  38 C :    0.100744
  39 C :   -0.247218
  40 C :   -0.248615
  41 C :   -0.196005
  42 H :    0.181109
  43 C :   -0.193031
  44 H :    0.182010
  45 C :   -0.171329
  46 H :    0.178349
  47 H :    0.177741
  48 H :    0.179787
  49 C :    0.119021
  50 C :   -0.244008
  51 C :   -0.245343
  52 C :   -0.249150
  53 H :    0.178160
  54 C :   -0.246611
  55 H :    0.178685
  56 C :    0.178338
  57 H :    0.179966
  58 H :    0.180525
  59 C :    0.100450
  60 C :   -0.247538
  61 C :   -0.247643
  62 C :   -0.195942
  63 H :    0.181135
  64 C :   -0.192868
  65 H :    0.182104
  66 C :   -0.171345
  67 H :    0.178413
  68 H :    0.177524
  69 H :    0.179806
  70 O :   -0.295606
  71 H :    0.182320
  72 H :    0.183312
Sum of atomic charges:   -0.0000000

LOEWDIN ATOMIC CHARGES
----------------------
   0 C :   -0.113475
   1 C :   -0.120736
   2 C :   -0.139561
   3 C :   -0.195695
   4 C :   -0.076587
   5 C :   -0.122697
   6 C :   -0.195696
   7 C :   -0.139562
   8 C :   -0.120740
   9 H :    0.165700
  10 C :   -0.113463
  11 C :   -0.122695
  12 C :   -0.076592
  13 H :    0.165702
  14 H :    0.166103
  15 H :    0.160929
  16 N :    0.275889
  17 C :   -0.175165
  18 C :   -0.101495
  19 C :   -0.101475
  20 C :   -0.140312
  21 C :   -0.140315
  22 H :    0.163896
  23 C :   -0.140349
  24 H :    0.157032
  25 H :    0.156386
  26 H :    0.166100
  27 H :    0.160935
  28 C :   -0.110859
  29 C :   -0.107536
  30 C :   -0.106924
  31 C :   -0.106378
  32 H :    0.160056
  33 C :   -0.106397
  34 H :    0.159979
  35 C :   -0.112440
  36 H :    0.160504
  37 H :    0.160440
  38 C :   -0.112160
  39 C :   -0.109456
  40 C :   -0.109524
  41 C :   -0.150137
  42 H :    0.159099
  43 C :   -0.150009
  44 H :    0.159137
  45 C :   -0.152779
  46 H :    0.155240
  47 H :    0.155187
  48 H :    0.153769
  49 C :   -0.110854
  50 C :   -0.107537
  51 C :   -0.106923
  52 C :   -0.106387
  53 H :    0.160052
  54 C :   -0.106398
  55 H :    0.159980
  56 C :   -0.112443
  57 H :    0.160508
  58 H :    0.160443
  59 C :   -0.112165
  60 C :   -0.109457
  61 C :   -0.109526
  62 C :   -0.150135
  63 H :    0.159102
  64 C :   -0.150006
  65 H :    0.159140
  66 C :   -0.152781
  67 H :    0.155241
  68 H :    0.155184
  69 H :    0.153768
  70 O :    0.299417
  71 H :    0.157032
  72 H :    0.163873

  Mayer bond orders larger than 0.100000
B(  0-C ,  1-C ) :   1.4599 B(  0-C ,  5-C ) :   1.3899 B(  0-C , 27-H ) :   0.9547
B(  1-C ,  2-C ) :   1.3449 B(  1-C , 13-H ) :   0.9544 B(  2-C ,  3-C ) :   1.3084
B(  2-C , 16-N ) :   1.0889 B(  3-C ,  4-C ) :   1.5238 B(  3-C , 70-O ) :   1.0132
B(  4-C ,  5-C ) :   1.3616 B(  4-C , 14-H ) :   0.9418 B(  5-C , 28-C ) :   0.9313
B(  6-C ,  7-C ) :   1.3083 B(  6-C , 12-C ) :   1.5230 B(  6-C , 70-O ) :   1.0131
B(  7-C ,  8-C ) :   1.3443 B(  7-C , 16-N ) :   1.0888 B(  8-C ,  9-H ) :   0.9547
B(  8-C , 10-C ) :   1.4601 B( 10-C , 11-C ) :   1.3899 B( 10-C , 15-H ) :   0.9544
B( 11-C , 12-C ) :   1.3615 B( 11-C , 49-C ) :   0.9309 B( 12-C , 26-H ) :   0.9425
B( 16-N , 17-C ) :   0.7130 B( 17-C , 18-C ) :   1.4578 B( 17-C , 19-C ) :   1.4585
B( 18-C , 20-C ) :   1.4080 B( 18-C , 72-H ) :   0.9741 B( 19-C , 21-C ) :   1.4084
B( 19-C , 22-H ) :   0.9740 B( 20-C , 23-C ) :   1.3937 B( 20-C , 71-H ) :   0.9723
B( 21-C , 23-C ) :   1.3934 B( 21-C , 24-H ) :   0.9723 B( 23-C , 25-H ) :   0.9700
B( 28-C , 29-C ) :   1.3618 B( 28-C , 30-C ) :   1.3675 B( 29-C , 31-C ) :   1.4834
B( 29-C , 32-H ) :   0.9610 B( 30-C , 33-C ) :   1.4839 B( 30-C , 34-H ) :   0.9613
B( 31-C , 35-C ) :   1.3649 B( 31-C , 36-H ) :   0.9622 B( 33-C , 35-C ) :   1.3616
B( 33-C , 37-H ) :   0.9616 B( 35-C , 38-C ) :   0.9138 B( 38-C , 39-C ) :   1.3731
B( 38-C , 40-C ) :   1.3756 B( 39-C , 41-C ) :   1.4536 B( 39-C , 42-H ) :   0.9591
B( 40-C , 43-C ) :   1.4519 B( 40-C , 44-H ) :   0.9587 B( 41-C , 45-C ) :   1.4018
B( 41-C , 46-H ) :   0.9740 B( 43-C , 45-C ) :   1.4014 B( 43-C , 47-H ) :   0.9744
B( 45-C , 48-H ) :   0.9708 B( 49-C , 50-C ) :   1.3612 B( 49-C , 51-C ) :   1.3672
B( 50-C , 52-C ) :   1.4840 B( 50-C , 53-H ) :   0.9611 B( 51-C , 54-C ) :   1.4838
B( 51-C , 55-H ) :   0.9613 B( 52-C , 56-C ) :   1.3651 B( 52-C , 57-H ) :   0.9622
B( 54-C , 56-C ) :   1.3617 B( 54-C , 58-H ) :   0.9616 B( 56-C , 59-C ) :   0.9140
B( 59-C , 60-C ) :   1.3734 B( 59-C , 61-C ) :   1.3758 B( 60-C , 62-C ) :   1.4535
B( 60-C , 63-H ) :   0.9591 B( 61-C , 64-C ) :   1.4514 B( 61-C , 65-H ) :   0.9586
B( 62-C , 66-C ) :   1.4018 B( 62-C , 67-H ) :   0.9741 B( 64-C , 66-C ) :   1.4013
B( 64-C , 68-H ) :   0.9746 B( 66-C , 69-H ) :   0.9708

MP2 TOTAL ENERGY:    -1745.064577832 Eh

-----------------------------------------------------------------------------
         ABSORPTION SPECTRUM VIA TRANSITION ELECTRIC DIPOLE MOMENTS
-----------------------------------------------------------------------------
State   Energy    Wavelength  fosc         T2        TX        TY        TZ
        (cm-1)      (nm)                 (au**2)    (au)      (au)      (au)
-----------------------------------------------------------------------------
   1   28602.0    349.6   1.164081022  13.39869   3.66038  -0.00142   0.01781
   2   34467.7    290.1   0.735919662   7.02901  -0.00099  -2.65123   0.00161
   3   33434.4    299.1   0.392617246   3.86591   1.96574   0.00231   0.04209
   4   35497.7    281.7   0.105766118   0.98090  -0.00276   0.99040  -0.00086
   5   38063.0    262.7   0.736798252   6.37267   2.52433  -0.00045   0.02110
   6   38899.1    257.1   0.004935037   0.04177   0.20339  -0.01298   0.01513
   7   38945.7    256.8   0.001671065   0.01413  -0.02246  -0.11670  -0.00142
   8   38360.8    260.7   0.000006267   0.00005  -0.00112   0.00725  -0.00003
   9   41411.6    241.5   0.000766737   0.00610  -0.00032  -0.07807  -0.00045
  10   41395.8    241.6   0.000112402   0.00089   0.02624  -0.00090   0.01430
  11   43485.8    230.0   0.003003865   0.02274   0.00145   0.15079   0.00093
  12   43412.9    230.3   0.001857835   0.01409   0.03169   0.00002  -0.11439
  13   43559.8    229.6   0.318536116   2.40740   1.55001   0.00075   0.06987
  14   43453.6    230.1   0.162030637   1.22757   1.10451   0.00037   0.08737
  15   45994.6    217.4   0.009851727   0.07051  -0.00612   0.26548  -0.00028
  16   47210.5    211.8   0.079879928   0.55702  -0.68241  -0.00060   0.30222
  17   50042.6    199.8   0.000019940   0.00013   0.01077   0.00071  -0.00382
  18   47614.9    210.0   0.150232752   1.03872  -0.97746   0.00152   0.28858
  19   47928.5    208.6   0.975411220   6.69992   2.58570  -0.00237   0.11857
  20   47303.8    211.4   0.101306746   0.70505   0.00727   0.83964  -0.00051
  21   49547.9    201.8   0.309354176   2.05545  -0.00188  -1.43368   0.00035
  22   48719.0    205.3   0.054149599   0.36591   0.45029  -0.00631  -0.40387
  23   48737.1    205.2   0.194340092   1.31274  -0.00317  -1.14574   0.00244
  24   50361.4    198.6   0.742022264   4.85059  -0.00054   2.20241  -0.00068
  25   50744.0    197.1   0.939021440   6.09209  -0.01524   2.46810   0.01838
  26   51489.6    194.2   1.508103522   9.64245   2.83237   0.01867  -1.27272
  27   51271.1    195.0   0.476803943   3.06156  -0.91031   0.01532  -1.49421
  28   47877.1    208.9   0.155390761   1.06850  -1.02746  -0.00291  -0.11320
  29   51588.5    193.8   0.189619849   1.21006  -0.00059  -1.10002  -0.00161
  30   53209.0    187.9   0.041400541   0.25615   0.48861  -0.00135  -0.13195

FINAL SINGLE POINT ENERGY     -1742.886379995658

DIPOLE MOMENT
-------------
                                X             Y             Z
Electronic contribution:      0.00081       4.76149      -0.02557
Nuclear contribution   :     -0.00106      -3.31033       0.02858
                        -----------------------------------------
Total Dipole Moment    :     -0.00025       1.45116       0.00301
                        -----------------------------------------
Magnitude (a.u.)       :      1.45117
Magnitude (Debye)      :      3.68857

Rotational constants in cm-1:     0.003126     0.000782     0.000637
Rotational constants in MHz :    93.711609    23.448179    19.093811

                             ****ORCA TERMINATED NORMALLY****
TOTAL RUN TIME: 0 days 8 hours 6 minutes 27 seconds 787 msec
