                         Program Version 5.0.2 -  RELEASE  -
|  1> %maxcore 20000
|  2> %pal
|  3>  nprocs= 4
|  4> end
|  5> ! RI-wPBEPP86   def2-TZVP def2/J def2-TZVP/C RIJCOSX CPCM TightSCF
|  6> %TDDFT
|  7>    NROOTS   30
|  8>    dcorr 1
|  9>    TDA      FALSE
| 10> END
| 11>
| 12> %CPCM
| 13>    SMD          TRUE
| 14>    SMDsolvent   "N,N-DIMETHYLACETAMIDE"
| 15> END
| 16>
| 17>
| 18> * xyz 0 1
| 19> C                  -3.61688000    1.95222700    0.00979700
| 20> C                  -2.44498300    2.69219500    0.00577400
| 21> C                  -1.20128400    2.06784400   -0.00149600
| 22> C                  -1.17907300    0.66788400   -0.00746600
| 23> C                  -2.34227100   -0.06585600   -0.00741200
| 24> C                  -3.59805500    0.55825700    0.00165200
| 25> C                   1.17925100    0.66797700    0.00012600
| 26> C                   1.20135300    2.06794100   -0.00564300
| 27> C                   2.44501800    2.69237500   -0.01150300
| 28> H                   2.49303900    3.77321800   -0.00557800
| 29> C                   3.61696900    1.95248600   -0.01421200
| 30> C                   3.59827200    0.55852100   -0.00584900
| 31> C                   2.34249600   -0.06566900    0.00156900
| 32> H                  -2.49308300    3.77303600   -0.00006600
| 33> H                  -2.25543500   -1.14453900    0.00896800
| 34> H                   4.56073300    2.48154200    0.00265200
| 35> N                   0.00000900    2.76974200   -0.00410800
| 36> C                  -0.00004400    4.19949700   -0.00031200
| 37> C                   0.00177500    4.89081800   -1.20408000
| 38> C                  -0.00193000    4.88400000    1.20737700
| 39> C                   0.00177600    6.27761900   -1.19683800
| 40> C                  -0.00208600    6.27078300    1.20807700
| 41> H                  -0.00331900    4.32511400    2.13518600
| 42> C                  -0.00019500    6.96725300    0.00757900
| 43> H                  -0.00358800    6.80775300    2.14807900
| 44> H                  -0.00025800    8.04987200    0.01064200
| 45> H                   2.25571800   -1.14436300   -0.01477100
| 46> H                  -4.56071600    2.48121500   -0.00600400
| 47> C                  -4.83465400   -0.23344000   -0.00549800
| 48> C                  -4.86912000   -1.53095200   -0.52941200
| 49> C                  -6.03242900    0.27587300    0.50971700
| 50> C                  -6.03346800   -2.27397400   -0.54043000
| 51> H                  -3.97000500   -1.96338800   -0.95084000
| 52> C                  -7.19568500   -0.46915300    0.50181400
| 53> H                  -6.05130600    1.27062200    0.93751300
| 54> C                  -7.22900300   -1.76453000   -0.02454400
| 55> H                  -6.01072000   -3.27794800   -0.94633800
| 56> H                  -8.10232300   -0.03070500    0.90091100
| 57> C                  -8.46775000   -2.55848400   -0.03671700
| 58> C                  -8.69537900   -3.52297100   -1.02463100
| 59> C                  -9.45568300   -2.37552800    0.93692500
| 60> C                  -9.86027200   -4.27171800   -1.03872000
| 61> H                  -7.95862700   -3.67262300   -1.80424300
| 62> C                 -10.62003700   -3.12578400    0.92352900
| 63> H                  -9.29910100   -1.65084400    1.72667100
| 64> C                 -10.82954000   -4.07809300   -0.06437200
| 65> H                 -10.01498200   -5.00597100   -1.81977700
| 66> H                 -11.36515500   -2.97070200    1.69415900
| 67> H                 -11.74002800   -4.66387300   -0.07456800
| 68> C                   4.83493800   -0.23306800    0.00315900
| 69> C                   4.86829700   -1.53110400    0.52585200
| 70> C                   6.03385300    0.27676000   -0.50893300
| 71> C                   6.03252800   -2.27425500    0.53845900
| 72> H                   3.96829300   -1.96390300    0.94498200
| 73> C                   7.19702400   -0.46839400   -0.49941800
| 74> H                   6.05370500    1.27200400   -0.93557100
| 75> C                   7.22914400   -1.76437800    0.02552300
| 76> H                   6.00883900   -3.27870400    0.94315900
| 77> H                   8.10456900   -0.02959600   -0.89607400
| 78> C                   8.46773800   -2.55854200    0.03917500
| 79> C                   8.69365700   -3.52365500    1.02687300
| 80> C                   9.45714600   -2.37529900   -0.93288700
| 81> C                   9.85829700   -4.27277200    1.04223400
| 82> H                   7.95576200   -3.67358200    1.80535600
| 83> C                  10.62126300   -3.12591200   -0.91821500
| 84> H                   9.30198600   -1.65016900   -1.72250000
| 85> C                  10.82903400   -4.07888800    0.06940600
| 86> H                  10.01163200   -5.00753100    1.82308600
| 87> H                  11.36754600   -2.97055700   -1.68766400
| 88> H                  11.73931500   -4.66497100    0.08052700
| 89> O                   0.00012000   -0.03539000   -0.00456200
| 90> H                   0.00321700    6.81993700   -2.13376300
| 91> H                   0.00321900    4.33723700   -2.13505800
| 92> *
| 93>
| 94>
| 95>                          ****END OF INPUT****

CARTESIAN COORDINATES (ANGSTROEM)
---------------------------------
  C     -3.616880    1.952227    0.009797
  C     -2.444983    2.692195    0.005774
  C     -1.201284    2.067844   -0.001496
  C     -1.179073    0.667884   -0.007466
  C     -2.342271   -0.065856   -0.007412
  C     -3.598055    0.558257    0.001652
  C      1.179251    0.667977    0.000126
  C      1.201353    2.067941   -0.005643
  C      2.445018    2.692375   -0.011503
  H      2.493039    3.773218   -0.005578
  C      3.616969    1.952486   -0.014212
  C      3.598272    0.558521   -0.005849
  C      2.342496   -0.065669    0.001569
  H     -2.493083    3.773036   -0.000066
  H     -2.255435   -1.144539    0.008968
  H      4.560733    2.481542    0.002652
  N      0.000009    2.769742   -0.004108
  C     -0.000044    4.199497   -0.000312
  C      0.001775    4.890818   -1.204080
  C     -0.001930    4.884000    1.207377
  C      0.001776    6.277619   -1.196838
  C     -0.002086    6.270783    1.208077
  H     -0.003319    4.325114    2.135186
  C     -0.000195    6.967253    0.007579
  H     -0.003588    6.807753    2.148079
  H     -0.000258    8.049872    0.010642
  H      2.255718   -1.144363   -0.014771
  H     -4.560716    2.481215   -0.006004
  C     -4.834654   -0.233440   -0.005498
  C     -4.869120   -1.530952   -0.529412
  C     -6.032429    0.275873    0.509717
  C     -6.033468   -2.273974   -0.540430
  H     -3.970005   -1.963388   -0.950840
  C     -7.195685   -0.469153    0.501814
  H     -6.051306    1.270622    0.937513
  C     -7.229003   -1.764530   -0.024544
  H     -6.010720   -3.277948   -0.946338
  H     -8.102323   -0.030705    0.900911
  C     -8.467750   -2.558484   -0.036717
  C     -8.695379   -3.522971   -1.024631
  C     -9.455683   -2.375528    0.936925
  C     -9.860272   -4.271718   -1.038720
  H     -7.958627   -3.672623   -1.804243
  C    -10.620037   -3.125784    0.923529
  H     -9.299101   -1.650844    1.726671
  C    -10.829540   -4.078093   -0.064372
  H    -10.014982   -5.005971   -1.819777
  H    -11.365155   -2.970702    1.694159
  H    -11.740028   -4.663873   -0.074568
  C      4.834938   -0.233068    0.003159
  C      4.868297   -1.531104    0.525852
  C      6.033853    0.276760   -0.508933
  C      6.032528   -2.274255    0.538459
  H      3.968293   -1.963903    0.944982
  C      7.197024   -0.468394   -0.499418
  H      6.053705    1.272004   -0.935571
  C      7.229144   -1.764378    0.025523
  H      6.008839   -3.278704    0.943159
  H      8.104569   -0.029596   -0.896074
  C      8.467738   -2.558542    0.039175
  C      8.693657   -3.523655    1.026873
  C      9.457146   -2.375299   -0.932887
  C      9.858297   -4.272772    1.042234
  H      7.955762   -3.673582    1.805356
  C     10.621263   -3.125912   -0.918215
  H      9.301986   -1.650169   -1.722500
  C     10.829034   -4.078888    0.069406
  H     10.011632   -5.007531    1.823086
  H     11.367546   -2.970557   -1.687664
  H     11.739315   -4.664971    0.080527
  O      0.000120   -0.035390   -0.004562
  H      0.003217    6.819937   -2.133763
  H      0.003219    4.337237   -2.135058

 Total Charge           Charge          ....    0
 Multiplicity           Mult            ....    1
 Number of Electrons    NEL             ....  296
 Basis Dimension        Dim             .... 1538

ORBITAL ENERGIES
----------------

  NO   OCC          E(Eh)            E(eV)
   0   2.0000     -20.109674      -547.2121
   1   2.0000     -15.172273      -412.8585
   2   2.0000     -10.938908      -297.6628
   3   2.0000     -10.938890      -297.6623
   4   2.0000     -10.925536      -297.2989
   5   2.0000     -10.925520      -297.2985
   6   2.0000     -10.912008      -296.9308
   7   2.0000     -10.882373      -296.1244
   8   2.0000     -10.882365      -296.1242
   9   2.0000     -10.881330      -296.0960
  10   2.0000     -10.881328      -296.0960
  11   2.0000     -10.880143      -296.0637
  12   2.0000     -10.880139      -296.0636
  13   2.0000     -10.880085      -296.0622
  14   2.0000     -10.880080      -296.0620
  15   2.0000     -10.872198      -295.8475
  16   2.0000     -10.872192      -295.8474
  17   2.0000     -10.871083      -295.8172
  18   2.0000     -10.870543      -295.8025
  19   2.0000     -10.870541      -295.8025
  20   2.0000     -10.870448      -295.7999
  21   2.0000     -10.869719      -295.7801
  22   2.0000     -10.869644      -295.7781
  23   2.0000     -10.869644      -295.7780
  24   2.0000     -10.867704      -295.7253
  25   2.0000     -10.867701      -295.7252
  26   2.0000     -10.867577      -295.7218
  27   2.0000     -10.867573      -295.7217
  28   2.0000     -10.867451      -295.7184
  29   2.0000     -10.867449      -295.7183
  30   2.0000     -10.866476      -295.6918
  31   2.0000     -10.866473      -295.6918
  32   2.0000     -10.866380      -295.6892
  33   2.0000     -10.866375      -295.6891
  34   2.0000     -10.866353      -295.6885
  35   2.0000     -10.866352      -295.6885
  36   2.0000     -10.866324      -295.6877
  37   2.0000     -10.866319      -295.6876
  38   2.0000     -10.865560      -295.6669
  39   2.0000     -10.865557      -295.6669
  40   2.0000     -10.865259      -295.6587
  41   2.0000     -10.865257      -295.6587
  42   2.0000     -10.864172      -295.6292
  43   2.0000     -10.864171      -295.6291
  44   2.0000      -1.364703       -37.1355
  45   2.0000      -1.231356       -33.5069
  46   2.0000      -1.122494       -30.5446
  47   2.0000      -1.116000       -30.3679
  48   2.0000      -1.108573       -30.1658
  49   2.0000      -1.101335       -29.9688
  50   2.0000      -1.093288       -29.7499
  51   2.0000      -1.085902       -29.5489
  52   2.0000      -1.072246       -29.1773
  53   2.0000      -1.023283       -27.8449
  54   2.0000      -1.010727       -27.5033
  55   2.0000      -0.992933       -27.0191
  56   2.0000      -0.980585       -26.6831
  57   2.0000      -0.979080       -26.6421
  58   2.0000      -0.970492       -26.4084
  59   2.0000      -0.970401       -26.4060
  60   2.0000      -0.969061       -26.3695
  61   2.0000      -0.961322       -26.1589
  62   2.0000      -0.959293       -26.1037
  63   2.0000      -0.956103       -26.0169
  64   2.0000      -0.941717       -25.6254
  65   2.0000      -0.927456       -25.2373
  66   2.0000      -0.903115       -24.5750
  67   2.0000      -0.851687       -23.1756
  68   2.0000      -0.847801       -23.0698
  69   2.0000      -0.820874       -22.3371
  70   2.0000      -0.815621       -22.1942
  71   2.0000      -0.805768       -21.9261
  72   2.0000      -0.804575       -21.8936
  73   2.0000      -0.800600       -21.7854
  74   2.0000      -0.788329       -21.4515
  75   2.0000      -0.779543       -21.2124
  76   2.0000      -0.768915       -20.9232
  77   2.0000      -0.765348       -20.8262
  78   2.0000      -0.763247       -20.7690
  79   2.0000      -0.759081       -20.6556
  80   2.0000      -0.738767       -20.1029
  81   2.0000      -0.731812       -19.9136
  82   2.0000      -0.704270       -19.1642
  83   2.0000      -0.695074       -18.9139
  84   2.0000      -0.694701       -18.9038
  85   2.0000      -0.670809       -18.2536
  86   2.0000      -0.669478       -18.2174
  87   2.0000      -0.655501       -17.8371
  88   2.0000      -0.647720       -17.6254
  89   2.0000      -0.641166       -17.4470
  90   2.0000      -0.635360       -17.2890
  91   2.0000      -0.632626       -17.2146
  92   2.0000      -0.629776       -17.1371
  93   2.0000      -0.623733       -16.9726
  94   2.0000      -0.618455       -16.8290
  95   2.0000      -0.615348       -16.7445
  96   2.0000      -0.602093       -16.3838
  97   2.0000      -0.597657       -16.2631
  98   2.0000      -0.592165       -16.1136
  99   2.0000      -0.589481       -16.0406
 100   2.0000      -0.585952       -15.9446
 101   2.0000      -0.585365       -15.9286
 102   2.0000      -0.582910       -15.8618
 103   2.0000      -0.580382       -15.7930
 104   2.0000      -0.577227       -15.7072
 105   2.0000      -0.574314       -15.6279
 106   2.0000      -0.571083       -15.5400
 107   2.0000      -0.569003       -15.4834
 108   2.0000      -0.568572       -15.4716
 109   2.0000      -0.556460       -15.1421
 110   2.0000      -0.555783       -15.1236
 111   2.0000      -0.550915       -14.9912
 112   2.0000      -0.534878       -14.5548
 113   2.0000      -0.531952       -14.4752
 114   2.0000      -0.531889       -14.4734
 115   2.0000      -0.529829       -14.4174
 116   2.0000      -0.525832       -14.3086
 117   2.0000      -0.516264       -14.0483
 118   2.0000      -0.511481       -13.9181
 119   2.0000      -0.506571       -13.7845
 120   2.0000      -0.502581       -13.6759
 121   2.0000      -0.500136       -13.6094
 122   2.0000      -0.497642       -13.5415
 123   2.0000      -0.494122       -13.4457
 124   2.0000      -0.492110       -13.3910
 125   2.0000      -0.483182       -13.1480
 126   2.0000      -0.482118       -13.1191
 127   2.0000      -0.477915       -13.0047
 128   2.0000      -0.474582       -12.9140
 129   2.0000      -0.471988       -12.8435
 130   2.0000      -0.468715       -12.7544
 131   2.0000      -0.457484       -12.4488
 132   2.0000      -0.455655       -12.3990
 133   2.0000      -0.455554       -12.3963
 134   2.0000      -0.408550       -11.1172
 135   2.0000      -0.387534       -10.5453
 136   2.0000      -0.370630       -10.0854
 137   2.0000      -0.360361        -9.8059
 138   2.0000      -0.358288        -9.7495
 139   2.0000      -0.356505        -9.7010
 140   2.0000      -0.356251        -9.6941
 141   2.0000      -0.353993        -9.6326
 142   2.0000      -0.353047        -9.6069
 143   2.0000      -0.352916        -9.6033
 144   2.0000      -0.338749        -9.2178
 145   2.0000      -0.317998        -8.6532
 146   2.0000      -0.300418        -8.1748
 147   2.0000      -0.260498        -7.0885
 148   0.0000       0.022825         0.6211
 149   0.0000       0.035011         0.9527
 150   0.0000       0.060071         1.6346
 151   0.0000       0.067105         1.8260
 152   0.0000       0.071811         1.9541

MULLIKEN ATOMIC CHARGES
-----------------------
   0 C :   -0.281674
   1 C :   -0.267917
   2 C :    0.091304
   3 C :    0.237173
   4 C :   -0.396106
   5 C :    0.203114
   6 C :    0.240161
   7 C :    0.090529
   8 C :   -0.268704
   9 H :    0.206344
  10 C :   -0.280962
  11 C :    0.203414
  12 C :   -0.397737
  13 H :    0.206279
  14 H :    0.184022
  15 H :    0.188053
  16 N :    0.045529
  17 C :   -0.008264
  18 C :   -0.261010
  19 C :   -0.261865
  20 C :   -0.129476
  21 C :   -0.129410
  22 H :    0.190084
  23 C :   -0.164432
  24 H :    0.188462
  25 H :    0.188570
  26 H :    0.183932
  27 H :    0.187948
  28 C :    0.127339
  29 C :   -0.257906
  30 C :   -0.261132
  31 C :   -0.265222
  32 H :    0.186581
  33 C :   -0.262308
  34 H :    0.186494
  35 C :    0.210916
  36 H :    0.187957
  37 H :    0.188910
  38 C :    0.101239
  39 C :   -0.267553
  40 C :   -0.269205
  41 C :   -0.200707
  42 H :    0.189323
  43 C :   -0.197371
  44 H :    0.190376
  45 C :   -0.174867
  46 H :    0.184877
  47 H :    0.184134
  48 H :    0.186501
  49 C :    0.127528
  50 C :   -0.258536
  51 C :   -0.261423
  52 C :   -0.265087
  53 H :    0.186408
  54 C :   -0.262030
  55 H :    0.186518
  56 C :    0.210246
  57 H :    0.188026
  58 H :    0.188939
  59 C :    0.100961
  60 C :   -0.267945
  61 C :   -0.268221
  62 C :   -0.200593
  63 H :    0.189350
  64 C :   -0.197158
  65 H :    0.190479
  66 C :   -0.174947
  67 H :    0.184940
  68 H :    0.183935
  69 H :    0.186516
  70 O :   -0.302125
  71 H :    0.188519
  72 H :    0.189961
Sum of atomic charges:   -0.0000000

LOEWDIN ATOMIC CHARGES
----------------------
   0 C :   -0.113522
   1 C :   -0.121270
   2 C :   -0.141061
   3 C :   -0.194525
   4 C :   -0.075870
   5 C :   -0.126182
   6 C :   -0.194526
   7 C :   -0.141062
   8 C :   -0.121274
   9 H :    0.167616
  10 C :   -0.113509
  11 C :   -0.126180
  12 C :   -0.075874
  13 H :    0.167617
  14 H :    0.168384
  15 H :    0.163082
  16 N :    0.273837
  17 C :   -0.179432
  18 C :   -0.102551
  19 C :   -0.102536
  20 C :   -0.141124
  21 C :   -0.141127
  22 H :    0.166138
  23 C :   -0.141200
  24 H :    0.159042
  25 H :    0.158356
  26 H :    0.168380
  27 H :    0.163089
  28 C :   -0.114424
  29 C :   -0.108020
  30 C :   -0.107378
  31 C :   -0.106894
  32 H :    0.162059
  33 C :   -0.106906
  34 H :    0.161997
  35 C :   -0.115882
  36 H :    0.162524
  37 H :    0.162475
  38 C :   -0.116205
  39 C :   -0.110439
  40 C :   -0.110498
  41 C :   -0.151305
  42 H :    0.160975
  43 C :   -0.151175
  44 H :    0.161039
  45 C :   -0.153628
  46 H :    0.157290
  47 H :    0.157231
  48 H :    0.155813
  49 C :   -0.114419
  50 C :   -0.108021
  51 C :   -0.107376
  52 C :   -0.106903
  53 H :    0.162054
  54 C :   -0.106908
  55 H :    0.161997
  56 C :   -0.115885
  57 H :    0.162529
  58 H :    0.162478
  59 C :   -0.116209
  60 C :   -0.110442
  61 C :   -0.110500
  62 C :   -0.151303
  63 H :    0.160978
  64 C :   -0.151173
  65 H :    0.161043
  66 C :   -0.153630
  67 H :    0.157290
  68 H :    0.157228
  69 H :    0.155812
  70 O :    0.294844
  71 H :    0.159041
  72 H :    0.166115

  Mayer bond orders larger than 0.100000
B(  0-C ,  1-C ) :   1.4572 B(  0-C ,  5-C ) :   1.3811 B(  0-C , 27-H ) :   0.9543
B(  1-C ,  2-C ) :   1.3588 B(  1-C , 13-H ) :   0.9549 B(  2-C ,  3-C ) :   1.3435
B(  2-C , 16-N ) :   1.0964 B(  3-C ,  4-C ) :   1.5132 B(  3-C , 70-O ) :   1.0140
B(  4-C ,  5-C ) :   1.3463 B(  4-C , 14-H ) :   0.9430 B(  5-C , 28-C ) :   0.9259
B(  6-C ,  7-C ) :   1.3435 B(  6-C , 12-C ) :   1.5124 B(  6-C , 70-O ) :   1.0140
B(  7-C ,  8-C ) :   1.3580 B(  7-C , 16-N ) :   1.0963 B(  8-C ,  9-H ) :   0.9552
B(  8-C , 10-C ) :   1.4571 B( 10-C , 11-C ) :   1.3812 B( 10-C , 15-H ) :   0.9541
B( 11-C , 12-C ) :   1.3463 B( 11-C , 49-C ) :   0.9255 B( 12-C , 26-H ) :   0.9437
B( 16-N , 17-C ) :   0.7361 B( 17-C , 18-C ) :   1.4775 B( 17-C , 19-C ) :   1.4783
B( 18-C , 20-C ) :   1.4142 B( 18-C , 72-H ) :   0.9749 B( 19-C , 21-C ) :   1.4146
B( 19-C , 22-H ) :   0.9747 B( 20-C , 23-C ) :   1.3900 B( 20-C , 71-H ) :   0.9723
B( 21-C , 23-C ) :   1.3897 B( 21-C , 24-H ) :   0.9723 B( 23-C , 25-H ) :   0.9718
B( 28-C , 29-C ) :   1.3625 B( 28-C , 30-C ) :   1.3682 B( 29-C , 31-C ) :   1.4846
B( 29-C , 32-H ) :   0.9594 B( 30-C , 33-C ) :   1.4851 B( 30-C , 34-H ) :   0.9607
B( 31-C , 35-C ) :   1.3651 B( 31-C , 36-H ) :   0.9612 B( 33-C , 35-C ) :   1.3623
B( 33-C , 37-H ) :   0.9600 B( 35-C , 38-C ) :   0.9079 B( 38-C , 39-C ) :   1.3779
B( 38-C , 40-C ) :   1.3806 B( 39-C , 41-C ) :   1.4585 B( 39-C , 42-H ) :   0.9588
B( 40-C , 43-C ) :   1.4564 B( 40-C , 44-H ) :   0.9584 B( 41-C , 45-C ) :   1.4009
B( 41-C , 46-H ) :   0.9738 B( 43-C , 45-C ) :   1.4003 B( 43-C , 47-H ) :   0.9743
B( 45-C , 48-H ) :   0.9715 B( 49-C , 50-C ) :   1.3619 B( 49-C , 51-C ) :   1.3680
B( 50-C , 52-C ) :   1.4853 B( 50-C , 53-H ) :   0.9596 B( 51-C , 54-C ) :   1.4850
B( 51-C , 55-H ) :   0.9607 B( 52-C , 56-C ) :   1.3653 B( 52-C , 57-H ) :   0.9611
B( 54-C , 56-C ) :   1.3623 B( 54-C , 58-H ) :   0.9600 B( 56-C , 59-C ) :   0.9082
B( 59-C , 60-C ) :   1.3782 B( 59-C , 61-C ) :   1.3807 B( 60-C , 62-C ) :   1.4583
B( 60-C , 63-H ) :   0.9588 B( 61-C , 64-C ) :   1.4558 B( 61-C , 65-H ) :   0.9582
B( 62-C , 66-C ) :   1.4008 B( 62-C , 67-H ) :   0.9738 B( 64-C , 66-C ) :   1.4001
B( 64-C , 68-H ) :   0.9745 B( 66-C , 69-H ) :   0.9715

MP2 TOTAL ENERGY:    -1747.171637978 Eh

-----------------------------------------------------------------------------
         ABSORPTION SPECTRUM VIA TRANSITION ELECTRIC DIPOLE MOMENTS
-----------------------------------------------------------------------------
State   Energy    Wavelength  fosc         T2        TX        TY        TZ
        (cm-1)      (nm)                 (au**2)    (au)      (au)      (au)
-----------------------------------------------------------------------------
   1   27460.1    364.2   1.174423119  14.07988  -3.75227   0.00149  -0.01878
   2   33889.5    295.1   0.759397743   7.37699   0.00156   2.71606  -0.00166
   3   31684.4    315.6   0.390687762   4.05939  -2.01433  -0.00168  -0.04290
   4   33874.3    295.2   0.067926396   0.66015   0.00358  -0.81249   0.00078
   5   37227.4    268.6   0.619910630   5.48203  -2.34130   0.00046  -0.01891
   6   37415.1    267.3   0.004328243   0.03808  -0.18643   0.05558  -0.01549
   7   37446.4    267.0   0.002617508   0.02301   0.12801   0.08074   0.01031
   8   35089.9    285.0   0.000008543   0.00008   0.00093  -0.00890   0.00002
   9   40438.3    247.3   0.002247230   0.01829  -0.00040  -0.13526  -0.00054
  10   40075.3    249.5   0.000200391   0.00165   0.02419  -0.00008   0.03257
  11   42387.7    235.9   0.001794577   0.01394  -0.00130  -0.11805  -0.00075
  12   41819.1    239.1   0.218189044   1.71765  -1.31058  -0.00061   0.00504
  13   42244.1    236.7   0.077365247   0.60291  -0.76342  -0.00045  -0.14177
  14   40532.5    246.7   0.148209860   1.20379  -1.09372  -0.00043  -0.08702
  15   43571.2    229.5   0.011476331   0.08671  -0.00628   0.29440  -0.00011
  16   50823.9    196.8   0.000013926   0.00009  -0.00027  -0.00949  -0.00012
  17   46325.2    215.9   0.051358627   0.36498  -0.57097  -0.00072   0.19742
  18   47146.6    212.1   1.155133502   8.06598  -2.84004   0.00638   0.00950
  19   44696.1    223.7   0.086193897   0.63487   0.02111   0.79651   0.00072
  20   49391.2    202.5   0.224326269   1.49522   0.00297  -1.22251   0.02619
  21   46262.0    216.2   0.010105429   0.07191  -0.04012  -0.13131  -0.23035
  22   47326.1    211.3   0.083347048   0.57978   0.44263  -0.00531  -0.61954
  23   46313.2    215.9   0.082094494   0.58356  -0.00460  -0.76388   0.00417
  24   49267.3    203.0   0.974785351   6.51367   0.00031   2.55219  -0.00115
  25   48827.0    204.8   0.888642412   5.99160   0.03563  -2.44725  -0.03596
  26   48426.3    206.5   0.996440147   6.77401   1.87757   0.04902  -1.80176
  27   51414.8    194.5   0.965379679   6.18138  -2.45171   0.00182  -0.41289
  28   44081.4    226.9   0.100838574   0.75309  -0.74434  -0.00285  -0.44614
  29   50095.8    199.6   0.112547721   0.73962  -0.00109  -0.86001  -0.00169
  30   51400.4    194.6   0.041063907   0.26301  -0.48899   0.00079   0.15458

FINAL SINGLE POINT ENERGY     -1743.461231179012

DIPOLE MOMENT
-------------
                                X             Y             Z
Electronic contribution:      0.00080       4.75933      -0.02553
Nuclear contribution   :     -0.00106      -3.31033       0.02858
                        -----------------------------------------
Total Dipole Moment    :     -0.00025       1.44900       0.00305
                        -----------------------------------------
Magnitude (a.u.)       :      1.44900
Magnitude (Debye)      :      3.68308

Rotational constants in cm-1:     0.003126     0.000782     0.000637
Rotational constants in MHz :    93.711609    23.448179    19.093811

                             ****ORCA TERMINATED NORMALLY****
TOTAL RUN TIME: 1 days 10 hours 52 minutes 20 seconds 649 msec
