                         Program Version 5.0.2 -  RELEASE  -
|  1> %maxcore 3200
|  2> %pal
|  3>  nprocs= 8
|  4> end
|  5> ! RI-B2PLYP D3BJ def2-TZVP def2/J def2-TZVP/C RIJCOSX CPCM TightSCF
|  6> %TDDFT DCORR 4
|  7>    NROOTS   30
|  8>
|  9>    TDA      FALSE
| 10> END
| 11>
| 12> %CPCM
| 13>    SMD          TRUE
| 14>    SMDsolvent   "N,N-DIMETHYLACETAMIDE"
| 15> END
| 16>
| 17>
| 18> * xyz 0 1
| 19> C                  -3.61688000    1.95222700    0.00979700
| 20> C                  -2.44498300    2.69219500    0.00577400
| 21> C                  -1.20128400    2.06784400   -0.00149600
| 22> C                  -1.17907300    0.66788400   -0.00746600
| 23> C                  -2.34227100   -0.06585600   -0.00741200
| 24> C                  -3.59805500    0.55825700    0.00165200
| 25> C                   1.17925100    0.66797700    0.00012600
| 26> C                   1.20135300    2.06794100   -0.00564300
| 27> C                   2.44501800    2.69237500   -0.01150300
| 28> H                   2.49303900    3.77321800   -0.00557800
| 29> C                   3.61696900    1.95248600   -0.01421200
| 30> C                   3.59827200    0.55852100   -0.00584900
| 31> C                   2.34249600   -0.06566900    0.00156900
| 32> H                  -2.49308300    3.77303600   -0.00006600
| 33> H                  -2.25543500   -1.14453900    0.00896800
| 34> H                   4.56073300    2.48154200    0.00265200
| 35> N                   0.00000900    2.76974200   -0.00410800
| 36> C                  -0.00004400    4.19949700   -0.00031200
| 37> C                   0.00177500    4.89081800   -1.20408000
| 38> C                  -0.00193000    4.88400000    1.20737700
| 39> C                   0.00177600    6.27761900   -1.19683800
| 40> C                  -0.00208600    6.27078300    1.20807700
| 41> H                  -0.00331900    4.32511400    2.13518600
| 42> C                  -0.00019500    6.96725300    0.00757900
| 43> H                  -0.00358800    6.80775300    2.14807900
| 44> H                  -0.00025800    8.04987200    0.01064200
| 45> H                   2.25571800   -1.14436300   -0.01477100
| 46> H                  -4.56071600    2.48121500   -0.00600400
| 47> C                  -4.83465400   -0.23344000   -0.00549800
| 48> C                  -4.86912000   -1.53095200   -0.52941200
| 49> C                  -6.03242900    0.27587300    0.50971700
| 50> C                  -6.03346800   -2.27397400   -0.54043000
| 51> H                  -3.97000500   -1.96338800   -0.95084000
| 52> C                  -7.19568500   -0.46915300    0.50181400
| 53> H                  -6.05130600    1.27062200    0.93751300
| 54> C                  -7.22900300   -1.76453000   -0.02454400
| 55> H                  -6.01072000   -3.27794800   -0.94633800
| 56> H                  -8.10232300   -0.03070500    0.90091100
| 57> C                  -8.46775000   -2.55848400   -0.03671700
| 58> C                  -8.69537900   -3.52297100   -1.02463100
| 59> C                  -9.45568300   -2.37552800    0.93692500
| 60> C                  -9.86027200   -4.27171800   -1.03872000
| 61> H                  -7.95862700   -3.67262300   -1.80424300
| 62> C                 -10.62003700   -3.12578400    0.92352900
| 63> H                  -9.29910100   -1.65084400    1.72667100
| 64> C                 -10.82954000   -4.07809300   -0.06437200
| 65> H                 -10.01498200   -5.00597100   -1.81977700
| 66> H                 -11.36515500   -2.97070200    1.69415900
| 67> H                 -11.74002800   -4.66387300   -0.07456800
| 68> C                   4.83493800   -0.23306800    0.00315900
| 69> C                   4.86829700   -1.53110400    0.52585200
| 70> C                   6.03385300    0.27676000   -0.50893300
| 71> C                   6.03252800   -2.27425500    0.53845900
| 72> H                   3.96829300   -1.96390300    0.94498200
| 73> C                   7.19702400   -0.46839400   -0.49941800
| 74> H                   6.05370500    1.27200400   -0.93557100
| 75> C                   7.22914400   -1.76437800    0.02552300
| 76> H                   6.00883900   -3.27870400    0.94315900
| 77> H                   8.10456900   -0.02959600   -0.89607400
| 78> C                   8.46773800   -2.55854200    0.03917500
| 79> C                   8.69365700   -3.52365500    1.02687300
| 80> C                   9.45714600   -2.37529900   -0.93288700
| 81> C                   9.85829700   -4.27277200    1.04223400
| 82> H                   7.95576200   -3.67358200    1.80535600
| 83> C                  10.62126300   -3.12591200   -0.91821500
| 84> H                   9.30198600   -1.65016900   -1.72250000
| 85> C                  10.82903400   -4.07888800    0.06940600
| 86> H                  10.01163200   -5.00753100    1.82308600
| 87> H                  11.36754600   -2.97055700   -1.68766400
| 88> H                  11.73931500   -4.66497100    0.08052700
| 89> O                   0.00012000   -0.03539000   -0.00456200
| 90> H                   0.00321700    6.81993700   -2.13376300
| 91> H                   0.00321900    4.33723700   -2.13505800
| 92> *
| 93>
| 94>
| 95>                          ****END OF INPUT****

CARTESIAN COORDINATES (ANGSTROEM)
---------------------------------
  C     -3.616880    1.952227    0.009797
  C     -2.444983    2.692195    0.005774
  C     -1.201284    2.067844   -0.001496
  C     -1.179073    0.667884   -0.007466
  C     -2.342271   -0.065856   -0.007412
  C     -3.598055    0.558257    0.001652
  C      1.179251    0.667977    0.000126
  C      1.201353    2.067941   -0.005643
  C      2.445018    2.692375   -0.011503
  H      2.493039    3.773218   -0.005578
  C      3.616969    1.952486   -0.014212
  C      3.598272    0.558521   -0.005849
  C      2.342496   -0.065669    0.001569
  H     -2.493083    3.773036   -0.000066
  H     -2.255435   -1.144539    0.008968
  H      4.560733    2.481542    0.002652
  N      0.000009    2.769742   -0.004108
  C     -0.000044    4.199497   -0.000312
  C      0.001775    4.890818   -1.204080
  C     -0.001930    4.884000    1.207377
  C      0.001776    6.277619   -1.196838
  C     -0.002086    6.270783    1.208077
  H     -0.003319    4.325114    2.135186
  C     -0.000195    6.967253    0.007579
  H     -0.003588    6.807753    2.148079
  H     -0.000258    8.049872    0.010642
  H      2.255718   -1.144363   -0.014771
  H     -4.560716    2.481215   -0.006004
  C     -4.834654   -0.233440   -0.005498
  C     -4.869120   -1.530952   -0.529412
  C     -6.032429    0.275873    0.509717
  C     -6.033468   -2.273974   -0.540430
  H     -3.970005   -1.963388   -0.950840
  C     -7.195685   -0.469153    0.501814
  H     -6.051306    1.270622    0.937513
  C     -7.229003   -1.764530   -0.024544
  H     -6.010720   -3.277948   -0.946338
  H     -8.102323   -0.030705    0.900911
  C     -8.467750   -2.558484   -0.036717
  C     -8.695379   -3.522971   -1.024631
  C     -9.455683   -2.375528    0.936925
  C     -9.860272   -4.271718   -1.038720
  H     -7.958627   -3.672623   -1.804243
  C    -10.620037   -3.125784    0.923529
  H     -9.299101   -1.650844    1.726671
  C    -10.829540   -4.078093   -0.064372
  H    -10.014982   -5.005971   -1.819777
  H    -11.365155   -2.970702    1.694159
  H    -11.740028   -4.663873   -0.074568
  C      4.834938   -0.233068    0.003159
  C      4.868297   -1.531104    0.525852
  C      6.033853    0.276760   -0.508933
  C      6.032528   -2.274255    0.538459
  H      3.968293   -1.963903    0.944982
  C      7.197024   -0.468394   -0.499418
  H      6.053705    1.272004   -0.935571
  C      7.229144   -1.764378    0.025523
  H      6.008839   -3.278704    0.943159
  H      8.104569   -0.029596   -0.896074
  C      8.467738   -2.558542    0.039175
  C      8.693657   -3.523655    1.026873
  C      9.457146   -2.375299   -0.932887
  C      9.858297   -4.272772    1.042234
  H      7.955762   -3.673582    1.805356
  C     10.621263   -3.125912   -0.918215
  H      9.301986   -1.650169   -1.722500
  C     10.829034   -4.078888    0.069406
  H     10.011632   -5.007531    1.823086
  H     11.367546   -2.970557   -1.687664
  H     11.739315   -4.664971    0.080527
  O      0.000120   -0.035390   -0.004562
  H      0.003217    6.819937   -2.133763
  H      0.003219    4.337237   -2.135058

 Total Charge           Charge          ....    0
 Multiplicity           Mult            ....    1
 Number of Electrons    NEL             ....  296
 Basis Dimension        Dim             .... 1538

ORBITAL ENERGIES
----------------

  NO   OCC          E(Eh)            E(eV)
   0   2.0000     -19.773312      -538.0592
   1   2.0000     -14.876795      -404.8182
   2   2.0000     -10.684913      -290.7513
   3   2.0000     -10.684894      -290.7507
   4   2.0000     -10.670882      -290.3695
   5   2.0000     -10.670865      -290.3690
   6   2.0000     -10.659180      -290.0510
   7   2.0000     -10.628441      -289.2146
   8   2.0000     -10.628435      -289.2144
   9   2.0000     -10.628181      -289.2075
  10   2.0000     -10.628179      -289.2075
  11   2.0000     -10.626451      -289.1604
  12   2.0000     -10.626446      -289.1603
  13   2.0000     -10.626096      -289.1508
  14   2.0000     -10.626091      -289.1506
  15   2.0000     -10.620850      -289.0080
  16   2.0000     -10.620845      -289.0079
  17   2.0000     -10.619904      -288.9823
  18   2.0000     -10.619424      -288.9692
  19   2.0000     -10.618722      -288.9501
  20   2.0000     -10.617230      -288.9095
  21   2.0000     -10.617227      -288.9094
  22   2.0000     -10.616886      -288.9002
  23   2.0000     -10.616886      -288.9001
  24   2.0000     -10.614994      -288.8487
  25   2.0000     -10.614991      -288.8486
  26   2.0000     -10.614867      -288.8452
  27   2.0000     -10.614865      -288.8452
  28   2.0000     -10.614844      -288.8446
  29   2.0000     -10.614842      -288.8445
  30   2.0000     -10.614689      -288.8404
  31   2.0000     -10.614688      -288.8403
  32   2.0000     -10.614643      -288.8391
  33   2.0000     -10.614640      -288.8390
  34   2.0000     -10.613927      -288.8196
  35   2.0000     -10.613925      -288.8196
  36   2.0000     -10.613878      -288.8183
  37   2.0000     -10.613874      -288.8182
  38   2.0000     -10.613815      -288.8166
  39   2.0000     -10.613809      -288.8164
  40   2.0000     -10.613750      -288.8148
  41   2.0000     -10.613749      -288.8148
  42   2.0000     -10.612933      -288.7926
  43   2.0000     -10.612932      -288.7926
  44   2.0000      -1.241529       -33.7837
  45   2.0000      -1.114561       -30.3288
  46   2.0000      -1.008799       -27.4508
  47   2.0000      -1.002629       -27.2829
  48   2.0000      -0.995930       -27.1006
  49   2.0000      -0.989632       -26.9292
  50   2.0000      -0.981853       -26.7176
  51   2.0000      -0.974576       -26.5196
  52   2.0000      -0.961620       -26.1670
  53   2.0000      -0.915429       -24.9101
  54   2.0000      -0.903739       -24.5920
  55   2.0000      -0.887519       -24.1506
  56   2.0000      -0.876315       -23.8457
  57   2.0000      -0.874106       -23.7856
  58   2.0000      -0.867014       -23.5927
  59   2.0000      -0.865833       -23.5605
  60   2.0000      -0.864676       -23.5290
  61   2.0000      -0.857508       -23.3340
  62   2.0000      -0.855553       -23.2808
  63   2.0000      -0.852425       -23.1957
  64   2.0000      -0.838873       -22.8269
  65   2.0000      -0.825575       -22.4650
  66   2.0000      -0.802883       -21.8476
  67   2.0000      -0.755805       -20.5665
  68   2.0000      -0.752126       -20.4664
  69   2.0000      -0.726622       -19.7724
  70   2.0000      -0.721433       -19.6312
  71   2.0000      -0.712563       -19.3898
  72   2.0000      -0.711598       -19.3636
  73   2.0000      -0.708694       -19.2846
  74   2.0000      -0.696323       -18.9479
  75   2.0000      -0.688439       -18.7334
  76   2.0000      -0.678423       -18.4608
  77   2.0000      -0.674857       -18.3638
  78   2.0000      -0.672724       -18.3057
  79   2.0000      -0.669529       -18.2188
  80   2.0000      -0.651487       -17.7279
  81   2.0000      -0.643227       -17.5031
  82   2.0000      -0.619298       -16.8519
  83   2.0000      -0.610015       -16.5993
  84   2.0000      -0.609674       -16.5901
  85   2.0000      -0.586479       -15.9589
  86   2.0000      -0.585989       -15.9456
  87   2.0000      -0.572345       -15.5743
  88   2.0000      -0.565751       -15.3949
  89   2.0000      -0.556567       -15.1450
  90   2.0000      -0.554079       -15.0773
  91   2.0000      -0.550723       -14.9859
  92   2.0000      -0.548383       -14.9222
  93   2.0000      -0.542999       -14.7758
  94   2.0000      -0.537241       -14.6191
  95   2.0000      -0.532350       -14.4860
  96   2.0000      -0.522607       -14.2209
  97   2.0000      -0.518807       -14.1174
  98   2.0000      -0.513577       -13.9751
  99   2.0000      -0.511562       -13.9203
 100   2.0000      -0.508827       -13.8459
 101   2.0000      -0.507274       -13.8036
 102   2.0000      -0.504722       -13.7342
 103   2.0000      -0.502980       -13.6868
 104   2.0000      -0.500267       -13.6130
 105   2.0000      -0.496761       -13.5175
 106   2.0000      -0.495735       -13.4896
 107   2.0000      -0.492848       -13.4111
 108   2.0000      -0.492434       -13.3998
 109   2.0000      -0.481046       -13.0899
 110   2.0000      -0.480426       -13.0731
 111   2.0000      -0.473864       -12.8945
 112   2.0000      -0.457513       -12.4496
 113   2.0000      -0.456334       -12.4175
 114   2.0000      -0.455691       -12.4000
 115   2.0000      -0.452792       -12.3211
 116   2.0000      -0.448763       -12.2115
 117   2.0000      -0.440212       -11.9788
 118   2.0000      -0.437181       -11.8963
 119   2.0000      -0.433884       -11.8066
 120   2.0000      -0.428277       -11.6540
 121   2.0000      -0.428190       -11.6516
 122   2.0000      -0.424852       -11.5608
 123   2.0000      -0.420282       -11.4365
 124   2.0000      -0.419489       -11.4149
 125   2.0000      -0.412240       -11.2176
 126   2.0000      -0.411202       -11.1894
 127   2.0000      -0.407660       -11.0930
 128   2.0000      -0.404020       -10.9939
 129   2.0000      -0.401433       -10.9235
 130   2.0000      -0.398118       -10.8333
 131   2.0000      -0.387178       -10.5357
 132   2.0000      -0.386567       -10.5190
 133   2.0000      -0.384918       -10.4741
 134   2.0000      -0.343467        -9.3462
 135   2.0000      -0.323782        -8.8106
 136   2.0000      -0.309123        -8.4117
 137   2.0000      -0.300342        -8.1727
 138   2.0000      -0.299008        -8.1364
 139   2.0000      -0.296670        -8.0728
 140   2.0000      -0.296427        -8.0662
 141   2.0000      -0.294907        -8.0248
 142   2.0000      -0.293619        -7.9898
 143   2.0000      -0.293442        -7.9850
 144   2.0000      -0.279117        -7.5951
 145   2.0000      -0.259893        -7.0720
 146   2.0000      -0.246076        -6.6961
 147   2.0000      -0.206053        -5.6070
 148   0.0000      -0.008261        -0.2248
 149   0.0000       0.003080         0.0838
 150   0.0000       0.025546         0.6951
 151   0.0000       0.032212         0.8765
 152   0.0000       0.034942         0.9508

MULLIKEN ATOMIC CHARGES
-----------------------
   0 C :   -0.264510
   1 C :   -0.222608
   2 C :    0.080870
   3 C :    0.263910
   4 C :   -0.379994
   5 C :    0.209921
   6 C :    0.265966
   7 C :    0.080282
   8 C :   -0.223190
   9 H :    0.175390
  10 C :   -0.263911
  11 C :    0.210019
  12 C :   -0.381039
  13 H :    0.175366
  14 H :    0.147076
  15 H :    0.156268
  16 N :    0.020105
  17 C :    0.094956
  18 C :   -0.246620
  19 C :   -0.247396
  20 C :   -0.111009
  21 C :   -0.110903
  22 H :    0.159275
  23 C :   -0.139767
  24 H :    0.160104
  25 H :    0.160805
  26 H :    0.147025
  27 H :    0.156187
  28 C :    0.124966
  29 C :   -0.225873
  30 C :   -0.230489
  31 C :   -0.234188
  32 H :    0.154682
  33 C :   -0.231186
  34 H :    0.154512
  35 C :    0.210608
  36 H :    0.155150
  37 H :    0.155768
  38 C :    0.104858
  39 C :   -0.238591
  40 C :   -0.240665
  41 C :   -0.166618
  42 H :    0.157204
  43 C :   -0.163893
  44 H :    0.157986
  45 C :   -0.151885
  46 H :    0.155970
  47 H :    0.155458
  48 H :    0.157855
  49 C :    0.125102
  50 C :   -0.226290
  51 C :   -0.230619
  52 C :   -0.234137
  53 H :    0.154560
  54 C :   -0.231061
  55 H :    0.154543
  56 C :    0.210184
  57 H :    0.155193
  58 H :    0.155774
  59 C :    0.104656
  60 C :   -0.238866
  61 C :   -0.239956
  62 C :   -0.166542
  63 H :    0.157228
  64 C :   -0.163745
  65 H :    0.158055
  66 C :   -0.151951
  67 H :    0.156018
  68 H :    0.155326
  69 H :    0.157871
  70 O :   -0.314883
  71 H :    0.160142
  72 H :    0.159192
Sum of atomic charges:   -0.0000000

LOEWDIN ATOMIC CHARGES
----------------------
   0 C :   -0.111659
   1 C :   -0.118118
   2 C :   -0.138670
   3 C :   -0.192881
   4 C :   -0.075567
   5 C :   -0.120740
   6 C :   -0.192883
   7 C :   -0.138670
   8 C :   -0.118121
   9 H :    0.161760
  10 C :   -0.111646
  11 C :   -0.120740
  12 C :   -0.075570
  13 H :    0.161761
  14 H :    0.161735
  15 H :    0.156749
  16 N :    0.280318
  17 C :   -0.169109
  18 C :   -0.097826
  19 C :   -0.097806
  20 C :   -0.136638
  21 C :   -0.136642
  22 H :    0.159701
  23 C :   -0.137023
  24 H :    0.153043
  25 H :    0.152391
  26 H :    0.161732
  27 H :    0.156755
  28 C :   -0.109051
  29 C :   -0.104764
  30 C :   -0.104153
  31 C :   -0.103627
  32 H :    0.155936
  33 C :   -0.103651
  34 H :    0.155845
  35 C :   -0.110477
  36 H :    0.156363
  37 H :    0.156291
  38 C :   -0.109795
  39 C :   -0.106037
  40 C :   -0.106119
  41 C :   -0.146926
  42 H :    0.155126
  43 C :   -0.146795
  44 H :    0.155153
  45 C :   -0.149587
  46 H :    0.151099
  47 H :    0.151048
  48 H :    0.149666
  49 C :   -0.109049
  50 C :   -0.104766
  51 C :   -0.104151
  52 C :   -0.103636
  53 H :    0.155933
  54 C :   -0.103654
  55 H :    0.155847
  56 C :   -0.110479
  57 H :    0.156367
  58 H :    0.156293
  59 C :   -0.109798
  60 C :   -0.106038
  61 C :   -0.106121
  62 C :   -0.146925
  63 H :    0.155129
  64 C :   -0.146793
  65 H :    0.155156
  66 C :   -0.149590
  67 H :    0.151099
  68 H :    0.151046
  69 H :    0.149665
  70 O :    0.300561
  71 H :    0.153043
  72 H :    0.159678

  Mayer bond orders larger than 0.100000
B(  0-C ,  1-C ) :   1.4307 B(  0-C ,  5-C ) :   1.3757 B(  0-C , 27-H ) :   0.9704
B(  1-C ,  2-C ) :   1.3442 B(  1-C , 13-H ) :   0.9657 B(  2-C ,  3-C ) :   1.3089
B(  2-C , 16-N ) :   1.0937 B(  3-C ,  4-C ) :   1.4796 B(  3-C , 70-O ) :   1.0030
B(  4-C ,  5-C ) :   1.3383 B(  4-C , 14-H ) :   0.9787 B(  5-C , 28-C ) :   0.9403
B(  6-C ,  7-C ) :   1.3088 B(  6-C , 12-C ) :   1.4792 B(  6-C , 70-O ) :   1.0030
B(  7-C ,  8-C ) :   1.3438 B(  7-C , 16-N ) :   1.0936 B(  8-C ,  9-H ) :   0.9659
B(  8-C , 10-C ) :   1.4307 B( 10-C , 11-C ) :   1.3757 B( 10-C , 15-H ) :   0.9702
B( 11-C , 12-C ) :   1.3383 B( 11-C , 49-C ) :   0.9400 B( 12-C , 26-H ) :   0.9791
B( 16-N , 17-C ) :   0.7122 B( 17-C , 18-C ) :   1.4554 B( 17-C , 19-C ) :   1.4561
B( 18-C , 20-C ) :   1.4072 B( 18-C , 72-H ) :   0.9846 B( 19-C , 21-C ) :   1.4075
B( 19-C , 22-H ) :   0.9845 B( 20-C , 23-C ) :   1.3889 B( 20-C , 71-H ) :   0.9787
B( 21-C , 23-C ) :   1.3887 B( 21-C , 24-H ) :   0.9787 B( 23-C , 25-H ) :   0.9756
B( 28-C , 29-C ) :   1.3585 B( 28-C , 30-C ) :   1.3628 B( 29-C , 31-C ) :   1.4631
B( 29-C , 32-H ) :   0.9717 B( 30-C , 33-C ) :   1.4639 B( 30-C , 34-H ) :   0.9728
B( 31-C , 35-C ) :   1.3563 B( 31-C , 36-H ) :   0.9744 B( 33-C , 35-C ) :   1.3528
B( 33-C , 37-H ) :   0.9736 B( 35-C , 38-C ) :   0.9203 B( 38-C , 39-C ) :   1.3743
B( 38-C , 40-C ) :   1.3766 B( 39-C , 41-C ) :   1.4472 B( 39-C , 42-H ) :   0.9673
B( 40-C , 43-C ) :   1.4454 B( 40-C , 44-H ) :   0.9671 B( 41-C , 45-C ) :   1.3964
B( 41-C , 46-H ) :   0.9804 B( 43-C , 45-C ) :   1.3963 B( 43-C , 47-H ) :   0.9807
B( 45-C , 48-H ) :   0.9761 B( 49-C , 50-C ) :   1.3580 B( 49-C , 51-C ) :   1.3626
B( 50-C , 52-C ) :   1.4636 B( 50-C , 53-H ) :   0.9718 B( 51-C , 54-C ) :   1.4639
B( 51-C , 55-H ) :   0.9728 B( 52-C , 56-C ) :   1.3564 B( 52-C , 57-H ) :   0.9743
B( 54-C , 56-C ) :   1.3527 B( 54-C , 58-H ) :   0.9736 B( 56-C , 59-C ) :   0.9204
B( 59-C , 60-C ) :   1.3745 B( 59-C , 61-C ) :   1.3767 B( 60-C , 62-C ) :   1.4471
B( 60-C , 63-H ) :   0.9673 B( 61-C , 64-C ) :   1.4450 B( 61-C , 65-H ) :   0.9670
B( 62-C , 66-C ) :   1.3964 B( 62-C , 67-H ) :   0.9804 B( 64-C , 66-C ) :   1.3962
B( 64-C , 68-H ) :   0.9808 B( 66-C , 69-H ) :   0.9761

MP2 TOTAL ENERGY:    -1747.076333636 Eh

-----------------------------------------------------------------------------
         ABSORPTION SPECTRUM VIA TRANSITION ELECTRIC DIPOLE MOMENTS
-----------------------------------------------------------------------------
State   Energy    Wavelength  fosc         T2        TX        TY        TZ
        (cm-1)      (nm)                 (au**2)    (au)      (au)      (au)
-----------------------------------------------------------------------------
   1   24054.1    415.7   1.033962036  14.15115  -3.76176   0.00125  -0.01805
   2   29407.4    340.1   0.620016214   6.94099   0.00071   2.63458  -0.00154
   3   28959.8    345.3   0.314014458   3.56968  -1.88889  -0.00186  -0.04194
   4   32040.5    312.1   0.116347342   1.19546  -0.00274   1.09336  -0.00091
   5   30807.4    324.6   0.000983485   0.01051  -0.02162  -0.10021  -0.00007
   6   34641.0    288.7   0.882791518   8.38963  -2.89639   0.00085  -0.02360
   7   34377.7    290.9   0.000071556   0.00069   0.01962  -0.00478  -0.01666
   8   34510.6    289.8   0.034109739   0.32539  -0.00025  -0.57043   0.00090
   9   34217.4    292.2   0.011906572   0.11456   0.00064   0.33846  -0.00071
  10   34473.5    290.1   0.006877219   0.06568  -0.25517   0.00049  -0.02371
  11   38551.0    259.4   0.000108694   0.00093  -0.00107  -0.03040  -0.00170
  12   38528.5    259.5   0.000298429   0.00255   0.03296  -0.00116   0.03824
  13   35182.5    284.2   0.051439771   0.48134  -0.69301  -0.00031  -0.03277
  14   38477.4    259.9   0.246721446   2.11095   1.44928   0.00025   0.10265
  15   41859.6    238.9   0.002726895   0.02145   0.00133   0.14644   0.00068
  16   38962.7    256.7   0.025589935   0.21622   0.00255  -0.46499  -0.00154
  17   39803.1    251.2   0.121953270   1.00868  -0.99548  -0.00204   0.13300
  18   41766.8    239.4   0.019097726   0.15053  -0.36025  -0.00086   0.14406
  19   40452.6    247.2   0.065508179   0.53312  -0.02898   0.72957  -0.00329
  20   42964.5    232.8   0.138514309   1.06136   1.02781   0.01800   0.06806
  21   41882.1    238.8   0.045516422   0.35778  -0.00065  -0.59814  -0.00315
  22   43756.1    228.5   0.060276575   0.45351  -0.10886  -0.00088   0.66457
  23   42945.5    232.9   0.206450009   1.58261  -1.03178  -0.24945   0.67514
  24   41987.4    238.2   0.079421853   0.62273   0.50270  -0.50932  -0.33259
  25   43004.1    232.5   0.023745707   0.18178  -0.02343  -0.00355   0.42570
  26   46357.9    215.7   0.024745155   0.17573   0.00096   0.41920  -0.00065
  27   42915.2    233.0   0.210357539   1.61370   1.24930   0.01051  -0.22989
  28   44505.7    224.7   0.043119162   0.31896  -0.02331   0.56426   0.00447
  29   44519.2    224.6   0.287915625   2.12909  -1.45579  -0.00622  -0.09866
  30   44133.3    226.6   0.294547499   2.19718  -0.00769   1.48227   0.00064

Dispersion correction           -0.087363159
FINAL SINGLE POINT ENERGY     -1744.777866797655

DIPOLE MOMENT
-------------
                                X             Y             Z
Electronic contribution:      0.00077       4.81517      -0.02571
Nuclear contribution   :     -0.00106      -3.31033       0.02858
                        -----------------------------------------
Total Dipole Moment    :     -0.00028       1.50484       0.00287
                        -----------------------------------------
Magnitude (a.u.)       :      1.50484
Magnitude (Debye)      :      3.82501

Rotational constants in cm-1:     0.003126     0.000782     0.000637
Rotational constants in MHz :    93.711609    23.448179    19.093811

                             ****ORCA TERMINATED NORMALLY****
TOTAL RUN TIME: 0 days 10 hours 1 minutes 57 seconds 835 msec
