                         Program Version 5.0.2 -  RELEASE  -
|  1> %maxcore 20000
|  2> %pal
|  3>  nprocs= 6
|  4> end
|  5> ! RI-SCS-PBE-QIDH   def2-TZVP def2/J def2-TZVP/C RIJCOSX CPCM TightSCF
|  6> %TDDFT
|  7>    NROOTS   30
|  8>    dcorr 4
|  9>    doscs true
| 10>    TDA      FALSE
| 11> END
| 12>
| 13> %CPCM
| 14>    SMD          TRUE
| 15>    SMDsolvent   "N,N-DIMETHYLACETAMIDE"
| 16> END
| 17>
| 18>
| 19> * xyz 0 1
| 20> C                  -3.61688000    1.95222700    0.00979700
| 21> C                  -2.44498300    2.69219500    0.00577400
| 22> C                  -1.20128400    2.06784400   -0.00149600
| 23> C                  -1.17907300    0.66788400   -0.00746600
| 24> C                  -2.34227100   -0.06585600   -0.00741200
| 25> C                  -3.59805500    0.55825700    0.00165200
| 26> C                   1.17925100    0.66797700    0.00012600
| 27> C                   1.20135300    2.06794100   -0.00564300
| 28> C                   2.44501800    2.69237500   -0.01150300
| 29> H                   2.49303900    3.77321800   -0.00557800
| 30> C                   3.61696900    1.95248600   -0.01421200
| 31> C                   3.59827200    0.55852100   -0.00584900
| 32> C                   2.34249600   -0.06566900    0.00156900
| 33> H                  -2.49308300    3.77303600   -0.00006600
| 34> H                  -2.25543500   -1.14453900    0.00896800
| 35> H                   4.56073300    2.48154200    0.00265200
| 36> N                   0.00000900    2.76974200   -0.00410800
| 37> C                  -0.00004400    4.19949700   -0.00031200
| 38> C                   0.00177500    4.89081800   -1.20408000
| 39> C                  -0.00193000    4.88400000    1.20737700
| 40> C                   0.00177600    6.27761900   -1.19683800
| 41> C                  -0.00208600    6.27078300    1.20807700
| 42> H                  -0.00331900    4.32511400    2.13518600
| 43> C                  -0.00019500    6.96725300    0.00757900
| 44> H                  -0.00358800    6.80775300    2.14807900
| 45> H                  -0.00025800    8.04987200    0.01064200
| 46> H                   2.25571800   -1.14436300   -0.01477100
| 47> H                  -4.56071600    2.48121500   -0.00600400
| 48> C                  -4.83465400   -0.23344000   -0.00549800
| 49> C                  -4.86912000   -1.53095200   -0.52941200
| 50> C                  -6.03242900    0.27587300    0.50971700
| 51> C                  -6.03346800   -2.27397400   -0.54043000
| 52> H                  -3.97000500   -1.96338800   -0.95084000
| 53> C                  -7.19568500   -0.46915300    0.50181400
| 54> H                  -6.05130600    1.27062200    0.93751300
| 55> C                  -7.22900300   -1.76453000   -0.02454400
| 56> H                  -6.01072000   -3.27794800   -0.94633800
| 57> H                  -8.10232300   -0.03070500    0.90091100
| 58> C                  -8.46775000   -2.55848400   -0.03671700
| 59> C                  -8.69537900   -3.52297100   -1.02463100
| 60> C                  -9.45568300   -2.37552800    0.93692500
| 61> C                  -9.86027200   -4.27171800   -1.03872000
| 62> H                  -7.95862700   -3.67262300   -1.80424300
| 63> C                 -10.62003700   -3.12578400    0.92352900
| 64> H                  -9.29910100   -1.65084400    1.72667100
| 65> C                 -10.82954000   -4.07809300   -0.06437200
| 66> H                 -10.01498200   -5.00597100   -1.81977700
| 67> H                 -11.36515500   -2.97070200    1.69415900
| 68> H                 -11.74002800   -4.66387300   -0.07456800
| 69> C                   4.83493800   -0.23306800    0.00315900
| 70> C                   4.86829700   -1.53110400    0.52585200
| 71> C                   6.03385300    0.27676000   -0.50893300
| 72> C                   6.03252800   -2.27425500    0.53845900
| 73> H                   3.96829300   -1.96390300    0.94498200
| 74> C                   7.19702400   -0.46839400   -0.49941800
| 75> H                   6.05370500    1.27200400   -0.93557100
| 76> C                   7.22914400   -1.76437800    0.02552300
| 77> H                   6.00883900   -3.27870400    0.94315900
| 78> H                   8.10456900   -0.02959600   -0.89607400
| 79> C                   8.46773800   -2.55854200    0.03917500
| 80> C                   8.69365700   -3.52365500    1.02687300
| 81> C                   9.45714600   -2.37529900   -0.93288700
| 82> C                   9.85829700   -4.27277200    1.04223400
| 83> H                   7.95576200   -3.67358200    1.80535600
| 84> C                  10.62126300   -3.12591200   -0.91821500
| 85> H                   9.30198600   -1.65016900   -1.72250000
| 86> C                  10.82903400   -4.07888800    0.06940600
| 87> H                  10.01163200   -5.00753100    1.82308600
| 88> H                  11.36754600   -2.97055700   -1.68766400
| 89> H                  11.73931500   -4.66497100    0.08052700
| 90> O                   0.00012000   -0.03539000   -0.00456200
| 91> H                   0.00321700    6.81993700   -2.13376300
| 92> H                   0.00321900    4.33723700   -2.13505800
| 93> *
| 94>
| 95>
| 96>                          ****END OF INPUT****

CARTESIAN COORDINATES (ANGSTROEM)
---------------------------------
  C     -3.616880    1.952227    0.009797
  C     -2.444983    2.692195    0.005774
  C     -1.201284    2.067844   -0.001496
  C     -1.179073    0.667884   -0.007466
  C     -2.342271   -0.065856   -0.007412
  C     -3.598055    0.558257    0.001652
  C      1.179251    0.667977    0.000126
  C      1.201353    2.067941   -0.005643
  C      2.445018    2.692375   -0.011503
  H      2.493039    3.773218   -0.005578
  C      3.616969    1.952486   -0.014212
  C      3.598272    0.558521   -0.005849
  C      2.342496   -0.065669    0.001569
  H     -2.493083    3.773036   -0.000066
  H     -2.255435   -1.144539    0.008968
  H      4.560733    2.481542    0.002652
  N      0.000009    2.769742   -0.004108
  C     -0.000044    4.199497   -0.000312
  C      0.001775    4.890818   -1.204080
  C     -0.001930    4.884000    1.207377
  C      0.001776    6.277619   -1.196838
  C     -0.002086    6.270783    1.208077
  H     -0.003319    4.325114    2.135186
  C     -0.000195    6.967253    0.007579
  H     -0.003588    6.807753    2.148079
  H     -0.000258    8.049872    0.010642
  H      2.255718   -1.144363   -0.014771
  H     -4.560716    2.481215   -0.006004
  C     -4.834654   -0.233440   -0.005498
  C     -4.869120   -1.530952   -0.529412
  C     -6.032429    0.275873    0.509717
  C     -6.033468   -2.273974   -0.540430
  H     -3.970005   -1.963388   -0.950840
  C     -7.195685   -0.469153    0.501814
  H     -6.051306    1.270622    0.937513
  C     -7.229003   -1.764530   -0.024544
  H     -6.010720   -3.277948   -0.946338
  H     -8.102323   -0.030705    0.900911
  C     -8.467750   -2.558484   -0.036717
  C     -8.695379   -3.522971   -1.024631
  C     -9.455683   -2.375528    0.936925
  C     -9.860272   -4.271718   -1.038720
  H     -7.958627   -3.672623   -1.804243
  C    -10.620037   -3.125784    0.923529
  H     -9.299101   -1.650844    1.726671
  C    -10.829540   -4.078093   -0.064372
  H    -10.014982   -5.005971   -1.819777
  H    -11.365155   -2.970702    1.694159
  H    -11.740028   -4.663873   -0.074568
  C      4.834938   -0.233068    0.003159
  C      4.868297   -1.531104    0.525852
  C      6.033853    0.276760   -0.508933
  C      6.032528   -2.274255    0.538459
  H      3.968293   -1.963903    0.944982
  C      7.197024   -0.468394   -0.499418
  H      6.053705    1.272004   -0.935571
  C      7.229144   -1.764378    0.025523
  H      6.008839   -3.278704    0.943159
  H      8.104569   -0.029596   -0.896074
  C      8.467738   -2.558542    0.039175
  C      8.693657   -3.523655    1.026873
  C      9.457146   -2.375299   -0.932887
  C      9.858297   -4.272772    1.042234
  H      7.955762   -3.673582    1.805356
  C     10.621263   -3.125912   -0.918215
  H      9.301986   -1.650169   -1.722500
  C     10.829034   -4.078888    0.069406
  H     10.011632   -5.007531    1.823086
  H     11.367546   -2.970557   -1.687664
  H     11.739315   -4.664971    0.080527
  O      0.000120   -0.035390   -0.004562
  H      0.003217    6.819937   -2.133763
  H      0.003219    4.337237   -2.135058

 Total Charge           Charge          ....    0
 Multiplicity           Mult            ....    1
 Number of Electrons    NEL             ....  296
 Basis Dimension        Dim             .... 1538

ORBITAL ENERGIES
----------------

  NO   OCC          E(Eh)            E(eV)
   0   2.0000     -20.055646      -545.7419
   1   2.0000     -15.123383      -411.5282
   2   2.0000     -10.892162      -296.3908
   3   2.0000     -10.892144      -296.3903
   4   2.0000     -10.878760      -296.0261
   5   2.0000     -10.878744      -296.0257
   6   2.0000     -10.865978      -295.6783
   7   2.0000     -10.835942      -294.8610
   8   2.0000     -10.835935      -294.8608
   9   2.0000     -10.835117      -294.8385
  10   2.0000     -10.835114      -294.8385
  11   2.0000     -10.833763      -294.8017
  12   2.0000     -10.833759      -294.8016
  13   2.0000     -10.833597      -294.7972
  14   2.0000     -10.833592      -294.7970
  15   2.0000     -10.826335      -294.5996
  16   2.0000     -10.826330      -294.5994
  17   2.0000     -10.825271      -294.5706
  18   2.0000     -10.824640      -294.5534
  19   2.0000     -10.824011      -294.5363
  20   2.0000     -10.824009      -294.5363
  21   2.0000     -10.823925      -294.5340
  22   2.0000     -10.823296      -294.5168
  23   2.0000     -10.823295      -294.5168
  24   2.0000     -10.821349      -294.4639
  25   2.0000     -10.821347      -294.4638
  26   2.0000     -10.821330      -294.4634
  27   2.0000     -10.821327      -294.4633
  28   2.0000     -10.821202      -294.4599
  29   2.0000     -10.821201      -294.4598
  30   2.0000     -10.820553      -294.4422
  31   2.0000     -10.820550      -294.4421
  32   2.0000     -10.820419      -294.4386
  33   2.0000     -10.820417      -294.4385
  34   2.0000     -10.820123      -294.4305
  35   2.0000     -10.820119      -294.4304
  36   2.0000     -10.820062      -294.4288
  37   2.0000     -10.820057      -294.4287
  38   2.0000     -10.819653      -294.4177
  39   2.0000     -10.819651      -294.4177
  40   2.0000     -10.819362      -294.4098
  41   2.0000     -10.819360      -294.4098
  42   2.0000     -10.818376      -294.3830
  43   2.0000     -10.818375      -294.3829
  44   2.0000      -1.324648       -36.0455
  45   2.0000      -1.191876       -32.4326
  46   2.0000      -1.082696       -29.4617
  47   2.0000      -1.076325       -29.2883
  48   2.0000      -1.069000       -29.0890
  49   2.0000      -1.061993       -28.8983
  50   2.0000      -1.053962       -28.6798
  51   2.0000      -1.046526       -28.4774
  52   2.0000      -1.032873       -28.1059
  53   2.0000      -0.984178       -26.7809
  54   2.0000      -0.971792       -26.4438
  55   2.0000      -0.954077       -25.9618
  56   2.0000      -0.942135       -25.6368
  57   2.0000      -0.940432       -25.5905
  58   2.0000      -0.932350       -25.3705
  59   2.0000      -0.931846       -25.3568
  60   2.0000      -0.930575       -25.3222
  61   2.0000      -0.922999       -25.1161
  62   2.0000      -0.921037       -25.0627
  63   2.0000      -0.917722       -24.9725
  64   2.0000      -0.903405       -24.5829
  65   2.0000      -0.889297       -24.1990
  66   2.0000      -0.865156       -23.5421
  67   2.0000      -0.813972       -22.1493
  68   2.0000      -0.810013       -22.0416
  69   2.0000      -0.783346       -21.3159
  70   2.0000      -0.778224       -21.1765
  71   2.0000      -0.768539       -20.9130
  72   2.0000      -0.767376       -20.8814
  73   2.0000      -0.763818       -20.7845
  74   2.0000      -0.751374       -20.4459
  75   2.0000      -0.742824       -20.2133
  76   2.0000      -0.732313       -19.9272
  77   2.0000      -0.728922       -19.8350
  78   2.0000      -0.726596       -19.7717
  79   2.0000      -0.722217       -19.6525
  80   2.0000      -0.701872       -19.0989
  81   2.0000      -0.695125       -18.9153
  82   2.0000      -0.667860       -18.1734
  83   2.0000      -0.658426       -17.9167
  84   2.0000      -0.658086       -17.9074
  85   2.0000      -0.634527       -17.2664
  86   2.0000      -0.633772       -17.2458
  87   2.0000      -0.619301       -16.8520
  88   2.0000      -0.611990       -16.6531
  89   2.0000      -0.604236       -16.4421
  90   2.0000      -0.600271       -16.3342
  91   2.0000      -0.596595       -16.2342
  92   2.0000      -0.594676       -16.1820
  93   2.0000      -0.588540       -16.0150
  94   2.0000      -0.582686       -15.8557
  95   2.0000      -0.579008       -15.7556
  96   2.0000      -0.566600       -15.4180
  97   2.0000      -0.562630       -15.3099
  98   2.0000      -0.557193       -15.1620
  99   2.0000      -0.554739       -15.0952
 100   2.0000      -0.551640       -15.0109
 101   2.0000      -0.550346       -14.9757
 102   2.0000      -0.547816       -14.9068
 103   2.0000      -0.545712       -14.8496
 104   2.0000      -0.542798       -14.7703
 105   2.0000      -0.539217       -14.6728
 106   2.0000      -0.536808       -14.6073
 107   2.0000      -0.534395       -14.5416
 108   2.0000      -0.533949       -14.5295
 109   2.0000      -0.522150       -14.2084
 110   2.0000      -0.521493       -14.1905
 111   2.0000      -0.516208       -14.0467
 112   2.0000      -0.498894       -13.5756
 113   2.0000      -0.497304       -13.5323
 114   2.0000      -0.496908       -13.5216
 115   2.0000      -0.495317       -13.4783
 116   2.0000      -0.490116       -13.3367
 117   2.0000      -0.480367       -13.0715
 118   2.0000      -0.476286       -12.9604
 119   2.0000      -0.472778       -12.8649
 120   2.0000      -0.467308       -12.7161
 121   2.0000      -0.466575       -12.6962
 122   2.0000      -0.463368       -12.6089
 123   2.0000      -0.458466       -12.4755
 124   2.0000      -0.458437       -12.4747
 125   2.0000      -0.449774       -12.2390
 126   2.0000      -0.448559       -12.2059
 127   2.0000      -0.444780       -12.1031
 128   2.0000      -0.441167       -12.0048
 129   2.0000      -0.438428       -11.9302
 130   2.0000      -0.435268       -11.8442
 131   2.0000      -0.423649       -11.5281
 132   2.0000      -0.422831       -11.5058
 133   2.0000      -0.421897       -11.4804
 134   2.0000      -0.375508       -10.2181
 135   2.0000      -0.355036        -9.6610
 136   2.0000      -0.338654        -9.2153
 137   2.0000      -0.329037        -8.9535
 138   2.0000      -0.327272        -8.9055
 139   2.0000      -0.325235        -8.8501
 140   2.0000      -0.324988        -8.8434
 141   2.0000      -0.323141        -8.7931
 142   2.0000      -0.321948        -8.7606
 143   2.0000      -0.321815        -8.7570
 144   2.0000      -0.307897        -8.3783
 145   2.0000      -0.287689        -7.8284
 146   2.0000      -0.271400        -7.3852
 147   2.0000      -0.231709        -6.3051
 148   0.0000       0.004743         0.1291
 149   0.0000       0.016590         0.4514
 150   0.0000       0.041563         1.1310
 151   0.0000       0.048377         1.3164
 152   0.0000       0.052122         1.4183

MULLIKEN ATOMIC CHARGES
-----------------------
   0 C :   -0.280314
   1 C :   -0.260083
   2 C :    0.086481
   3 C :    0.265557
   4 C :   -0.426705
   5 C :    0.238459
   6 C :    0.268183
   7 C :    0.085804
   8 C :   -0.260788
   9 H :    0.186911
  10 C :   -0.279629
  11 C :    0.238708
  12 C :   -0.428150
  13 H :    0.186872
  14 H :    0.160904
  15 H :    0.171023
  16 N :    0.089199
  17 C :    0.060866
  18 C :   -0.267847
  19 C :   -0.268756
  20 C :   -0.119056
  21 C :   -0.118944
  22 H :    0.172824
  23 C :   -0.147920
  24 H :    0.173224
  25 H :    0.173678
  26 H :    0.160831
  27 H :    0.170929
  28 C :    0.131831
  29 C :   -0.245731
  30 C :   -0.251631
  31 C :   -0.255056
  32 H :    0.169396
  33 C :   -0.251658
  34 H :    0.169093
  35 C :    0.239822
  36 H :    0.170034
  37 H :    0.171009
  38 C :    0.102193
  39 C :   -0.263844
  40 C :   -0.265860
  41 C :   -0.179746
  42 H :    0.171609
  43 C :   -0.176551
  44 H :    0.172623
  45 C :   -0.160551
  46 H :    0.169829
  47 H :    0.169112
  48 H :    0.171750
  49 C :    0.131996
  50 C :   -0.246358
  51 C :   -0.251833
  52 C :   -0.254926
  53 H :    0.169254
  54 C :   -0.251448
  55 H :    0.169120
  56 C :    0.239284
  57 H :    0.170089
  58 H :    0.171022
  59 C :    0.101879
  60 C :   -0.264116
  61 C :   -0.264916
  62 C :   -0.179716
  63 H :    0.171635
  64 C :   -0.176430
  65 H :    0.172704
  66 C :   -0.160569
  67 H :    0.169885
  68 H :    0.168946
  69 H :    0.171771
  70 O :   -0.293205
  71 H :    0.173267
  72 H :    0.172734
Sum of atomic charges:    0.0000000

LOEWDIN ATOMIC CHARGES
----------------------
   0 C :   -0.112054
   1 C :   -0.119427
   2 C :   -0.140204
   3 C :   -0.193153
   4 C :   -0.074907
   5 C :   -0.125062
   6 C :   -0.193155
   7 C :   -0.140204
   8 C :   -0.119431
   9 H :    0.165178
  10 C :   -0.112041
  11 C :   -0.125061
  12 C :   -0.074911
  13 H :    0.165179
  14 H :    0.165739
  15 H :    0.160513
  16 N :    0.275412
  17 C :   -0.175706
  18 C :   -0.099899
  19 C :   -0.099881
  20 C :   -0.139167
  21 C :   -0.139171
  22 H :    0.163280
  23 C :   -0.139170
  24 H :    0.156311
  25 H :    0.155642
  26 H :    0.165736
  27 H :    0.160519
  28 C :   -0.113264
  29 C :   -0.106242
  30 C :   -0.105598
  31 C :   -0.105086
  32 H :    0.159518
  33 C :   -0.105102
  34 H :    0.159451
  35 C :   -0.114625
  36 H :    0.159971
  37 H :    0.159912
  38 C :   -0.114730
  39 C :   -0.108077
  40 C :   -0.108140
  41 C :   -0.149302
  42 H :    0.158536
  43 C :   -0.149170
  44 H :    0.158590
  45 C :   -0.151434
  46 H :    0.154534
  47 H :    0.154476
  48 H :    0.153090
  49 C :   -0.113261
  50 C :   -0.106243
  51 C :   -0.105596
  52 C :   -0.105095
  53 H :    0.159514
  54 C :   -0.105104
  55 H :    0.159452
  56 C :   -0.114628
  57 H :    0.159975
  58 H :    0.159915
  59 C :   -0.114733
  60 C :   -0.108078
  61 C :   -0.108142
  62 C :   -0.149301
  63 H :    0.158539
  64 C :   -0.149168
  65 H :    0.158592
  66 C :   -0.151436
  67 H :    0.154534
  68 H :    0.154474
  69 H :    0.153089
  70 O :    0.294926
  71 H :    0.156310
  72 H :    0.163257

  Mayer bond orders larger than 0.100000
B(  0-C ,  1-C ) :   1.4281 B(  0-C ,  5-C ) :   1.3780 B(  0-C , 27-H ) :   0.9703
B(  1-C ,  2-C ) :   1.3709 B(  1-C , 13-H ) :   0.9662 B(  2-C ,  3-C ) :   1.3506
B(  2-C , 16-N ) :   1.0971 B(  3-C ,  4-C ) :   1.4687 B(  3-C , 70-O ) :   1.0175
B(  4-C ,  5-C ) :   1.3228 B(  4-C , 14-H ) :   0.9844 B(  5-C , 28-C ) :   0.9171
B(  6-C ,  7-C ) :   1.3506 B(  6-C , 12-C ) :   1.4680 B(  6-C , 70-O ) :   1.0175
B(  7-C ,  8-C ) :   1.3701 B(  7-C , 16-N ) :   1.0970 B(  8-C ,  9-H ) :   0.9666
B(  8-C , 10-C ) :   1.4279 B( 10-C , 11-C ) :   1.3781 B( 10-C , 15-H ) :   0.9701
B( 11-C , 12-C ) :   1.3228 B( 11-C , 49-C ) :   0.9168 B( 12-C , 26-H ) :   0.9850
B( 16-N , 17-C ) :   0.7373 B( 17-C , 18-C ) :   1.4818 B( 17-C , 19-C ) :   1.4827
B( 18-C , 20-C ) :   1.4235 B( 18-C , 72-H ) :   0.9811 B( 19-C , 21-C ) :   1.4239
B( 19-C , 22-H ) :   0.9809 B( 20-C , 23-C ) :   1.3944 B( 20-C , 71-H ) :   0.9752
B( 21-C , 23-C ) :   1.3941 B( 21-C , 24-H ) :   0.9753 B( 23-C , 25-H ) :   0.9742
B( 28-C , 29-C ) :   1.3639 B( 28-C , 30-C ) :   1.3690 B( 29-C , 31-C ) :   1.4673
B( 29-C , 32-H ) :   0.9710 B( 30-C , 33-C ) :   1.4682 B( 30-C , 34-H ) :   0.9727
B( 31-C , 35-C ) :   1.3634 B( 31-C , 36-H ) :   0.9736 B( 33-C , 35-C ) :   1.3606
B( 33-C , 37-H ) :   0.9721 B( 35-C , 38-C ) :   0.8964 B( 38-C , 39-C ) :   1.3840
B( 38-C , 40-C ) :   1.3867 B( 39-C , 41-C ) :   1.4589 B( 39-C , 42-H ) :   0.9675
B( 40-C , 43-C ) :   1.4567 B( 40-C , 44-H ) :   0.9673 B( 41-C , 45-C ) :   1.4044
B( 41-C , 46-H ) :   0.9766 B( 43-C , 45-C ) :   1.4040 B( 43-C , 47-H ) :   0.9771
B( 45-C , 48-H ) :   0.9736 B( 49-C , 50-C ) :   1.3634 B( 49-C , 51-C ) :   1.3688
B( 50-C , 52-C ) :   1.4679 B( 50-C , 53-H ) :   0.9711 B( 51-C , 54-C ) :   1.4681
B( 51-C , 55-H ) :   0.9727 B( 52-C , 56-C ) :   1.3636 B( 52-C , 57-H ) :   0.9735
B( 54-C , 56-C ) :   1.3606 B( 54-C , 58-H ) :   0.9722 B( 56-C , 59-C ) :   0.8966
B( 59-C , 60-C ) :   1.3843 B( 59-C , 61-C ) :   1.3868 B( 60-C , 62-C ) :   1.4587
B( 60-C , 63-H ) :   0.9676 B( 61-C , 64-C ) :   1.4562 B( 61-C , 65-H ) :   0.9671
B( 62-C , 66-C ) :   1.4044 B( 62-C , 67-H ) :   0.9767 B( 64-C , 66-C ) :   1.4039
B( 64-C , 68-H ) :   0.9773 B( 66-C , 69-H ) :   0.9736

MP2 TOTAL ENERGY:    -1746.226720708 Eh

-----------------------------------------------------------------------------
         ABSORPTION SPECTRUM VIA TRANSITION ELECTRIC DIPOLE MOMENTS
-----------------------------------------------------------------------------
State   Energy    Wavelength  fosc         T2        TX        TY        TZ
        (cm-1)      (nm)                 (au**2)    (au)      (au)      (au)
-----------------------------------------------------------------------------
   1   26004.1    384.6   1.143166137  14.47249   3.80423  -0.00142   0.01866
   2   32053.8    312.0   0.735199392   7.55093   0.00146   2.74790  -0.00167
   3   30489.2    328.0   0.366639494   3.95885  -1.98921  -0.00149  -0.04330
   4   32699.7    305.8   0.071243716   0.71726  -0.00346   0.84691  -0.00079
   5   35890.2    278.6   0.673173829   6.17486  -2.48485   0.00026  -0.02001
   6   34438.1    290.4   0.000877218   0.00839  -0.00267   0.09153  -0.00024
   7   35542.0    281.4   0.003962113   0.03670  -0.19115   0.00185  -0.01250
   8   35492.4    281.8   0.002042798   0.01895  -0.00378  -0.13760   0.00009
   9   38213.1    261.7   0.000316520   0.00273  -0.00096  -0.05220  -0.00093
  10   38147.2    262.1   0.000110712   0.00096   0.02109   0.00004   0.02260
  11   38206.1    261.7   0.000353796   0.00305   0.00035  -0.05521  -0.00003
  12   37648.0    265.6   0.026161251   0.22877  -0.47829  -0.00038   0.00292
  13   40864.9    244.7   0.391139349   3.15106  -1.77064  -0.00049  -0.12609
  14   41800.1    239.2   0.000504385   0.00397  -0.00881   0.06238  -0.00193
  15   40488.8    247.0   0.002545002   0.02069   0.09385  -0.00114  -0.10902
  16   41080.9    243.4   0.108156385   0.86674   0.92377   0.00037  -0.11574
  17   42908.8    233.1   0.022627424   0.17361   0.00190  -0.41665  -0.00102
  18   43789.4    228.4   0.011975422   0.09003  -0.26950  -0.00063   0.13191
  19   49607.6    201.6   0.001821897   0.01209  -0.00080   0.10995  -0.00031
  20   45389.0    220.3   0.543857505   3.94467   1.98609  -0.00014   0.01034
  21   47095.8    212.3   0.139154868   0.97273   0.00179  -0.98627   0.00229
  22   45882.1    217.9   0.009748264   0.06995  -0.00638  -0.26423  -0.00944
  23   46192.5    216.5   0.095668701   0.68183  -0.69759  -0.00182  -0.44180
  24   46897.5    213.2   0.455389969   3.19675   1.54361  -0.00430  -0.90221
  25   46769.6    213.8   0.536232243   3.77454  -0.00513  -1.94281   0.00469
  26   46221.2    216.4   0.498792994   3.55267   0.00231  -1.88484  -0.00564
  27   47066.4    212.5   0.347042741   2.42743   0.81217   0.00824  -1.32957
  28   49986.2    200.1   1.308489275   8.61778  -2.92511   0.00172  -0.24799
  29   49514.7    202.0   0.505394581   3.36025  -0.00241  -1.83310   0.00032
  30   46502.0    215.0   0.122493480   0.86719   0.72699  -0.00883  -0.58189

FINAL SINGLE POINT ENERGY     -1743.525324776278

DIPOLE MOMENT
-------------
                                X             Y             Z
Electronic contribution:      0.00079       4.77645      -0.02558
Nuclear contribution   :     -0.00106      -3.31033       0.02858
                        -----------------------------------------
Total Dipole Moment    :     -0.00027       1.46612       0.00300
                        -----------------------------------------
Magnitude (a.u.)       :      1.46612
Magnitude (Debye)      :      3.72659

Rotational constants in cm-1:     0.003126     0.000782     0.000637
Rotational constants in MHz :    93.711609    23.448179    19.093811

                             ****ORCA TERMINATED NORMALLY****
TOTAL RUN TIME: 3 days 13 hours 56 minutes 22 seconds 363 msec
