                         Program Version 5.0.2 -  RELEASE  -
|  1> %maxcore 12800
|  2> %pal
|  3>  nprocs= 8
|  4> end
|  5> ! RI-DSD-BLYP D3BJ def2-TZVP def2/J def2-TZVP/C RIJCOSX CPCM TightSCF
|  6> %TDDFT DCORR 4
|  7>    NROOTS   30
|  8>
|  9>    TDA      FALSE
| 10> END
| 11>
| 12> %CPCM
| 13>    SMD          TRUE
| 14>    SMDsolvent   "N,N-DIMETHYLACETAMIDE"
| 15> END
| 16>
| 17>
| 18> * xyz 0 1
| 19> C                  -3.61688000    1.95222700    0.00979700
| 20> C                  -2.44498300    2.69219500    0.00577400
| 21> C                  -1.20128400    2.06784400   -0.00149600
| 22> C                  -1.17907300    0.66788400   -0.00746600
| 23> C                  -2.34227100   -0.06585600   -0.00741200
| 24> C                  -3.59805500    0.55825700    0.00165200
| 25> C                   1.17925100    0.66797700    0.00012600
| 26> C                   1.20135300    2.06794100   -0.00564300
| 27> C                   2.44501800    2.69237500   -0.01150300
| 28> H                   2.49303900    3.77321800   -0.00557800
| 29> C                   3.61696900    1.95248600   -0.01421200
| 30> C                   3.59827200    0.55852100   -0.00584900
| 31> C                   2.34249600   -0.06566900    0.00156900
| 32> H                  -2.49308300    3.77303600   -0.00006600
| 33> H                  -2.25543500   -1.14453900    0.00896800
| 34> H                   4.56073300    2.48154200    0.00265200
| 35> N                   0.00000900    2.76974200   -0.00410800
| 36> C                  -0.00004400    4.19949700   -0.00031200
| 37> C                   0.00177500    4.89081800   -1.20408000
| 38> C                  -0.00193000    4.88400000    1.20737700
| 39> C                   0.00177600    6.27761900   -1.19683800
| 40> C                  -0.00208600    6.27078300    1.20807700
| 41> H                  -0.00331900    4.32511400    2.13518600
| 42> C                  -0.00019500    6.96725300    0.00757900
| 43> H                  -0.00358800    6.80775300    2.14807900
| 44> H                  -0.00025800    8.04987200    0.01064200
| 45> H                   2.25571800   -1.14436300   -0.01477100
| 46> H                  -4.56071600    2.48121500   -0.00600400
| 47> C                  -4.83465400   -0.23344000   -0.00549800
| 48> C                  -4.86912000   -1.53095200   -0.52941200
| 49> C                  -6.03242900    0.27587300    0.50971700
| 50> C                  -6.03346800   -2.27397400   -0.54043000
| 51> H                  -3.97000500   -1.96338800   -0.95084000
| 52> C                  -7.19568500   -0.46915300    0.50181400
| 53> H                  -6.05130600    1.27062200    0.93751300
| 54> C                  -7.22900300   -1.76453000   -0.02454400
| 55> H                  -6.01072000   -3.27794800   -0.94633800
| 56> H                  -8.10232300   -0.03070500    0.90091100
| 57> C                  -8.46775000   -2.55848400   -0.03671700
| 58> C                  -8.69537900   -3.52297100   -1.02463100
| 59> C                  -9.45568300   -2.37552800    0.93692500
| 60> C                  -9.86027200   -4.27171800   -1.03872000
| 61> H                  -7.95862700   -3.67262300   -1.80424300
| 62> C                 -10.62003700   -3.12578400    0.92352900
| 63> H                  -9.29910100   -1.65084400    1.72667100
| 64> C                 -10.82954000   -4.07809300   -0.06437200
| 65> H                 -10.01498200   -5.00597100   -1.81977700
| 66> H                 -11.36515500   -2.97070200    1.69415900
| 67> H                 -11.74002800   -4.66387300   -0.07456800
| 68> C                   4.83493800   -0.23306800    0.00315900
| 69> C                   4.86829700   -1.53110400    0.52585200
| 70> C                   6.03385300    0.27676000   -0.50893300
| 71> C                   6.03252800   -2.27425500    0.53845900
| 72> H                   3.96829300   -1.96390300    0.94498200
| 73> C                   7.19702400   -0.46839400   -0.49941800
| 74> H                   6.05370500    1.27200400   -0.93557100
| 75> C                   7.22914400   -1.76437800    0.02552300
| 76> H                   6.00883900   -3.27870400    0.94315900
| 77> H                   8.10456900   -0.02959600   -0.89607400
| 78> C                   8.46773800   -2.55854200    0.03917500
| 79> C                   8.69365700   -3.52365500    1.02687300
| 80> C                   9.45714600   -2.37529900   -0.93288700
| 81> C                   9.85829700   -4.27277200    1.04223400
| 82> H                   7.95576200   -3.67358200    1.80535600
| 83> C                  10.62126300   -3.12591200   -0.91821500
| 84> H                   9.30198600   -1.65016900   -1.72250000
| 85> C                  10.82903400   -4.07888800    0.06940600
| 86> H                  10.01163200   -5.00753100    1.82308600
| 87> H                  11.36754600   -2.97055700   -1.68766400
| 88> H                  11.73931500   -4.66497100    0.08052700
| 89> O                   0.00012000   -0.03539000   -0.00456200
| 90> H                   0.00321700    6.81993700   -2.13376300
| 91> H                   0.00321900    4.33723700   -2.13505800
| 92> *
| 93>
| 94>
| 95>                          ****END OF INPUT****

CARTESIAN COORDINATES (ANGSTROEM)
---------------------------------
  C     -3.616880    1.952227    0.009797
  C     -2.444983    2.692195    0.005774
  C     -1.201284    2.067844   -0.001496
  C     -1.179073    0.667884   -0.007466
  C     -2.342271   -0.065856   -0.007412
  C     -3.598055    0.558257    0.001652
  C      1.179251    0.667977    0.000126
  C      1.201353    2.067941   -0.005643
  C      2.445018    2.692375   -0.011503
  H      2.493039    3.773218   -0.005578
  C      3.616969    1.952486   -0.014212
  C      3.598272    0.558521   -0.005849
  C      2.342496   -0.065669    0.001569
  H     -2.493083    3.773036   -0.000066
  H     -2.255435   -1.144539    0.008968
  H      4.560733    2.481542    0.002652
  N      0.000009    2.769742   -0.004108
  C     -0.000044    4.199497   -0.000312
  C      0.001775    4.890818   -1.204080
  C     -0.001930    4.884000    1.207377
  C      0.001776    6.277619   -1.196838
  C     -0.002086    6.270783    1.208077
  H     -0.003319    4.325114    2.135186
  C     -0.000195    6.967253    0.007579
  H     -0.003588    6.807753    2.148079
  H     -0.000258    8.049872    0.010642
  H      2.255718   -1.144363   -0.014771
  H     -4.560716    2.481215   -0.006004
  C     -4.834654   -0.233440   -0.005498
  C     -4.869120   -1.530952   -0.529412
  C     -6.032429    0.275873    0.509717
  C     -6.033468   -2.273974   -0.540430
  H     -3.970005   -1.963388   -0.950840
  C     -7.195685   -0.469153    0.501814
  H     -6.051306    1.270622    0.937513
  C     -7.229003   -1.764530   -0.024544
  H     -6.010720   -3.277948   -0.946338
  H     -8.102323   -0.030705    0.900911
  C     -8.467750   -2.558484   -0.036717
  C     -8.695379   -3.522971   -1.024631
  C     -9.455683   -2.375528    0.936925
  C     -9.860272   -4.271718   -1.038720
  H     -7.958627   -3.672623   -1.804243
  C    -10.620037   -3.125784    0.923529
  H     -9.299101   -1.650844    1.726671
  C    -10.829540   -4.078093   -0.064372
  H    -10.014982   -5.005971   -1.819777
  H    -11.365155   -2.970702    1.694159
  H    -11.740028   -4.663873   -0.074568
  C      4.834938   -0.233068    0.003159
  C      4.868297   -1.531104    0.525852
  C      6.033853    0.276760   -0.508933
  C      6.032528   -2.274255    0.538459
  H      3.968293   -1.963903    0.944982
  C      7.197024   -0.468394   -0.499418
  H      6.053705    1.272004   -0.935571
  C      7.229144   -1.764378    0.025523
  H      6.008839   -3.278704    0.943159
  H      8.104569   -0.029596   -0.896074
  C      8.467738   -2.558542    0.039175
  C      8.693657   -3.523655    1.026873
  C      9.457146   -2.375299   -0.932887
  C      9.858297   -4.272772    1.042234
  H      7.955762   -3.673582    1.805356
  C     10.621263   -3.125912   -0.918215
  H      9.301986   -1.650169   -1.722500
  C     10.829034   -4.078888    0.069406
  H     10.011632   -5.007531    1.823086
  H     11.367546   -2.970557   -1.687664
  H     11.739315   -4.664971    0.080527
  O      0.000120   -0.035390   -0.004562
  H      0.003217    6.819937   -2.133763
  H      0.003219    4.337237   -2.135058

 Total Charge           Charge          ....    0
 Multiplicity           Mult            ....    1
 Number of Electrons    NEL             ....  296
 Basis Dimension        Dim             .... 1538

ORBITAL ENERGIES
----------------

  NO   OCC          E(Eh)            E(eV)
   0   2.0000     -20.057492      -545.7921
   1   2.0000     -15.123279      -411.5254
   2   2.0000     -10.897042      -296.5236
   3   2.0000     -10.897023      -296.5231
   4   2.0000     -10.883294      -296.1495
   5   2.0000     -10.883278      -296.1490
   6   2.0000     -10.870368      -295.7977
   7   2.0000     -10.840147      -294.9754
   8   2.0000     -10.840140      -294.9752
   9   2.0000     -10.839750      -294.9646
  10   2.0000     -10.839747      -294.9645
  11   2.0000     -10.838030      -294.9178
  12   2.0000     -10.838026      -294.9177
  13   2.0000     -10.837695      -294.9087
  14   2.0000     -10.837690      -294.9085
  15   2.0000     -10.831870      -294.7502
  16   2.0000     -10.831843      -294.7494
  17   2.0000     -10.830998      -294.7264
  18   2.0000     -10.830393      -294.7100
  19   2.0000     -10.829695      -294.6910
  20   2.0000     -10.829035      -294.6730
  21   2.0000     -10.829034      -294.6730
  22   2.0000     -10.828315      -294.6534
  23   2.0000     -10.828314      -294.6534
  24   2.0000     -10.826555      -294.6055
  25   2.0000     -10.826551      -294.6054
  26   2.0000     -10.826421      -294.6019
  27   2.0000     -10.826419      -294.6018
  28   2.0000     -10.826352      -294.6000
  29   2.0000     -10.826349      -294.5999
  30   2.0000     -10.826316      -294.5990
  31   2.0000     -10.826313      -294.5990
  32   2.0000     -10.826133      -294.5941
  33   2.0000     -10.826131      -294.5940
  34   2.0000     -10.825303      -294.5715
  35   2.0000     -10.825299      -294.5714
  36   2.0000     -10.825269      -294.5705
  37   2.0000     -10.825267      -294.5705
  38   2.0000     -10.825242      -294.5698
  39   2.0000     -10.825237      -294.5697
  40   2.0000     -10.825060      -294.5649
  41   2.0000     -10.825059      -294.5648
  42   2.0000     -10.824185      -294.5410
  43   2.0000     -10.824184      -294.5410
  44   2.0000      -1.311635       -35.6914
  45   2.0000      -1.178646       -32.0726
  46   2.0000      -1.070284       -29.1239
  47   2.0000      -1.064159       -28.9573
  48   2.0000      -1.056898       -28.7596
  49   2.0000      -1.049994       -28.5718
  50   2.0000      -1.042074       -28.3563
  51   2.0000      -1.034614       -28.1533
  52   2.0000      -1.020862       -27.7791
  53   2.0000      -0.972552       -26.4645
  54   2.0000      -0.960337       -26.1321
  55   2.0000      -0.942479       -25.6462
  56   2.0000      -0.930885       -25.3307
  57   2.0000      -0.929215       -25.2852
  58   2.0000      -0.921708       -25.0809
  59   2.0000      -0.921006       -25.0618
  60   2.0000      -0.919788       -25.0287
  61   2.0000      -0.912313       -24.8253
  62   2.0000      -0.910389       -24.7730
  63   2.0000      -0.906835       -24.6762
  64   2.0000      -0.892564       -24.2879
  65   2.0000      -0.878561       -23.9069
  66   2.0000      -0.854593       -23.2547
  67   2.0000      -0.802845       -21.8465
  68   2.0000      -0.799079       -21.7440
  69   2.0000      -0.772923       -21.0323
  70   2.0000      -0.768060       -20.9000
  71   2.0000      -0.758515       -20.6403
  72   2.0000      -0.757210       -20.6047
  73   2.0000      -0.754049       -20.5187
  74   2.0000      -0.741586       -20.1796
  75   2.0000      -0.733026       -19.9466
  76   2.0000      -0.722673       -19.6649
  77   2.0000      -0.719377       -19.5752
  78   2.0000      -0.717004       -19.5107
  79   2.0000      -0.712173       -19.3792
  80   2.0000      -0.690914       -18.8007
  81   2.0000      -0.685407       -18.6509
  82   2.0000      -0.657598       -17.8942
  83   2.0000      -0.648486       -17.6462
  84   2.0000      -0.648218       -17.6389
  85   2.0000      -0.624819       -17.0022
  86   2.0000      -0.624200       -16.9853
  87   2.0000      -0.609933       -16.5971
  88   2.0000      -0.603120       -16.4117
  89   2.0000      -0.593896       -16.1607
  90   2.0000      -0.591308       -16.0903
  91   2.0000      -0.587572       -15.9887
  92   2.0000      -0.586320       -15.9546
  93   2.0000      -0.580044       -15.7838
  94   2.0000      -0.573871       -15.6158
  95   2.0000      -0.569292       -15.4912
  96   2.0000      -0.558144       -15.1879
  97   2.0000      -0.554548       -15.0900
  98   2.0000      -0.549262       -14.9462
  99   2.0000      -0.546977       -14.8840
 100   2.0000      -0.543857       -14.7991
 101   2.0000      -0.542302       -14.7568
 102   2.0000      -0.539695       -14.6859
 103   2.0000      -0.537909       -14.6372
 104   2.0000      -0.535066       -14.5599
 105   2.0000      -0.531100       -14.4520
 106   2.0000      -0.529701       -14.4139
 107   2.0000      -0.527237       -14.3468
 108   2.0000      -0.526772       -14.3342
 109   2.0000      -0.514922       -14.0117
 110   2.0000      -0.514249       -13.9934
 111   2.0000      -0.507938       -13.8217
 112   2.0000      -0.490080       -13.3357
 113   2.0000      -0.489006       -13.3065
 114   2.0000      -0.486675       -13.2431
 115   2.0000      -0.485380       -13.2079
 116   2.0000      -0.479034       -13.0352
 117   2.0000      -0.469072       -12.7641
 118   2.0000      -0.466937       -12.7060
 119   2.0000      -0.465908       -12.6780
 120   2.0000      -0.459895       -12.5144
 121   2.0000      -0.457133       -12.4392
 122   2.0000      -0.454103       -12.3568
 123   2.0000      -0.451544       -12.2871
 124   2.0000      -0.447221       -12.1695
 125   2.0000      -0.443135       -12.0583
 126   2.0000      -0.441339       -12.0094
 127   2.0000      -0.438428       -11.9302
 128   2.0000      -0.434791       -11.8313
 129   2.0000      -0.432044       -11.7565
 130   2.0000      -0.428744       -11.6667
 131   2.0000      -0.417146       -11.3511
 132   2.0000      -0.416681       -11.3385
 133   2.0000      -0.411647       -11.2015
 134   2.0000      -0.364225        -9.9111
 135   2.0000      -0.343994        -9.3605
 136   2.0000      -0.327748        -8.9185
 137   2.0000      -0.318064        -8.6550
 138   2.0000      -0.316425        -8.6104
 139   2.0000      -0.314465        -8.5570
 140   2.0000      -0.314198        -8.5498
 141   2.0000      -0.312194        -8.4952
 142   2.0000      -0.311271        -8.4701
 143   2.0000      -0.311096        -8.4654
 144   2.0000      -0.297100        -8.0845
 145   2.0000      -0.276934        -7.5358
 146   2.0000      -0.260335        -7.0841
 147   2.0000      -0.221339        -6.0230
 148   0.0000       0.014989         0.4079
 149   0.0000       0.026466         0.7202
 150   0.0000       0.050445         1.3727
 151   0.0000       0.056915         1.5487
 152   0.0000       0.061256         1.6669

MULLIKEN ATOMIC CHARGES
-----------------------
   0 C :   -0.268592
   1 C :   -0.235213
   2 C :    0.093753
   3 C :    0.275251
   4 C :   -0.396773
   5 C :    0.223520
   6 C :    0.277943
   7 C :    0.092985
   8 C :   -0.235906
   9 H :    0.178096
  10 C :   -0.267905
  11 C :    0.223731
  12 C :   -0.398253
  13 H :    0.178049
  14 H :    0.151872
  15 H :    0.161057
  16 N :    0.011382
  17 C :    0.112341
  18 C :   -0.265500
  19 C :   -0.266352
  20 C :   -0.109735
  21 C :   -0.109655
  22 H :    0.163915
  23 C :   -0.144767
  24 H :    0.164155
  25 H :    0.164564
  26 H :    0.151809
  27 H :    0.160948
  28 C :    0.126087
  29 C :   -0.231945
  30 C :   -0.237200
  31 C :   -0.240685
  32 H :    0.159224
  33 C :   -0.237392
  34 H :    0.158918
  35 C :    0.227531
  36 H :    0.159380
  37 H :    0.160344
  38 C :    0.103144
  39 C :   -0.250419
  40 C :   -0.252624
  41 C :   -0.169595
  42 H :    0.161120
  43 C :   -0.166316
  44 H :    0.162132
  45 C :   -0.154768
  46 H :    0.160246
  47 H :    0.159567
  48 H :    0.162132
  49 C :    0.126309
  50 C :   -0.232549
  51 C :   -0.237460
  52 C :   -0.240580
  53 H :    0.159088
  54 C :   -0.237172
  55 H :    0.158959
  56 C :    0.226995
  57 H :    0.159429
  58 H :    0.160349
  59 C :    0.102862
  60 C :   -0.250754
  61 C :   -0.251676
  62 C :   -0.169501
  63 H :    0.161138
  64 C :   -0.166161
  65 H :    0.162211
  66 C :   -0.154830
  67 H :    0.160305
  68 H :    0.159398
  69 H :    0.162147
  70 O :   -0.332137
  71 H :    0.164203
  72 H :    0.163830
Sum of atomic charges:   -0.0000000

LOEWDIN ATOMIC CHARGES
----------------------
   0 C :   -0.110391
   1 C :   -0.117755
   2 C :   -0.136385
   3 C :   -0.189513
   4 C :   -0.073654
   5 C :   -0.120731
   6 C :   -0.189515
   7 C :   -0.136385
   8 C :   -0.117759
   9 H :    0.161409
  10 C :   -0.110379
  11 C :   -0.120731
  12 C :   -0.073658
  13 H :    0.161411
  14 H :    0.161704
  15 H :    0.156666
  16 N :    0.272392
  17 C :   -0.168399
  18 C :   -0.097563
  19 C :   -0.097545
  20 C :   -0.136862
  21 C :   -0.136866
  22 H :    0.159356
  23 C :   -0.136953
  24 H :    0.152665
  25 H :    0.152028
  26 H :    0.161702
  27 H :    0.156671
  28 C :   -0.108917
  29 C :   -0.104454
  30 C :   -0.103829
  31 C :   -0.103107
  32 H :    0.155761
  33 C :   -0.103132
  34 H :    0.155686
  35 C :   -0.110450
  36 H :    0.156198
  37 H :    0.156131
  38 C :   -0.109852
  39 C :   -0.105890
  40 C :   -0.105983
  41 C :   -0.146428
  42 H :    0.154896
  43 C :   -0.146294
  44 H :    0.154943
  45 C :   -0.149261
  46 H :    0.150894
  47 H :    0.150837
  48 H :    0.149445
  49 C :   -0.108914
  50 C :   -0.104455
  51 C :   -0.103828
  52 C :   -0.103116
  53 H :    0.155758
  54 C :   -0.103134
  55 H :    0.155688
  56 C :   -0.110452
  57 H :    0.156201
  58 H :    0.156134
  59 C :   -0.109855
  60 C :   -0.105891
  61 C :   -0.105985
  62 C :   -0.146427
  63 H :    0.154898
  64 C :   -0.146291
  65 H :    0.154945
  66 C :   -0.149263
  67 H :    0.150894
  68 H :    0.150835
  69 H :    0.149445
  70 O :    0.288660
  71 H :    0.152664
  72 H :    0.159334

  Mayer bond orders larger than 0.100000
B(  0-C ,  1-C ) :   1.4296 B(  0-C ,  5-C ) :   1.3825 B(  0-C , 27-H ) :   0.9730
B(  1-C ,  2-C ) :   1.3639 B(  1-C , 13-H ) :   0.9688 B(  2-C ,  3-C ) :   1.3251
B(  2-C , 16-N ) :   1.0915 B(  3-C ,  4-C ) :   1.4848 B(  3-C , 70-O ) :   1.0004
B(  4-C ,  5-C ) :   1.3393 B(  4-C , 14-H ) :   0.9810 B(  5-C , 28-C ) :   0.9233
B(  6-C ,  7-C ) :   1.3251 B(  6-C , 12-C ) :   1.4841 B(  6-C , 70-O ) :   1.0003
B(  7-C ,  8-C ) :   1.3632 B(  7-C , 16-N ) :   1.0914 B(  8-C ,  9-H ) :   0.9690
B(  8-C , 10-C ) :   1.4295 B( 10-C , 11-C ) :   1.3826 B( 10-C , 15-H ) :   0.9728
B( 11-C , 12-C ) :   1.3392 B( 11-C , 49-C ) :   0.9229 B( 12-C , 26-H ) :   0.9816
B( 16-N , 17-C ) :   0.7141 B( 17-C , 18-C ) :   1.4685 B( 17-C , 19-C ) :   1.4693
B( 18-C , 20-C ) :   1.4178 B( 18-C , 72-H ) :   0.9842 B( 19-C , 21-C ) :   1.4181
B( 19-C , 22-H ) :   0.9841 B( 20-C , 23-C ) :   1.3947 B( 20-C , 71-H ) :   0.9797
B( 21-C , 23-C ) :   1.3944 B( 21-C , 24-H ) :   0.9797 B( 23-C , 25-H ) :   0.9773
B( 28-C , 29-C ) :   1.3656 B( 28-C , 30-C ) :   1.3708 B( 29-C , 31-C ) :   1.4635
B( 29-C , 32-H ) :   0.9747 B( 30-C , 33-C ) :   1.4649 B( 30-C , 34-H ) :   0.9761
B( 31-C , 35-C ) :   1.3641 B( 31-C , 36-H ) :   0.9778 B( 33-C , 35-C ) :   1.3607
B( 33-C , 37-H ) :   0.9764 B( 35-C , 38-C ) :   0.9029 B( 38-C , 39-C ) :   1.3824
B( 38-C , 40-C ) :   1.3852 B( 39-C , 41-C ) :   1.4545 B( 39-C , 42-H ) :   0.9705
B( 40-C , 43-C ) :   1.4523 B( 40-C , 44-H ) :   0.9702 B( 41-C , 45-C ) :   1.4025
B( 41-C , 46-H ) :   0.9816 B( 43-C , 45-C ) :   1.4021 B( 43-C , 47-H ) :   0.9820
B( 45-C , 48-H ) :   0.9774 B( 49-C , 50-C ) :   1.3651 B( 49-C , 51-C ) :   1.3705
B( 50-C , 52-C ) :   1.4642 B( 50-C , 53-H ) :   0.9748 B( 51-C , 54-C ) :   1.4647
B( 51-C , 55-H ) :   0.9761 B( 52-C , 56-C ) :   1.3643 B( 52-C , 57-H ) :   0.9778
B( 54-C , 56-C ) :   1.3607 B( 54-C , 58-H ) :   0.9765 B( 56-C , 59-C ) :   0.9031
B( 59-C , 60-C ) :   1.3827 B( 59-C , 61-C ) :   1.3854 B( 60-C , 62-C ) :   1.4543
B( 60-C , 63-H ) :   0.9705 B( 61-C , 64-C ) :   1.4518 B( 61-C , 65-H ) :   0.9701
B( 62-C , 66-C ) :   1.4024 B( 62-C , 67-H ) :   0.9816 B( 64-C , 66-C ) :   1.4019
B( 64-C , 68-H ) :   0.9822 B( 66-C , 69-H ) :   0.9774

MP2 TOTAL ENERGY:    -1746.243628806 Eh

-----------------------------------------------------------------------------
         ABSORPTION SPECTRUM VIA TRANSITION ELECTRIC DIPOLE MOMENTS
-----------------------------------------------------------------------------
State   Energy    Wavelength  fosc         T2        TX        TY        TZ
        (cm-1)      (nm)                 (au**2)    (au)      (au)      (au)
-----------------------------------------------------------------------------
   1   20857.7    479.4   0.921414099  14.54333   3.81352  -0.00146   0.01907
   2   28750.6    347.8   0.650919057   7.45341   0.00158   2.73009  -0.00166
   3   22384.8    446.7   0.261244083   3.84209   1.95960   0.00146   0.04533
   4   26133.1    382.7   0.052257650   0.65832   0.00356  -0.81136   0.00080
   5   32283.3    309.8   0.560216331   5.71285  -2.39009   0.00031  -0.01843
   6   25125.9    398.0   0.001355241   0.01776   0.00428  -0.13319   0.00040
   7   29266.5    341.7   0.004099269   0.04611  -0.21453  -0.00113  -0.00927
   8   25524.3    391.8   0.000859968   0.01109  -0.00245  -0.10529   0.00017
   9   31290.6    319.6   0.000689132   0.00725  -0.00101  -0.08514  -0.00090
  10   32652.4    306.3   0.000130706   0.00132   0.03590   0.00000  -0.00538
  11   32792.2    305.0   0.000090443   0.00091  -0.00035   0.03013  -0.00000
  12   25324.7    394.9   0.015183146   0.19738  -0.44427  -0.00037   0.00073
  13   32800.5    304.9   0.317696818   3.18866  -1.78099  -0.00137  -0.12930
  14   32849.1    304.4   0.001328795   0.01332   0.01959  -0.11371   0.00209
  15   35763.8    279.6   0.002449886   0.02255   0.11383  -0.00116  -0.09795
  16   30166.2    331.5   0.104385141   1.13919   1.06072   0.00026  -0.11856
  17   34675.8    288.4   0.017625999   0.16734   0.00225  -0.40907  -0.00130
  18   37336.8    267.8   0.004261416   0.03757   0.02668  -0.00091   0.19199
  19   52244.8    191.4   0.001665590   0.01050   0.00175  -0.10243   0.00030
  20   39303.4    254.4   0.449264930   3.76312  -1.93734  -0.00062   0.09913
  21   38047.5    262.8   0.071918423   0.62228   0.63041  -0.00575   0.47417
  22   46671.5    214.3   0.127284179   0.89784  -0.00212  -0.94753  -0.00393
  23   35686.7    280.2   0.000449695   0.00415   0.00150  -0.06435   0.00230
  24   37964.5    263.4   0.327004144   2.83564   1.60905  -0.00181  -0.49657
  25   38778.8    257.9   0.512484676   4.35073  -0.00315  -2.08584   0.00154
  26   36579.4    273.4   0.385357121   3.46818   0.03205  -1.86145  -0.04660
  27   37099.2    269.5   0.377062428   3.34599  -1.05750  -0.06069   1.49131
  28   45583.1    219.4   1.167560756   8.43240   2.88814  -0.00144   0.30171
  29   43806.0    228.3   0.425201838   3.19548   0.00179   1.78759  -0.00007
  30   33700.8    296.7   0.097768856   0.95507   0.77077  -0.00688  -0.60078

Dispersion correction           -0.072083773
FINAL SINGLE POINT ENERGY     -1742.803715896538

DIPOLE MOMENT
-------------
                                X             Y             Z
Electronic contribution:      0.00079       4.77622      -0.02566
Nuclear contribution   :     -0.00106      -3.31033       0.02858
                        -----------------------------------------
Total Dipole Moment    :     -0.00027       1.46589       0.00292
                        -----------------------------------------
Magnitude (a.u.)       :      1.46589
Magnitude (Debye)      :      3.72601

Rotational constants in cm-1:     0.003126     0.000782     0.000637
Rotational constants in MHz :    93.711609    23.448179    19.093811

                             ****ORCA TERMINATED NORMALLY****
TOTAL RUN TIME: 0 days 8 hours 25 minutes 53 seconds 832 msec
