 Gaussian 09, Revision E.01,

 ----------------------------------------------------------------------
 #p TPSSTPSS/def2TZVP opt freq=noraman nosymm int=ultrafine scrf=(SMD,s
 olvent=n,n-DiMethylAcetamide)
 ----------------------------------------------------------------------

 -----
 Title
 -----
 Symbolic Z-matrix:
 Charge =  0 Multiplicity = 1

 SCF Done:  E(RTPSS-TPSS) =  -1300.87030736     A.U. after   14 cycles
 SCF Done:  E(RTPSS-TPSS) =  -1300.87076454     A.U. after   10 cycles
 SCF Done:  E(RTPSS-TPSS) =  -1300.87078331     A.U. after    9 cycles
 SCF Done:  E(RTPSS-TPSS) =  -1300.87078586     A.U. after    8 cycles
 SCF Done:  E(RTPSS-TPSS) =  -1300.87078617     A.U. after    8 cycles
 SCF Done:  E(RTPSS-TPSS) =  -1300.87078627     A.U. after    7 cycles
 Optimization completed.
    -- Stationary point found.
 Normal termination of Gaussian 09 at Wed Mar 31 08:58:08 2021.

 ----------------------------------------------------------------------
 #P Geom=AllCheck Guess=TCheck SCRF=Check GenChk RTPSSTPSS/def2TZVP Fre
 q
 ----------------------------------------------------------------------

 Structure from the checkpoint file:  "cp.chk"
 -----
 Title
 -----
 Charge =  0 Multiplicity = 1

 SCF Done:  E(RTPSS-TPSS) =  -1300.87078627     A.U. after    1 cycles

  Exact polarizability: 686.709  41.397 488.778  -3.249 -25.802 283.840
 Approx polarizability: 850.462  55.174 641.129  -9.607 -45.096 369.554

                      1                      2                      3
                      A                      A                      A
 Frequencies --     26.4861                38.4019                51.0484
 Red. masses --      6.2909                 4.0954                 4.8500
 Frc consts  --      0.0026                 0.0036                 0.0074
 IR Inten    --      0.4482                 0.2268                 1.0781

                      4                      5                      6
                      A                      A                      A
 Frequencies --     68.0239                78.9332               114.2149
 Red. masses --      4.6329                 4.5322                 5.5559
 Frc consts  --      0.0126                 0.0166                 0.0427
 IR Inten    --      0.1781                 0.3182                 0.3178

                      7                      8                      9
                      A                      A                      A
 Frequencies --    135.3901               162.4724               217.9018
 Red. masses --      4.7323                 6.1345                 6.2486
 Frc consts  --      0.0511                 0.0954                 0.1748
 IR Inten    --      0.2769                 0.7302                 1.9795

                     10                     11                     12
                      A                      A                      A
 Frequencies --    244.1040               245.5388               266.3040
 Red. masses --      4.8373                 4.4179                 4.7582
 Frc consts  --      0.1698                 0.1569                 0.1988
 IR Inten    --      1.5761                 2.3256                 6.1416

                     13                     14                     15
                      A                      A                      A
 Frequencies --    277.4243               305.4981               331.0069
 Red. masses --      6.1525                 6.1367                 6.0805
 Frc consts  --      0.2790                 0.3374                 0.3925
 IR Inten    --      2.0733                 1.4049                 0.4697

                     16                     17                     18
                      A                      A                      A
 Frequencies --    394.8747               409.9398               412.2112
 Red. masses --      5.8478                 4.2333                 3.1714
 Frc consts  --      0.5372                 0.4192                 0.3175
 IR Inten    --      2.8474                 6.5791                 1.9833

                     19                     20                     21
                      A                      A                      A
 Frequencies --    429.4874               436.1979               462.5797
 Red. masses --      3.9903                 5.8960                 4.8966
 Frc consts  --      0.4337                 0.6610                 0.6173
 IR Inten    --      2.5338                 4.7345                 6.9314

                     22                     23                     24
                      A                      A                      A
 Frequencies --    467.9355               493.5081               529.7350
 Red. masses --      2.8606                 5.3452                 5.3616
 Frc consts  --      0.3690                 0.7670                 0.8865
 IR Inten    --     27.5566                 2.8802                 6.7576

                     25                     26                     27
                      A                      A                      A
 Frequencies --    537.5557               549.0379               571.8921
 Red. masses --      4.1316                 4.0820                 5.0831
 Frc consts  --      0.7034                 0.7250                 0.9795
 IR Inten    --      3.1390                 1.5598                44.2020

                     28                     29                     30
                      A                      A                      A
 Frequencies --    593.7471               614.6963               621.3705
 Red. masses --      6.8730                 6.4498                 6.5012
 Frc consts  --      1.4276                 1.4359                 1.4789
 IR Inten    --     32.3524                 0.8946                 2.6584

                     31                     32                     33
                      A                      A                      A
 Frequencies --    644.7314               666.3886               685.9263
 Red. masses --      6.7072                 6.4019                 5.7636
 Frc consts  --      1.6427                 1.6750                 1.5977
 IR Inten    --     14.7799                 3.8835                 4.8444

                     34                     35                     36
                      A                      A                      A
 Frequencies --    703.7562               711.8418               720.5859
 Red. masses --      2.7150                 2.6588                 3.8993
 Frc consts  --      0.7922                 0.7938                 1.1929
 IR Inten    --     60.4273                30.1151                 4.2527

                     37                     38                     39
                      A                      A                      A
 Frequencies --    745.4820               748.8330               761.0733
 Red. masses --      1.2813                 1.2497                 3.0994
 Frc consts  --      0.4196                 0.4129                 1.0577
 IR Inten    --    116.6498                95.8847                 2.9911

                     40                     41                     42
                      A                      A                      A
 Frequencies --    768.3805               789.2610               843.9107
 Red. masses --      2.7983                 3.6658                 1.3072
 Frc consts  --      0.9734                 1.3454                 0.5485
 IR Inten    --      8.7091                 1.1009                 8.6149

                     43                     44                     45
                      A                      A                      A
 Frequencies --    846.6285               848.9980               852.4807
 Red. masses --      2.5990                 1.2690                 1.7855
 Frc consts  --      1.0976                 0.5389                 0.7645
 IR Inten    --     22.9047                 0.1687                11.3653

                     46                     47                     48
                      A                      A                      A
 Frequencies --    873.3002               888.5561               909.2102
 Red. masses --      1.5237                 1.5722                 5.9580
 Frc consts  --      0.6846                 0.7313                 2.9019
 IR Inten    --     64.1653                17.1640                 0.7662

                     49                     50                     51
                      A                      A                      A
 Frequencies --    923.5942               927.8898               946.9249
 Red. masses --      1.9262                 1.3599                 1.3656
 Frc consts  --      0.9681                 0.6898                 0.7215
 IR Inten    --      1.6783                 4.4942                 7.4073

                     52                     53                     54
                      A                      A                      A
 Frequencies --    949.5588               956.1336               971.1624
 Red. masses --      2.8135                 1.2551                 1.2660
 Frc consts  --      1.4946                 0.6760                 0.7035
 IR Inten    --      9.9351                 0.8655                 0.0727

                     55                     56                     57
                      A                      A                      A
 Frequencies --    974.4339               995.2755              1003.3910
 Red. masses --      1.3661                 1.2828                 6.2570
 Frc consts  --      0.7643                 0.7487                 3.7116
 IR Inten    --      0.0125                 0.0748                 3.0209

                     58                     59                     60
                      A                      A                      A
 Frequencies --   1023.2766              1026.7991              1032.3357
 Red. masses --      2.7058                 3.4277                 2.2499
 Frc consts  --      1.6693                 2.1292                 1.4127
 IR Inten    --      7.3436                27.0874                23.2021

                     61                     62                     63
                      A                      A                      A
 Frequencies --   1049.9759              1068.4585              1079.6932
 Red. masses --      3.2928                 2.9798                 1.5422
 Frc consts  --      2.1388                 2.0043                 1.0592
 IR Inten    --     41.1668                12.0793                17.2973

                     64                     65                     66
                      A                      A                      A
 Frequencies --   1129.3336              1132.3199              1151.3931
 Red. masses --      1.6562                 1.5960                 1.1667
 Frc consts  --      1.2445                 1.2056                 0.9113
 IR Inten    --     60.9817                 9.3543                 6.6504

                     67                     68                     69
                      A                      A                      A
 Frequencies --   1158.4186              1160.7623              1168.2946
 Red. masses --      1.0807                 1.0871                 1.3595
 Frc consts  --      0.8545                 0.8630                 1.0933
 IR Inten    --      0.0966                 7.2863                 7.9611

                     70                     71                     72
                      A                      A                      A
 Frequencies --   1175.6368              1210.4811              1230.9582
 Red. masses --      1.5831                 2.0735                 1.8502
 Frc consts  --      1.2892                 1.7901                 1.6518
 IR Inten    --     14.7702               102.0400                41.4037

                     73                     74                     75
                      A                      A                      A
 Frequencies --   1245.7983              1264.2793              1273.2658
 Red. masses --      2.8456                 2.8067                 1.8357
 Frc consts  --      2.6021                 2.6432                 1.7534
 IR Inten    --    442.3443               177.2554                 1.9342

                     76                     77                     78
                      A                      A                      A
 Frequencies --   1301.4499              1315.9331              1330.5939
 Red. masses --      2.2208                 2.1730                 9.0877
 Frc consts  --      2.2163                 2.2170                 9.4797
 IR Inten    --    362.4056                 6.5051                 4.2978

                     79                     80                     81
                      A                      A                      A
 Frequencies --   1335.5771              1337.0132              1376.0128
 Red. masses --      2.7518                 2.5929                 5.5427
 Frc consts  --      2.8921                 2.7309                 6.1833
 IR Inten    --    219.4566                 2.3723                 9.3300

                     82                     83                     84
                      A                      A                      A
 Frequencies --   1391.9255              1442.7464              1445.8690
 Red. masses --      6.4270                 2.2235                 2.4759
 Frc consts  --      7.3365                 2.7268                 3.0495
 IR Inten    --     67.6969               187.6080               430.0209

                     85                     86                     87
                      A                      A                      A
 Frequencies --   1449.8081              1459.7043              1483.9028
 Red. masses --      2.3538                 2.1271                 2.4264
 Frc consts  --      2.9150                 2.6704                 3.1479
 IR Inten    --     49.2092                 6.5836                99.5310

                     88                     89                     90
                      A                      A                      A
 Frequencies --   1502.3142              1509.2152              1567.4625
 Red. masses --      2.1972                 3.2684                 5.9539
 Frc consts  --      2.9217                 4.3862                 8.6188
 IR Inten    --     63.8515                35.3707                37.0013

                     91                     92                     93
                      A                      A                      A
 Frequencies --   1574.5226              1581.0859              1592.8197
 Red. masses --      5.7166                 6.1130                 5.6836
 Frc consts  --      8.3499                 9.0036                 8.4959
 IR Inten    --     29.9442                47.9642                77.5030

                     94                     95                     96
                      A                      A                      A
 Frequencies --   1596.6199              1605.7259              1618.0230
 Red. masses --      5.7601                 5.7048                 5.7851
 Frc consts  --      8.6514                 8.6664                 8.9234
 IR Inten    --      4.2179                 4.1463                24.6935

                     97                     98                     99
                      A                      A                      A
 Frequencies --   3125.7929              3130.2490              3134.0121
 Red. masses --      1.0854                 1.0878                 1.0902
 Frc consts  --      6.2486                 6.2800                 6.3087
 IR Inten    --      7.5355                 0.1344                 9.5664

                    100                    101                    102
                      A                      A                      A
 Frequencies --   3135.5151              3136.7495              3141.4646
 Red. masses --      1.0855                 1.0862                 1.0931
 Frc consts  --      6.2875                 6.2969                 6.3559
 IR Inten    --      0.3807                 1.3329                50.0094

                    103                    104                    105
                      A                      A                      A
 Frequencies --   3142.9213              3143.9149              3151.0067
 Red. masses --      1.0880                 1.0896                 1.0917
 Frc consts  --      6.3323                 6.3455                 6.3861
 IR Inten    --      6.0678                15.1075                27.7064

                    106                    107                    108
                      A                      A                      A
 Frequencies --   3153.7723              3157.3573              3160.1922
 Red. masses --      1.0969                 1.0948                 1.0953
 Frc consts  --      6.4281                 6.4304                 6.4450
 IR Inten    --     55.9818                25.7177                34.7236

                    109                    110                    111
                      A                      A                      A
 Frequencies --   3162.6742              3164.2379              3175.0594
 Red. masses --      1.0979                 1.0889                 1.0918
 Frc consts  --      6.4701                 6.4234                 6.4850
 IR Inten    --      8.2734                 5.0305                 8.2837

 - Thermochemistry -
 -------------------
 Temperature   298.150 Kelvin.  Pressure   1.00000 Atm.
 Atom     1 has atomic number  6 and mass  12.00000

 Molecular mass:   325.09252 amu.
 Principal axes and moments of inertia in atomic units:
                           1         2         3
     Eigenvalues --  5771.076409583.41029**********
           X            0.99931   0.03349   0.01594
           Y           -0.03377   0.99928   0.01749
           Z           -0.01534  -0.01802   0.99972
 This molecule is an asymmetric top.
 Rotational symmetry number  1.
 Warning -- assumption of classical behavior for rotation
           may cause significant error
 Rotational temperatures (Kelvin)      0.01501     0.00904     0.00603
 Rotational constants (GHZ):           0.31272     0.18832     0.12574
 Zero-point vibrational energy     785707.0 (Joules/Mol)
                                  187.78848 (Kcal/Mol)
 Warning -- explicit consideration of  29 degrees of freedom as
           vibrations may cause significant error
 Vibrational temperatures:     38.11    55.25    73.45    97.87   113.57
          (Kelvin)            164.33   194.80   233.76   313.51   351.21
                              353.28   383.15   399.15   439.54   476.24
                              568.14   589.81   593.08   617.94   627.59
                              665.55   673.25   710.05   762.17   773.42
                              789.94   822.82   854.27   884.41   894.01
                              927.62   958.78   986.89  1012.55  1024.18
                             1036.76  1072.58  1077.40  1095.01  1105.53
                             1135.57  1214.20  1218.11  1221.52  1226.53
                             1256.48  1278.43  1308.15  1328.84  1335.02
                             1362.41  1366.20  1375.66  1397.28  1401.99
                             1431.98  1443.65  1472.26  1477.33  1485.30
                             1510.68  1537.27  1553.44  1624.86  1629.15
                             1656.60  1666.70  1670.08  1680.91  1691.48
                             1741.61  1771.07  1792.42  1819.01  1831.94
                             1872.49  1893.33  1914.43  1921.60  1923.66
                             1979.77  2002.67  2075.79  2080.28  2085.95
                             2100.19  2135.00  2161.49  2171.42  2255.23
                             2265.38  2274.83  2291.71  2297.18  2310.28
                             2327.97  4497.31  4503.72  4509.14  4511.30
                             4513.08  4519.86  4521.96  4523.39  4533.59
                             4537.57  4542.73  4546.81  4550.38  4552.63
                             4568.20

 Zero-point correction=                           0.299260 (Hartree/Particle)
 Thermal correction to Energy=                    0.317404
 Thermal correction to Enthalpy=                  0.318348
 Thermal correction to Gibbs Free Energy=         0.252191
 Sum of electronic and zero-point Energies=          -1300.571526
 Sum of electronic and thermal Energies=             -1300.553382
 Sum of electronic and thermal Enthalpies=           -1300.552438
 Sum of electronic and thermal Free Energies=        -1300.618595

                     E (Thermal)             CV                S
                      KCal/Mol        Cal/Mol-Kelvin    Cal/Mol-Kelvin
 Total                  199.174             75.101            139.239
 Electronic               0.000              0.000              0.000
 Translational            0.889              2.981             43.232
 Rotational               0.889              2.981             35.028
 Vibrational            197.397             69.139             60.979
 Vibration     1          0.593              1.985              6.077
 Vibration     2          0.594              1.982              5.340
 Vibration     3          0.595              1.977              4.776
 Vibration     4          0.598              1.969              4.210
 Vibration     5          0.600              1.963              3.917
 Vibration     6          0.607              1.938              3.196
 Vibration     7          0.613              1.918              2.868
 Vibration     8          0.623              1.888              2.521
 Vibration     9          0.646              1.814              1.976
 Vibration    10          0.659              1.773              1.773
 Vibration    11          0.660              1.770              1.762
 Vibration    12          0.672              1.735              1.620
 Vibration    13          0.678              1.715              1.550
 Vibration    14          0.696              1.663              1.387
 Vibration    15          0.713              1.614              1.255
 Vibration    16          0.762              1.481              0.982
 Vibration    17          0.774              1.449              0.927
 Vibration    18          0.776              1.444              0.919
 Vibration    19          0.791              1.406              0.860
 Vibration    20          0.797              1.391              0.839
 Vibration    21          0.820              1.333              0.759
 Vibration    22          0.825              1.321              0.743
 Vibration    23          0.849              1.264              0.675
 Vibration    24          0.885              1.184              0.588
 Vibration    25          0.893              1.167              0.571
 Vibration    26          0.904              1.142              0.546
 Vibration    27          0.928              1.092              0.501
 Vibration    28          0.951              1.045              0.461
 Vibration    29          0.974              1.001              0.425

 Normal termination of Gaussian 09 at Wed Mar 31 11:47:23 2021.
 Gaussian 09:  ES64L-G09RevE.01 30-Nov-2015

 ----------------------------------------------------------------------
 #p TPSSTPSS chkbasis geom=allcheck Guess=Read int=ultrafine scrf=(SMD,
 solvent=n,n-DiMethylAcetamide) td=(NStates=30)
 ----------------------------------------------------------------------

 Structure from the checkpoint file:  "cp.chk"
 -----
 Title
 -----
 Charge =  0 Multiplicity = 1

                         Standard orientation:
 ---------------------------------------------------------------------
 Center     Atomic      Atomic             Coordinates (Angstroms)
 Number     Number       Type             X           Y           Z
 ---------------------------------------------------------------------
      1          6           0       -4.088629   -2.549003   -0.650422
      2          6           0       -2.845977   -3.012201   -0.217936
      3          6           0       -1.812913   -2.117271    0.072624
      4          6           0       -1.986045   -0.729679   -0.109423
      5          6           0       -3.242815   -0.280123   -0.551594
      6          6           0       -4.280485   -1.176841   -0.806628
      7          6           0        0.424325   -0.170986    0.105179
      8          6           0        0.833534   -1.530363    0.290066
      9          6           0        2.160955   -1.891930    0.201401
     10          1           0        2.441534   -2.934644    0.333881
     11          6           0        3.178182   -0.927681   -0.016215
     12          6           0        2.786129    0.442208   -0.158412
     13          6           0        1.409898    0.782406   -0.106865
     14          1           0       -2.674778   -4.077025   -0.080063
     15          1           0       -3.413922    0.781314   -0.690200
     16          1           0       -5.240110   -0.790001   -1.138886
     17          6           0       -1.266410    1.593748    0.177137
     18          6           0       -1.528336    2.209739    1.401863
     19          6           0       -1.316045    2.328390   -1.011337
     20          6           0       -1.843495    3.569858    1.438200
     21          6           0       -1.631035    3.687433   -0.968610
     22          6           0       -1.894777    4.308991    0.254610
     23          1           0       -2.048194    4.049579    2.391626
     24          1           0       -1.670435    4.259856   -1.891564
     25          1           0       -1.484968    1.623493    2.315661
     26          1           0       -1.109863    1.837804   -1.958636
     27          1           0       -2.139891    5.367361    0.284455
     28          1           0       -4.889630   -3.252531   -0.857927
     29          7           0       -0.941516    0.182772    0.166083
     30          1           0        1.138440    1.824750   -0.235428
     31         16           0       -0.332825   -2.755706    0.796417
     32          6           0        3.794000    1.421436   -0.364768
     33          6           0        5.125116    1.059720   -0.431056
     34          1           0        5.886099    1.819505   -0.591025
     35          6           0        4.552530   -1.269886   -0.087358
     36          6           0        5.509198   -0.294981   -0.292197
     37          1           0        6.560578   -0.565297   -0.347103
     38          1           0        4.839984   -2.313366    0.022867
     39          1           0        3.499530    2.463190   -0.472444
 ---------------------------------------------------------------------

 SCF Done:  E(RTPSS-TPSS) =  -1300.87079961     A.U. after    6 cycles

 Excitation energies and oscillator strengths:

 Excited State   1:      Singlet-A      2.8928 eV  428.59 nm  f=0.1123  <S**2>=0.000
      84 -> 87         0.12008
      85 -> 86         0.66675
      85 -> 87        -0.17911
 This state for optimization and/or second-order correction.
 Total Energy, E(TD-HF/TD-KS) =  -1300.76448933
 Copying the excited state density for this state as the 1-particle RhoCI density.

 Excited State   2:      Singlet-A      3.1593 eV  392.44 nm  f=0.0673  <S**2>=0.000
      85 -> 86         0.15905
      85 -> 87         0.66610

 Excited State   3:      Singlet-A      3.3157 eV  373.94 nm  f=0.0028  <S**2>=0.000
      85 -> 88         0.65185
      85 -> 89        -0.25989

 Excited State   4:      Singlet-A      3.4262 eV  361.87 nm  f=0.0125  <S**2>=0.000
      85 -> 88         0.22505
      85 -> 89         0.61241
      85 -> 90         0.24219

 Excited State   5:      Singlet-A      3.6480 eV  339.87 nm  f=0.0564  <S**2>=0.000
      83 -> 86         0.15053
      84 -> 86         0.56060
      84 -> 87         0.16573
      85 -> 89         0.13056
      85 -> 90        -0.30664

 Excited State   6:      Singlet-A      3.6815 eV  336.77 nm  f=0.0280  <S**2>=0.000
      84 -> 86         0.35250
      84 -> 87        -0.27986
      85 -> 89        -0.10805
      85 -> 90         0.48702

 Excited State   7:      Singlet-A      3.8314 eV  323.60 nm  f=0.2818  <S**2>=0.000
      84 -> 87         0.47971
      84 -> 88        -0.36503
      85 -> 89        -0.12486
      85 -> 90         0.27933

 Excited State   8:      Singlet-A      3.9083 eV  317.24 nm  f=0.1017  <S**2>=0.000
      84 -> 87         0.20365
      84 -> 88         0.50291
      84 -> 89        -0.42959

 Excited State   9:      Singlet-A      4.0287 eV  307.75 nm  f=0.3444  <S**2>=0.000
      82 -> 86         0.17060
      84 -> 87         0.25412
      84 -> 88         0.30122
      84 -> 89         0.52565

 Excited State  10:      Singlet-A      4.1742 eV  297.02 nm  f=0.0070  <S**2>=0.000
      83 -> 86        -0.12736
      84 -> 90         0.67235

 Excited State  11:      Singlet-A      4.2432 eV  292.20 nm  f=0.0227  <S**2>=0.000
      82 -> 87         0.11862
      83 -> 86        -0.30138
      83 -> 87         0.11778
      84 -> 90        -0.10890
      85 -> 91         0.57606
      85 -> 92        -0.10953

 Excited State  12:      Singlet-A      4.3496 eV  285.05 nm  f=0.0489  <S**2>=0.000
      82 -> 87         0.10008
      83 -> 86         0.53530
      84 -> 86        -0.11897
      85 -> 91         0.21353
      85 -> 92        -0.32858

 Excited State  13:      Singlet-A      4.4023 eV  281.63 nm  f=0.0392  <S**2>=0.000
      82 -> 86         0.11310
      82 -> 87         0.12777
      83 -> 86         0.21423
      85 -> 91         0.20804
      85 -> 92         0.59226

 Excited State  14:      Singlet-A      4.5334 eV  273.49 nm  f=0.0177  <S**2>=0.000
      81 -> 86         0.63857
      82 -> 86         0.26913
      84 -> 91        -0.10635

 Excited State  15:      Singlet-A      4.5871 eV  270.29 nm  f=0.0577  <S**2>=0.000
      81 -> 86         0.25844
      82 -> 86        -0.38102
      84 -> 91         0.48838
      85 -> 93         0.11654

 Excited State  16:      Singlet-A      4.6109 eV  268.89 nm  f=0.0072  <S**2>=0.000
      82 -> 86         0.12420
      83 -> 87        -0.21526
      85 -> 93         0.64235

 Excited State  17:      Singlet-A      4.6398 eV  267.22 nm  f=0.0174  <S**2>=0.000
      80 -> 86         0.62848
      82 -> 86        -0.11800
      84 -> 91        -0.20935

 Excited State  18:      Singlet-A      4.6737 eV  265.28 nm  f=0.3229  <S**2>=0.000
      80 -> 86        -0.21114
      82 -> 86        -0.19453
      83 -> 87         0.53772
      84 -> 91        -0.15191
      85 -> 93         0.22170

 Excited State  19:      Singlet-A      4.8382 eV  256.26 nm  f=0.0217  <S**2>=0.000
      83 -> 88         0.65465
      83 -> 89        -0.17993

 Excited State  20:      Singlet-A      4.9209 eV  251.95 nm  f=0.0072  <S**2>=0.000
      80 -> 87        -0.17499
      81 -> 87         0.58766
      81 -> 88         0.16764
      82 -> 87         0.26764

 Excited State  21:      Singlet-A      4.9371 eV  251.13 nm  f=0.0429  <S**2>=0.000
      79 -> 86         0.12059
      82 -> 86        -0.10446
      83 -> 87        -0.11565
      83 -> 89         0.54596
      83 -> 90         0.27325
      84 -> 91        -0.13098
      84 -> 92         0.14240

 Excited State  22:      Singlet-A      4.9587 eV  250.03 nm  f=0.0035  <S**2>=0.000
      79 -> 86         0.30816
      80 -> 87         0.18593
      83 -> 89        -0.14521
      83 -> 90        -0.13850
      84 -> 92         0.54935

 Excited State  23:      Singlet-A      4.9784 eV  249.04 nm  f=0.1001  <S**2>=0.000
      79 -> 86        -0.11715
      80 -> 87         0.49458
      81 -> 87         0.24602
      81 -> 89         0.10263
      82 -> 86        -0.11610
      82 -> 87        -0.23793
      84 -> 91        -0.10608
      84 -> 92        -0.18070

 Excited State  24:      Singlet-A      5.0517 eV  245.43 nm  f=0.0359  <S**2>=0.000
      80 -> 87        -0.26585
      82 -> 87        -0.28698
      82 -> 88         0.52497
      82 -> 89         0.10026
      82 -> 90         0.11142

 Excited State  25:      Singlet-A      5.1202 eV  242.15 nm  f=0.0248  <S**2>=0.000
      80 -> 87        -0.14424
      80 -> 88        -0.10963
      80 -> 89         0.10090
      81 -> 89        -0.11297
      82 -> 87        -0.14850
      82 -> 88        -0.28906
      82 -> 89         0.51411
      84 -> 93         0.22566

 Excited State  26:      Singlet-A      5.1623 eV  240.17 nm  f=0.0157  <S**2>=0.000
      82 -> 87         0.11998
      82 -> 89        -0.18516
      82 -> 90        -0.18653
      84 -> 93         0.60395

 Excited State  27:      Singlet-A      5.2107 eV  237.94 nm  f=0.2127  <S**2>=0.000
      78 -> 86         0.20957
      79 -> 86         0.14558
      82 -> 86         0.22089
      82 -> 87        -0.13600
      82 -> 88        -0.15196
      82 -> 89        -0.13915
      82 -> 90         0.30226
      83 -> 87         0.15615
      83 -> 90         0.20106
      84 -> 91         0.22589
      84 -> 93         0.21279

 Excited State  28:      Singlet-A      5.2302 eV  237.06 nm  f=0.0428  <S**2>=0.000
      80 -> 88        -0.37338
      80 -> 89        -0.18051
      81 -> 89         0.46239
      82 -> 88         0.10044
      82 -> 89         0.16075
      83 -> 90        -0.10580

 Excited State  29:      Singlet-A      5.2944 eV  234.18 nm  f=0.0295  <S**2>=0.000
      80 -> 88        -0.10467
      80 -> 89        -0.18838
      80 -> 90         0.16798
      81 -> 88        -0.26642
      81 -> 89        -0.31174
      81 -> 90         0.34603
      83 -> 89         0.14654
      83 -> 90        -0.22810

 Excited State  30:      Singlet-A      5.3463 eV  231.90 nm  f=0.0389  <S**2>=0.000
      78 -> 86        -0.20107
      80 -> 88        -0.29501
      80 -> 90        -0.16527
      81 -> 88        -0.19435
      81 -> 90         0.32577
      82 -> 90         0.11264
      83 -> 89        -0.17319
      83 -> 90         0.26954
      83 -> 91         0.12537

 The electronic state is 1-A.
 Alpha  occ. eigenvalues --  -88.37016 -14.14742 -10.04388 -10.04187 -10.03094
 Alpha  occ. eigenvalues --  -10.02763 -10.02321  -9.99894  -9.99696  -9.99503
 Alpha  occ. eigenvalues --   -9.99460  -9.99436  -9.99401  -9.99310  -9.99290
 Alpha  occ. eigenvalues --   -9.99213  -9.98943  -9.98835  -9.98768  -9.98748
 Alpha  occ. eigenvalues --   -9.98647  -9.98603  -9.98494  -9.98488  -7.75033
 Alpha  occ. eigenvalues --   -5.73099  -5.72696  -5.72079  -0.91361  -0.81677
 Alpha  occ. eigenvalues --   -0.80758  -0.79096  -0.77412  -0.73747  -0.71714
 Alpha  occ. eigenvalues --   -0.70061  -0.69612  -0.69388  -0.68561  -0.65592
 Alpha  occ. eigenvalues --   -0.63473  -0.59090  -0.58052  -0.56451  -0.56172
 Alpha  occ. eigenvalues --   -0.54846  -0.53920  -0.52692  -0.49859  -0.48926
 Alpha  occ. eigenvalues --   -0.46238  -0.45475  -0.45219  -0.42644  -0.42117
 Alpha  occ. eigenvalues --   -0.41878  -0.40920  -0.40422  -0.39921  -0.39015
 Alpha  occ. eigenvalues --   -0.38664  -0.38391  -0.37859  -0.37304  -0.36936
 Alpha  occ. eigenvalues --   -0.35490  -0.35359  -0.33829  -0.33035  -0.32558
 Alpha  occ. eigenvalues --   -0.32220  -0.32079  -0.31281  -0.30328  -0.29855
 Alpha  occ. eigenvalues --   -0.29037  -0.28672  -0.26860  -0.25749  -0.23846
 Alpha  occ. eigenvalues --   -0.23538  -0.23202  -0.22300  -0.18848  -0.16737
 Alpha virt. eigenvalues --   -0.06866  -0.05562  -0.04594  -0.04390  -0.03685
 Alpha virt. eigenvalues --   -0.02016  -0.01007   0.00036   0.03761   0.04441
 Alpha virt. eigenvalues --    0.05594   0.05827   0.06399   0.06608   0.07470

 Mulliken charges:
               1
     1  C   -0.175449
     2  C   -0.177872
     3  C   -0.027431
     4  C    0.209462
     5  C   -0.247571
     6  C   -0.147562
     7  C    0.198254
     8  C    0.051731
     9  C   -0.325822
    10  H    0.125989
    11  C    0.155431
    12  C    0.180881
    13  C   -0.347330
    14  H    0.138916
    15  H    0.157117
    16  H    0.140951
    17  C    0.043942
    18  C   -0.180480
    19  C   -0.170699
    20  C   -0.118037
    21  C   -0.098758
    22  C   -0.116465
    23  H    0.141992
    24  H    0.143297
    25  H    0.134624
    26  H    0.128473
    27  H    0.144635
    28  H    0.140635
    29  N    0.064507
    30  H    0.158836
    31  S   -0.097231
    32  C   -0.269543
    33  C   -0.129009
    34  H    0.138122
    35  C   -0.242211
    36  C   -0.129665
    37  H    0.139523
    38  H    0.134401
    39  H    0.129417
 Sum of Mulliken charges =  -0.00000

 Dipole moment (field-independent basis, Debye):
    X=             -1.4550    Y=              3.2376    Z=             -0.7271  Tot=              3.6232
 Quadrupole moment (field-independent basis, Debye-Ang):
   XX=           -132.7168   YY=           -125.9611   ZZ=           -146.1301
   XY=             -4.6677   XZ=              1.2449   YZ=             -0.7120

 Normal termination of Gaussian 09 at Wed Mar 31 14:12:42 2021.
