                         Program Version 5.0.2 -  RELEASE  -
|  1> %maxcore 3200
|  2> %pal
|  3>  nprocs= 8
|  4> end
|  5> ! RI-B2PLYP D3BJ def2-TZVP def2/J def2-TZVP/C RIJCOSX CPCM TightSCF
|  6> %TDDFT DCORR 4
|  7>    NROOTS   30
|  8>
|  9>    TDA      FALSE
| 10> END
| 11>
| 12> %CPCM
| 13>    SMD          TRUE
| 14>    SMDsolvent   "N,N-DIMETHYLACETAMIDE"
| 15> END
| 16>
| 17>
| 18> * xyz 0 1
| 19> C                  -4.14164500   -2.46300300   -0.56122300
| 20> C                  -2.89708500   -2.95154600   -0.19768700
| 21> C                  -1.83913000   -2.08903100    0.05976900
| 22> C                  -1.99528000   -0.70233100   -0.08283000
| 23> C                  -3.25710800   -0.22754800   -0.45352000
| 24> C                  -4.31455600   -1.09428700   -0.67966000
| 25> C                   0.41700400   -0.18324600    0.09852000
| 26> C                   0.81220500   -1.54358300    0.24579400
| 27> C                   2.13131000   -1.90558200    0.16175400
| 28> H                   2.40302700   -2.94963600    0.26866100
| 29> C                   3.15250100   -0.95178300   -0.02213500
| 30> C                   2.77399800    0.41534500   -0.13410200
| 31> C                   1.40783600    0.75982700   -0.08143300
| 32> H                  -2.73900100   -4.01780900   -0.08879900
| 33> H                  -3.41728400    0.83556000   -0.55946400
| 34> H                  -5.27746600   -0.68515600   -0.95746300
| 35> C                  -1.23144600    1.58988300    0.16316500
| 36> C                  -1.44230800    2.22989500    1.37461000
| 37> C                  -1.29856100    2.29933200   -1.02962300
| 38> C                  -1.72374300    3.58887100    1.39341800
| 39> C                  -1.58055900    3.65594100   -1.00535400
| 40> C                  -1.79283600    4.30168800    0.20560300
| 41> H                  -1.88892500    4.08963000    2.33891500
| 42> H                  -1.63400600    4.21032700   -1.93372400
| 43> H                  -1.38401700    1.65956000    2.29339900
| 44> H                  -1.12920200    1.78246900   -1.96665700
| 45> H                  -2.01234100    5.36168000    0.22205000
| 46> H                  -4.96006700   -3.14611200   -0.74507900
| 47> N                  -0.93473300    0.18458300    0.16055300
| 48> H                   1.14872200    1.80453300   -0.18323800
| 49> S                  -0.35150300   -2.78066700    0.68072400
| 50> C                   3.78441900    1.38479100   -0.30855900
| 51> C                   5.10510400    1.01852700   -0.37283600
| 52> H                   5.86911900    1.77393600   -0.50867400
| 53> C                   4.51657300   -1.29854500   -0.09042200
| 54> C                   5.47596700   -0.33279500   -0.26364900
| 55> H                   6.52151700   -0.60905100   -0.31653600
| 56> H                   4.79358000   -2.34290800   -0.00327500
| 57> H                   3.49757800    2.42665300   -0.39316800
| 58> *
| 59>
| 60>
| 61>                          ****END OF INPUT****

CARTESIAN COORDINATES (ANGSTROEM)
---------------------------------
  C     -4.141645   -2.463003   -0.561223
  C     -2.897085   -2.951546   -0.197687
  C     -1.839130   -2.089031    0.059769
  C     -1.995280   -0.702331   -0.082830
  C     -3.257108   -0.227548   -0.453520
  C     -4.314556   -1.094287   -0.679660
  C      0.417004   -0.183246    0.098520
  C      0.812205   -1.543583    0.245794
  C      2.131310   -1.905582    0.161754
  H      2.403027   -2.949636    0.268661
  C      3.152501   -0.951783   -0.022135
  C      2.773998    0.415345   -0.134102
  C      1.407836    0.759827   -0.081433
  H     -2.739001   -4.017809   -0.088799
  H     -3.417284    0.835560   -0.559464
  H     -5.277466   -0.685156   -0.957463
  C     -1.231446    1.589883    0.163165
  C     -1.442308    2.229895    1.374610
  C     -1.298561    2.299332   -1.029623
  C     -1.723743    3.588871    1.393418
  C     -1.580559    3.655941   -1.005354
  C     -1.792836    4.301688    0.205603
  H     -1.888925    4.089630    2.338915
  H     -1.634006    4.210327   -1.933724
  H     -1.384017    1.659560    2.293399
  H     -1.129202    1.782469   -1.966657
  H     -2.012341    5.361680    0.222050
  H     -4.960067   -3.146112   -0.745079
  N     -0.934733    0.184583    0.160553
  H      1.148722    1.804533   -0.183238
  S     -0.351503   -2.780667    0.680724
  C      3.784419    1.384791   -0.308559
  C      5.105104    1.018527   -0.372836
  H      5.869119    1.773936   -0.508674
  C      4.516573   -1.298545   -0.090422
  C      5.475967   -0.332795   -0.263649
  H      6.521517   -0.609051   -0.316536
  H      4.793580   -2.342908   -0.003275
  H      3.497578    2.426653   -0.393168

 Total Charge           Charge          ....    0
 Multiplicity           Mult            ....    1
 Number of Electrons    NEL             ....  170
 Basis Dimension        Dim             ....  840

ORBITAL ENERGIES
----------------

  NO   OCC          E(Eh)            E(eV)
   0   2.0000     -90.166232     -2453.5479
   1   2.0000     -14.878042      -404.8521
   2   2.0000     -10.677097      -290.5386
   3   2.0000     -10.674994      -290.4814
   4   2.0000     -10.657413      -290.0029
   5   2.0000     -10.657126      -289.9951
   6   2.0000     -10.651789      -289.8499
   7   2.0000     -10.627892      -289.1996
   8   2.0000     -10.625018      -289.1214
   9   2.0000     -10.624006      -289.0939
  10   2.0000     -10.622533      -289.0538
  11   2.0000     -10.619966      -288.9840
  12   2.0000     -10.619880      -288.9816
  13   2.0000     -10.619213      -288.9635
  14   2.0000     -10.618867      -288.9541
  15   2.0000     -10.618118      -288.9337
  16   2.0000     -10.616857      -288.8994
  17   2.0000     -10.616190      -288.8812
  18   2.0000     -10.615247      -288.8556
  19   2.0000     -10.614992      -288.8486
  20   2.0000     -10.613912      -288.8192
  21   2.0000     -10.613387      -288.8049
  22   2.0000     -10.612593      -288.7833
  23   2.0000     -10.611570      -288.7555
  24   2.0000      -8.371932      -227.8119
  25   2.0000      -6.218669      -169.2186
  26   2.0000      -6.215999      -169.1459
  27   2.0000      -6.213090      -169.0668
  28   2.0000      -1.116201       -30.3734
  29   2.0000      -1.009405       -27.4673
  30   2.0000      -0.997252       -27.1366
  31   2.0000      -0.978226       -26.6189
  32   2.0000      -0.957999       -26.0685
  33   2.0000      -0.914561       -24.8865
  34   2.0000      -0.893014       -24.3001
  35   2.0000      -0.872298       -23.7364
  36   2.0000      -0.866427       -23.5767
  37   2.0000      -0.865002       -23.5379
  38   2.0000      -0.855044       -23.2669
  39   2.0000      -0.820402       -22.3243
  40   2.0000      -0.792462       -21.5640
  41   2.0000      -0.738547       -20.0969
  42   2.0000      -0.728743       -19.8301
  43   2.0000      -0.708997       -19.2928
  44   2.0000      -0.706767       -19.2321
  45   2.0000      -0.690221       -18.7819
  46   2.0000      -0.678241       -18.4559
  47   2.0000      -0.666340       -18.1320
  48   2.0000      -0.626856       -17.0576
  49   2.0000      -0.615890       -16.7592
  50   2.0000      -0.587505       -15.9868
  51   2.0000      -0.578338       -15.7374
  52   2.0000      -0.573449       -15.6043
  53   2.0000      -0.549513       -14.9530
  54   2.0000      -0.541286       -14.7291
  55   2.0000      -0.538482       -14.6528
  56   2.0000      -0.526497       -14.3267
  57   2.0000      -0.520047       -14.1512
  58   2.0000      -0.512856       -13.9555
  59   2.0000      -0.503743       -13.7075
  60   2.0000      -0.499442       -13.5905
  61   2.0000      -0.495992       -13.4966
  62   2.0000      -0.488248       -13.2859
  63   2.0000      -0.485457       -13.2100
  64   2.0000      -0.480232       -13.0678
  65   2.0000      -0.460881       -12.5412
  66   2.0000      -0.455427       -12.3928
  67   2.0000      -0.436544       -11.8790
  68   2.0000      -0.434499       -11.8233
  69   2.0000      -0.425808       -11.5868
  70   2.0000      -0.423083       -11.5127
  71   2.0000      -0.420035       -11.4297
  72   2.0000      -0.410299       -11.1648
  73   2.0000      -0.404901       -11.0179
  74   2.0000      -0.395949       -10.7743
  75   2.0000      -0.385345       -10.4858
  76   2.0000      -0.376872       -10.2552
  77   2.0000      -0.348817        -9.4918
  78   2.0000      -0.331693        -9.0258
  79   2.0000      -0.301331        -8.1996
  80   2.0000      -0.296715        -8.0740
  81   2.0000      -0.293238        -7.9794
  82   2.0000      -0.285835        -7.7780
  83   2.0000      -0.241882        -6.5819
  84   2.0000      -0.220659        -6.0044
  85   0.0000       0.003244         0.0883
  86   0.0000       0.018213         0.4956
  87   0.0000       0.032016         0.8712
  88   0.0000       0.036086         0.9820
  89   0.0000       0.044575         1.2130

MULLIKEN ATOMIC CHARGES
-----------------------
   0 C :   -0.202043
   1 C :   -0.165092
   2 C :   -0.097504
   3 C :    0.250048
   4 C :   -0.283130
   5 C :   -0.161201
   6 C :    0.186035
   7 C :   -0.001317
   8 C :   -0.278122
   9 H :    0.154139
  10 C :    0.090799
  11 C :    0.150415
  12 C :   -0.323021
  13 H :    0.158038
  14 H :    0.176409
  15 H :    0.158654
  16 C :    0.175277
  17 C :   -0.242506
  18 C :   -0.260123
  19 C :   -0.119268
  20 C :   -0.112719
  21 C :   -0.143292
  22 H :    0.159518
  23 H :    0.160184
  24 H :    0.157133
  25 H :    0.157764
  26 H :    0.160554
  27 H :    0.157560
  28 N :   -0.015251
  29 H :    0.179033
  30 S :   -0.030145
  31 C :   -0.277534
  32 C :   -0.153658
  33 H :    0.155832
  34 C :   -0.235188
  35 C :   -0.150796
  36 H :    0.157020
  37 H :    0.155125
  38 H :    0.152374
Sum of atomic charges:    0.0000000

LOEWDIN ATOMIC CHARGES
----------------------
   0 C :   -0.163011
   1 C :   -0.149888
   2 C :   -0.342768
   3 C :   -0.156562
   4 C :   -0.120380
   5 C :   -0.146187
   6 C :   -0.154460
   7 C :   -0.333546
   8 C :   -0.106748
   9 H :    0.158610
  10 C :   -0.111464
  11 C :   -0.103402
  12 C :   -0.085531
  13 H :    0.153358
  14 H :    0.162126
  15 H :    0.152965
  16 C :   -0.170267
  17 C :   -0.100096
  18 C :   -0.101828
  19 C :   -0.136944
  20 C :   -0.138080
  21 C :   -0.138372
  22 H :    0.152832
  23 H :    0.152880
  24 H :    0.158619
  25 H :    0.160419
  26 H :    0.152105
  27 H :    0.150662
  28 N :    0.275252
  29 H :    0.166185
  30 S :    0.673514
  31 C :   -0.110267
  32 C :   -0.148729
  33 H :    0.150816
  34 C :   -0.106696
  35 C :   -0.154883
  36 H :    0.150084
  37 H :    0.155228
  38 H :    0.154455

  Mayer bond orders larger than 0.100000
B(  0-C ,  1-C ) :   1.3976 B(  0-C ,  5-C ) :   1.3976 B(  0-C , 27-H ) :   0.9850
B(  1-C ,  2-C ) :   1.3479 B(  1-C , 13-H ) :   0.9791 B(  2-C ,  3-C ) :   1.2544
B(  2-C , 30-S ) :   1.1137 B(  3-C ,  4-C ) :   1.3367 B(  3-C , 28-N ) :   1.0977
B(  4-C ,  5-C ) :   1.4104 B(  4-C , 14-H ) :   0.9639 B(  5-C , 15-H ) :   0.9804
B(  6-C ,  7-C ) :   1.1469 B(  6-C , 12-C ) :   1.4602 B(  6-C , 28-N ) :   1.1255
B(  7-C ,  8-C ) :   1.4647 B(  7-C , 30-S ) :   1.1063 B(  8-C ,  9-H ) :   0.9885
B(  8-C , 10-C ) :   1.2214 B( 10-C , 11-C ) :   1.2654 B( 10-C , 34-C ) :   1.2403
B( 11-C , 12-C ) :   1.2234 B( 11-C , 31-C ) :   1.2271 B( 12-C , 29-H ) :   0.9574
B( 16-C , 17-C ) :   1.4604 B( 16-C , 18-C ) :   1.4083 B( 16-C , 28-N ) :   0.7169
B( 17-C , 19-C ) :   1.4177 B( 17-C , 24-H ) :   0.9840 B( 18-C , 20-C ) :   1.4053
B( 18-C , 25-H ) :   0.9891 B( 19-C , 21-C ) :   1.3994 B( 19-C , 22-H ) :   0.9796
B( 20-C , 21-C ) :   1.3859 B( 20-C , 23-H ) :   0.9768 B( 21-C , 26-H ) :   0.9756
B( 31-C , 32-C ) :   1.5421 B( 31-C , 38-H ) :   0.9878 B( 32-C , 33-H ) :   0.9830
B( 32-C , 35-C ) :   1.2576 B( 34-C , 35-C ) :   1.5255 B( 34-C , 37-H ) :   0.9869
B( 35-C , 36-H ) :   0.9816

MP2 TOTAL ENERGY:    -1299.768584116 Eh

-----------------------------------------------------------------------------
         ABSORPTION SPECTRUM VIA TRANSITION ELECTRIC DIPOLE MOMENTS
-----------------------------------------------------------------------------
State   Energy    Wavelength  fosc         T2        TX        TY        TZ
        (cm-1)      (nm)                 (au**2)    (au)      (au)      (au)
-----------------------------------------------------------------------------
   1   26989.0    370.5   0.121834271   1.48613   1.09687   0.51611  -0.12901
   2   29377.1    340.4   0.078653220   0.88142   0.69874   0.62394  -0.06227
   3   33449.5    299.0   0.051850213   0.51031  -0.61566   0.33966   0.12610
   4   32425.2    308.4   0.119452846   1.21280  -1.02201   0.36208  -0.19288
   5   35274.9    283.5   1.279603865  11.94224  -3.40044  -0.61370   0.05084
   6   33632.4    297.3   0.021345334   0.20894  -0.45594   0.01685  -0.02779
   7   36107.0    277.0   0.059026717   0.53819  -0.71961   0.12416  -0.07019
   8   39925.7    250.5   0.064159254   0.52903   0.71862   0.10529  -0.03921
   9   40729.8    245.5   0.166768571   1.34796  -0.81685   0.80461  -0.18255
  10   41821.3    239.1   0.013754430   0.10827   0.25010   0.18402   0.10891
  11   40811.0    245.0   0.405531071   3.27131   1.23274   1.31613   0.13954
  12   41357.3    241.8   0.134732033   1.07249   0.84174  -0.59899  -0.07192
  13   43412.6    230.3   0.112296928   0.85158   0.80107  -0.45057   0.08286
  14   47329.4    211.3   0.019632555   0.13656   0.08202  -0.35627   0.05387
  15   41895.6    238.7   0.046814536   0.36786   0.59833  -0.04612   0.08800
  16   42640.9    234.5   0.037906477   0.29266  -0.17292   0.49829   0.12028
  17   43294.7    231.0   0.108259702   0.82320  -0.85132   0.28067   0.14030
  18   44637.8    224.0   0.087108968   0.64244   0.69354   0.10146  -0.38878
  19   46330.9    215.8   0.229243915   1.62893   0.79275   0.99790  -0.06828
  20   48595.1    205.8   0.020969396   0.14206   0.03966   0.34842  -0.13818
  21   46578.3    214.7   0.084253073   0.59549  -0.60200   0.48152  -0.03496
  22   46212.3    216.4   0.231356586   1.64816   0.55614   1.14980  -0.12972
  23   46671.5    214.3   0.032151912   0.22679  -0.11313  -0.03662  -0.46115
  24   48280.5    207.1   0.414662401   2.82748  -0.52513   1.59696   0.03776
  25   47573.7    210.2   0.002365250   0.01637   0.04105   0.00368  -0.12111
  26   47171.1    212.0   0.101974675   0.71169  -0.06188   0.84090   0.02733
  27   50031.5    199.9   0.178345442   1.17353   0.05843  -0.34623   1.02481
  28   50457.5    198.2   0.199188320   1.29961  -0.23770  -0.02312   1.11471
  29   50201.1    199.2   0.159252164   1.04435  -0.34334  -0.91883  -0.28675
  30   51460.1    194.3   0.202528306   1.29566   0.03586   1.12707   0.15518

Dispersion correction           -0.050024711
FINAL SINGLE POINT ENERGY     -1298.451220597537

DIPOLE MOMENT
-------------
                                X             Y             Z
Electronic contribution:     -0.23181      -8.87564       2.20717
Nuclear contribution   :     -0.19956      10.08607      -2.50481
                        -----------------------------------------
Total Dipole Moment    :     -0.43137       1.21043      -0.29764
                        -----------------------------------------
Magnitude (a.u.)       :      1.31902
Magnitude (Debye)      :      3.35267

Rotational constants in cm-1:     0.010608     0.006356     0.004225
Rotational constants in MHz :   318.005228   190.553560   126.647559

                             ****ORCA TERMINATED NORMALLY****
TOTAL RUN TIME: 0 days 0 hours 37 minutes 51 seconds 385 msec
