                         Program Version 5.0.2 -  RELEASE  -
|  1> %maxcore 20000
|  2> %pal
|  3>  nprocs= 4
|  4> end
|  5> ! RI-wPBEPP86   def2-TZVP def2/J def2-TZVP/C RIJCOSX CPCM TightSCF
|  6> %TDDFT
|  7>    NROOTS   30
|  8>    dcorr 1
|  9>    TDA      FALSE
| 10> END
| 11>
| 12> %CPCM
| 13>    SMD          TRUE
| 14>    SMDsolvent   "N,N-DIMETHYLACETAMIDE"
| 15> END
| 16>
| 17>
| 18> * xyz 0 1
| 19> C                  -4.14164500   -2.46300300   -0.56122300
| 20> C                  -2.89708500   -2.95154600   -0.19768700
| 21> C                  -1.83913000   -2.08903100    0.05976900
| 22> C                  -1.99528000   -0.70233100   -0.08283000
| 23> C                  -3.25710800   -0.22754800   -0.45352000
| 24> C                  -4.31455600   -1.09428700   -0.67966000
| 25> C                   0.41700400   -0.18324600    0.09852000
| 26> C                   0.81220500   -1.54358300    0.24579400
| 27> C                   2.13131000   -1.90558200    0.16175400
| 28> H                   2.40302700   -2.94963600    0.26866100
| 29> C                   3.15250100   -0.95178300   -0.02213500
| 30> C                   2.77399800    0.41534500   -0.13410200
| 31> C                   1.40783600    0.75982700   -0.08143300
| 32> H                  -2.73900100   -4.01780900   -0.08879900
| 33> H                  -3.41728400    0.83556000   -0.55946400
| 34> H                  -5.27746600   -0.68515600   -0.95746300
| 35> C                  -1.23144600    1.58988300    0.16316500
| 36> C                  -1.44230800    2.22989500    1.37461000
| 37> C                  -1.29856100    2.29933200   -1.02962300
| 38> C                  -1.72374300    3.58887100    1.39341800
| 39> C                  -1.58055900    3.65594100   -1.00535400
| 40> C                  -1.79283600    4.30168800    0.20560300
| 41> H                  -1.88892500    4.08963000    2.33891500
| 42> H                  -1.63400600    4.21032700   -1.93372400
| 43> H                  -1.38401700    1.65956000    2.29339900
| 44> H                  -1.12920200    1.78246900   -1.96665700
| 45> H                  -2.01234100    5.36168000    0.22205000
| 46> H                  -4.96006700   -3.14611200   -0.74507900
| 47> N                  -0.93473300    0.18458300    0.16055300
| 48> H                   1.14872200    1.80453300   -0.18323800
| 49> S                  -0.35150300   -2.78066700    0.68072400
| 50> C                   3.78441900    1.38479100   -0.30855900
| 51> C                   5.10510400    1.01852700   -0.37283600
| 52> H                   5.86911900    1.77393600   -0.50867400
| 53> C                   4.51657300   -1.29854500   -0.09042200
| 54> C                   5.47596700   -0.33279500   -0.26364900
| 55> H                   6.52151700   -0.60905100   -0.31653600
| 56> H                   4.79358000   -2.34290800   -0.00327500
| 57> H                   3.49757800    2.42665300   -0.39316800
| 58> *
| 59>
| 60>
| 61>                          ****END OF INPUT****

CARTESIAN COORDINATES (ANGSTROEM)
---------------------------------
  C     -4.141645   -2.463003   -0.561223
  C     -2.897085   -2.951546   -0.197687
  C     -1.839130   -2.089031    0.059769
  C     -1.995280   -0.702331   -0.082830
  C     -3.257108   -0.227548   -0.453520
  C     -4.314556   -1.094287   -0.679660
  C      0.417004   -0.183246    0.098520
  C      0.812205   -1.543583    0.245794
  C      2.131310   -1.905582    0.161754
  H      2.403027   -2.949636    0.268661
  C      3.152501   -0.951783   -0.022135
  C      2.773998    0.415345   -0.134102
  C      1.407836    0.759827   -0.081433
  H     -2.739001   -4.017809   -0.088799
  H     -3.417284    0.835560   -0.559464
  H     -5.277466   -0.685156   -0.957463
  C     -1.231446    1.589883    0.163165
  C     -1.442308    2.229895    1.374610
  C     -1.298561    2.299332   -1.029623
  C     -1.723743    3.588871    1.393418
  C     -1.580559    3.655941   -1.005354
  C     -1.792836    4.301688    0.205603
  H     -1.888925    4.089630    2.338915
  H     -1.634006    4.210327   -1.933724
  H     -1.384017    1.659560    2.293399
  H     -1.129202    1.782469   -1.966657
  H     -2.012341    5.361680    0.222050
  H     -4.960067   -3.146112   -0.745079
  N     -0.934733    0.184583    0.160553
  H      1.148722    1.804533   -0.183238
  S     -0.351503   -2.780667    0.680724
  C      3.784419    1.384791   -0.308559
  C      5.105104    1.018527   -0.372836
  H      5.869119    1.773936   -0.508674
  C      4.516573   -1.298545   -0.090422
  C      5.475967   -0.332795   -0.263649
  H      6.521517   -0.609051   -0.316536
  H      4.793580   -2.342908   -0.003275
  H      3.497578    2.426653   -0.393168

 Total Charge           Charge          ....    0
 Multiplicity           Mult            ....    1
 Number of Electrons    NEL             ....  170
 Basis Dimension        Dim             ....  840

ORBITAL ENERGIES
----------------

  NO   OCC          E(Eh)            E(eV)
   0   2.0000     -90.844055     -2471.9924
   1   2.0000     -15.174135      -412.9092
   2   2.0000     -10.932481      -297.4879
   3   2.0000     -10.929939      -297.4188
   4   2.0000     -10.912351      -296.9402
   5   2.0000     -10.910408      -296.8873
   6   2.0000     -10.906375      -296.7775
   7   2.0000     -10.881822      -296.1094
   8   2.0000     -10.878387      -296.0159
   9   2.0000     -10.877504      -295.9919
  10   2.0000     -10.875305      -295.9321
  11   2.0000     -10.871353      -295.8246
  12   2.0000     -10.871306      -295.8233
  13   2.0000     -10.870496      -295.8012
  14   2.0000     -10.870023      -295.7884
  15   2.0000     -10.869290      -295.7684
  16   2.0000     -10.869196      -295.7659
  17   2.0000     -10.868579      -295.7491
  18   2.0000     -10.867210      -295.7118
  19   2.0000     -10.867148      -295.7101
  20   2.0000     -10.865873      -295.6754
  21   2.0000     -10.865836      -295.6744
  22   2.0000     -10.864248      -295.6312
  23   2.0000     -10.862962      -295.5962
  24   2.0000      -8.637711      -235.0441
  25   2.0000      -6.419093      -174.6724
  26   2.0000      -6.416924      -174.6134
  27   2.0000      -6.414856      -174.5571
  28   2.0000      -1.233422       -33.5631
  29   2.0000      -1.122867       -30.5548
  30   2.0000      -1.109131       -30.1810
  31   2.0000      -1.089096       -29.6358
  32   2.0000      -1.067249       -29.0413
  33   2.0000      -1.020955       -27.7816
  34   2.0000      -0.999258       -27.1912
  35   2.0000      -0.976551       -26.5733
  36   2.0000      -0.970020       -26.3956
  37   2.0000      -0.968890       -26.3648
  38   2.0000      -0.958150       -26.0726
  39   2.0000      -0.921566       -25.0771
  40   2.0000      -0.890495       -24.2316
  41   2.0000      -0.832590       -22.6559
  42   2.0000      -0.822533       -22.3823
  43   2.0000      -0.801268       -21.8036
  44   2.0000      -0.799105       -21.7448
  45   2.0000      -0.781639       -21.2695
  46   2.0000      -0.768195       -20.9036
  47   2.0000      -0.756100       -20.5745
  48   2.0000      -0.712360       -19.3843
  49   2.0000      -0.700587       -19.0639
  50   2.0000      -0.670923       -18.2568
  51   2.0000      -0.661297       -17.9948
  52   2.0000      -0.655414       -17.8347
  53   2.0000      -0.631581       -17.1862
  54   2.0000      -0.622024       -16.9261
  55   2.0000      -0.618031       -16.8175
  56   2.0000      -0.605617       -16.4797
  57   2.0000      -0.598568       -16.2879
  58   2.0000      -0.590540       -16.0694
  59   2.0000      -0.580604       -15.7990
  60   2.0000      -0.576395       -15.6845
  61   2.0000      -0.572368       -15.5749
  62   2.0000      -0.565768       -15.3953
  63   2.0000      -0.561472       -15.2784
  64   2.0000      -0.555706       -15.1215
  65   2.0000      -0.535754       -14.5786
  66   2.0000      -0.532016       -14.4769
  67   2.0000      -0.510520       -13.8920
  68   2.0000      -0.506730       -13.7888
  69   2.0000      -0.498388       -13.5618
  70   2.0000      -0.494546       -13.4573
  71   2.0000      -0.492154       -13.3922
  72   2.0000      -0.481519       -13.1028
  73   2.0000      -0.475145       -12.9294
  74   2.0000      -0.465508       -12.6671
  75   2.0000      -0.455164       -12.3856
  76   2.0000      -0.445921       -12.1341
  77   2.0000      -0.416350       -11.3295
  78   2.0000      -0.396379       -10.7860
  79   2.0000      -0.360966        -9.8224
  80   2.0000      -0.355895        -9.6844
  81   2.0000      -0.351827        -9.5737
  82   2.0000      -0.344963        -9.3869
  83   2.0000      -0.297108        -8.0847
  84   2.0000      -0.276407        -7.5214
  85   0.0000       0.036059         0.9812
  86   0.0000       0.051326         1.3967
  87   0.0000       0.067322         1.8319
  88   0.0000       0.073070         1.9883
  89   0.0000       0.081913         2.2290

MULLIKEN ATOMIC CHARGES
-----------------------
   0 C :   -0.237659
   1 C :   -0.170092
   2 C :   -0.155621
   3 C :    0.295353
   4 C :   -0.329702
   5 C :   -0.177768
   6 C :    0.223043
   7 C :   -0.067326
   8 C :   -0.276291
   9 H :    0.190540
  10 C :    0.065492
  11 C :    0.156075
  12 C :   -0.360925
  13 H :    0.189440
  14 H :    0.205022
  15 H :    0.187169
  16 C :    0.075225
  17 C :   -0.254201
  18 C :   -0.287305
  19 C :   -0.138603
  20 C :   -0.124291
  21 C :   -0.169513
  22 H :    0.188075
  23 H :    0.188733
  24 H :    0.186573
  25 H :    0.191423
  26 H :    0.188581
  27 H :    0.187004
  28 N :   -0.002551
  29 H :    0.209837
  30 S :    0.005564
  31 C :   -0.308973
  32 C :   -0.177875
  33 H :    0.184810
  34 C :   -0.258407
  35 C :   -0.177907
  36 H :    0.186393
  37 H :    0.186207
  38 H :    0.184449
Sum of atomic charges:    0.0000000

LOEWDIN ATOMIC CHARGES
----------------------
   0 C :   -0.167402
   1 C :   -0.151234
   2 C :   -0.347658
   3 C :   -0.159128
   4 C :   -0.125287
   5 C :   -0.147635
   6 C :   -0.156796
   7 C :   -0.337652
   8 C :   -0.106368
   9 H :    0.165723
  10 C :   -0.117531
  11 C :   -0.107794
  12 C :   -0.090043
  13 H :    0.160068
  14 H :    0.167267
  15 H :    0.159518
  16 C :   -0.180380
  17 C :   -0.104107
  18 C :   -0.107554
  19 C :   -0.141325
  20 C :   -0.142298
  21 C :   -0.142556
  22 H :    0.158862
  23 H :    0.158951
  24 H :    0.165082
  25 H :    0.166948
  26 H :    0.158110
  27 H :    0.156970
  28 N :    0.269156
  29 H :    0.171444
  30 S :    0.670871
  31 C :   -0.113875
  32 C :   -0.151074
  33 H :    0.157284
  34 C :   -0.109187
  35 C :   -0.158644
  36 H :    0.156449
  37 H :    0.161853
  38 H :    0.160970

  Mayer bond orders larger than 0.100000
B(  0-C ,  1-C ) :   1.4039 B(  0-C ,  5-C ) :   1.4014 B(  0-C , 27-H ) :   0.9786
B(  1-C ,  2-C ) :   1.3759 B(  1-C , 13-H ) :   0.9633 B(  2-C ,  3-C ) :   1.2676
B(  2-C , 30-S ) :   1.1270 B(  3-C ,  4-C ) :   1.3344 B(  3-C , 28-N ) :   1.0927
B(  4-C ,  5-C ) :   1.4243 B(  4-C , 14-H ) :   0.9578 B(  5-C , 15-H ) :   0.9724
B(  6-C ,  7-C ) :   1.1621 B(  6-C , 12-C ) :   1.4716 B(  6-C , 28-N ) :   1.1204
B(  7-C ,  8-C ) :   1.5067 B(  7-C , 30-S ) :   1.1261 B(  8-C ,  9-H ) :   0.9520
B(  8-C , 10-C ) :   1.2465 B( 10-C , 11-C ) :   1.2913 B( 10-C , 34-C ) :   1.2518
B( 11-C , 12-C ) :   1.2403 B( 11-C , 31-C ) :   1.2278 B( 12-C , 29-H ) :   0.9348
B( 16-C , 17-C ) :   1.4853 B( 16-C , 18-C ) :   1.4242 B( 16-C , 28-N ) :   0.7513
B( 17-C , 19-C ) :   1.4192 B( 17-C , 24-H ) :   0.9754 B( 18-C , 20-C ) :   1.4162
B( 18-C , 25-H ) :   0.9765 B( 19-C , 21-C ) :   1.4016 B( 19-C , 22-H ) :   0.9731
B( 20-C , 21-C ) :   1.3868 B( 20-C , 23-H ) :   0.9700 B( 21-C , 26-H ) :   0.9718
B( 31-C , 32-C ) :   1.5516 B( 31-C , 38-H ) :   0.9771 B( 32-C , 33-H ) :   0.9773
B( 32-C , 35-C ) :   1.2488 B( 34-C , 35-C ) :   1.5368 B( 34-C , 37-H ) :   0.9745
B( 35-C , 36-H ) :   0.9756

MP2 TOTAL ENERGY:    -1299.778312279 Eh

-----------------------------------------------------------------------------
         ABSORPTION SPECTRUM VIA TRANSITION ELECTRIC DIPOLE MOMENTS
-----------------------------------------------------------------------------
State   Energy    Wavelength  fosc         T2        TX        TY        TZ
        (cm-1)      (nm)                 (au**2)    (au)      (au)      (au)
-----------------------------------------------------------------------------
   1   32273.4    309.9   0.034666810   0.35363   0.17221   0.56884  -0.01970
   2   29090.5    343.8   0.136700624   1.54701   1.03226   0.68063  -0.13492
   3   35579.3    281.1   0.060194186   0.55697   0.68317  -0.27697  -0.11633
   4   34513.1    289.7   0.080869031   0.77139  -0.76414   0.38314  -0.20172
   5   37431.2    267.2   1.631442256  14.34874   3.73676   0.61694  -0.06903
   6   41810.0    239.2   0.058687883   0.46211   0.64178   0.20296  -0.09503
   7   38473.1    259.9   0.051390545   0.43975   0.65390  -0.10547  -0.03219
   8   41972.7    238.3   0.008613648   0.06756   0.22486   0.03831   0.12463
   9   43534.9    229.7   0.278776570   2.10811   1.21580  -0.77613   0.16605
  10   45726.9    218.7   0.107149736   0.77143   0.71022   0.50850  -0.09187
  11   47380.5    211.1   0.122104937   0.84842  -0.58853  -0.67840  -0.20452
  12   45726.6    218.7   0.454603753   3.27295   1.28491   1.26443   0.15222
  13   43673.1    229.0   0.108161929   0.81533   0.49421  -0.74804   0.10737
  14   47511.0    210.5   0.478363518   3.31466  -0.79063   1.63145   0.16717
  15   47120.2    212.2   0.127790728   0.89283   0.00281  -0.85764   0.39659
  16   47896.6    208.8   0.103753603   0.71314   0.83484   0.03862  -0.12122
  17   50861.0    196.6   0.039239734   0.25399  -0.48600   0.07225   0.11215
  18   52238.2    191.4   0.446314541   2.81273   0.05481   0.10202   1.67312
  19   48726.3    205.2   0.250949099   1.69550  -0.22718  -0.91542   0.89772
  20   52731.0    189.6   0.784391908   4.89715   0.05550   2.20737   0.14692
  21   51147.6    195.5   0.135732105   0.87364  -0.61291   0.70519  -0.02630
  22   49658.2    201.4   0.042424554   0.28126   0.26698  -0.25752  -0.37903
  23   50612.7    197.6   0.034217898   0.22257   0.21366   0.41730   0.05276
  24   50808.8    196.8   0.013450099   0.08715  -0.26309  -0.03787  -0.12845
  25   53307.2    187.6   0.025784937   0.15924   0.35653  -0.12679  -0.12671
  26   52859.6    189.2   0.000823638   0.00513  -0.02772   0.05837  -0.03088
  27   52660.8    189.9   0.030039624   0.18779   0.36234  -0.14724   0.18661
  28   52676.3    189.8   0.006987427   0.04367   0.17325   0.04976  -0.10573
  29   52826.7    189.3   0.004211432   0.02625  -0.13236  -0.09020  -0.02430
  30   54261.3    184.3   0.028861799   0.17511   0.28255  -0.10185   0.29138

FINAL SINGLE POINT ENERGY     -1297.674584582564

DIPOLE MOMENT
-------------
                                X             Y             Z
Electronic contribution:     -0.19582      -8.86146       2.17870
Nuclear contribution   :     -0.19956      10.08607      -2.50481
                        -----------------------------------------
Total Dipole Moment    :     -0.39538       1.22461      -0.32611
                        -----------------------------------------
Magnitude (a.u.)       :      1.32753
Magnitude (Debye)      :      3.37433

Rotational constants in cm-1:     0.010608     0.006356     0.004225
Rotational constants in MHz :   318.005228   190.553560   126.647559

                             ****ORCA TERMINATED NORMALLY****
TOTAL RUN TIME: 0 days 5 hours 34 minutes 35 seconds 540 msec
