                         Program Version 5.0.2 -  RELEASE  -
|  1> %maxcore 12800
|  2> %pal
|  3>  nprocs= 8
|  4> end
|  5> ! RI-DSD-BLYP D3BJ def2-TZVP def2/J def2-TZVP/C RIJCOSX CPCM TightSCF
|  6> %TDDFT DCORR 4
|  7>    NROOTS   30
|  8>
|  9>    TDA      FALSE
| 10> END
| 11>
| 12> %CPCM
| 13>    SMD          TRUE
| 14>    SMDsolvent   "N,N-DIMETHYLACETAMIDE"
| 15> END
| 16>
| 17>
| 18> * xyz 0 1
| 19> C                  -4.14164500   -2.46300300   -0.56122300
| 20> C                  -2.89708500   -2.95154600   -0.19768700
| 21> C                  -1.83913000   -2.08903100    0.05976900
| 22> C                  -1.99528000   -0.70233100   -0.08283000
| 23> C                  -3.25710800   -0.22754800   -0.45352000
| 24> C                  -4.31455600   -1.09428700   -0.67966000
| 25> C                   0.41700400   -0.18324600    0.09852000
| 26> C                   0.81220500   -1.54358300    0.24579400
| 27> C                   2.13131000   -1.90558200    0.16175400
| 28> H                   2.40302700   -2.94963600    0.26866100
| 29> C                   3.15250100   -0.95178300   -0.02213500
| 30> C                   2.77399800    0.41534500   -0.13410200
| 31> C                   1.40783600    0.75982700   -0.08143300
| 32> H                  -2.73900100   -4.01780900   -0.08879900
| 33> H                  -3.41728400    0.83556000   -0.55946400
| 34> H                  -5.27746600   -0.68515600   -0.95746300
| 35> C                  -1.23144600    1.58988300    0.16316500
| 36> C                  -1.44230800    2.22989500    1.37461000
| 37> C                  -1.29856100    2.29933200   -1.02962300
| 38> C                  -1.72374300    3.58887100    1.39341800
| 39> C                  -1.58055900    3.65594100   -1.00535400
| 40> C                  -1.79283600    4.30168800    0.20560300
| 41> H                  -1.88892500    4.08963000    2.33891500
| 42> H                  -1.63400600    4.21032700   -1.93372400
| 43> H                  -1.38401700    1.65956000    2.29339900
| 44> H                  -1.12920200    1.78246900   -1.96665700
| 45> H                  -2.01234100    5.36168000    0.22205000
| 46> H                  -4.96006700   -3.14611200   -0.74507900
| 47> N                  -0.93473300    0.18458300    0.16055300
| 48> H                   1.14872200    1.80453300   -0.18323800
| 49> S                  -0.35150300   -2.78066700    0.68072400
| 50> C                   3.78441900    1.38479100   -0.30855900
| 51> C                   5.10510400    1.01852700   -0.37283600
| 52> H                   5.86911900    1.77393600   -0.50867400
| 53> C                   4.51657300   -1.29854500   -0.09042200
| 54> C                   5.47596700   -0.33279500   -0.26364900
| 55> H                   6.52151700   -0.60905100   -0.31653600
| 56> H                   4.79358000   -2.34290800   -0.00327500
| 57> H                   3.49757800    2.42665300   -0.39316800
| 58> *
| 59>
| 60>
| 61>                          ****END OF INPUT****

CARTESIAN COORDINATES (ANGSTROEM)
---------------------------------
  C     -4.141645   -2.463003   -0.561223
  C     -2.897085   -2.951546   -0.197687
  C     -1.839130   -2.089031    0.059769
  C     -1.995280   -0.702331   -0.082830
  C     -3.257108   -0.227548   -0.453520
  C     -4.314556   -1.094287   -0.679660
  C      0.417004   -0.183246    0.098520
  C      0.812205   -1.543583    0.245794
  C      2.131310   -1.905582    0.161754
  H      2.403027   -2.949636    0.268661
  C      3.152501   -0.951783   -0.022135
  C      2.773998    0.415345   -0.134102
  C      1.407836    0.759827   -0.081433
  H     -2.739001   -4.017809   -0.088799
  H     -3.417284    0.835560   -0.559464
  H     -5.277466   -0.685156   -0.957463
  C     -1.231446    1.589883    0.163165
  C     -1.442308    2.229895    1.374610
  C     -1.298561    2.299332   -1.029623
  C     -1.723743    3.588871    1.393418
  C     -1.580559    3.655941   -1.005354
  C     -1.792836    4.301688    0.205603
  H     -1.888925    4.089630    2.338915
  H     -1.634006    4.210327   -1.933724
  H     -1.384017    1.659560    2.293399
  H     -1.129202    1.782469   -1.966657
  H     -2.012341    5.361680    0.222050
  H     -4.960067   -3.146112   -0.745079
  N     -0.934733    0.184583    0.160553
  H      1.148722    1.804533   -0.183238
  S     -0.351503   -2.780667    0.680724
  C      3.784419    1.384791   -0.308559
  C      5.105104    1.018527   -0.372836
  H      5.869119    1.773936   -0.508674
  C      4.516573   -1.298545   -0.090422
  C      5.475967   -0.332795   -0.263649
  H      6.521517   -0.609051   -0.316536
  H      4.793580   -2.342908   -0.003275
  H      3.497578    2.426653   -0.393168

 Total Charge           Charge          ....    0
 Multiplicity           Mult            ....    1
 Number of Electrons    NEL             ....  170
 Basis Dimension        Dim             ....  840

ORBITAL ENERGIES
----------------

  NO   OCC          E(Eh)            E(eV)
   0   2.0000     -90.780926     -2470.2746
   1   2.0000     -15.125084      -411.5745
   2   2.0000     -10.890006      -296.3321
   3   2.0000     -10.887882      -296.2743
   4   2.0000     -10.868861      -295.7567
   5   2.0000     -10.868660      -295.7513
   6   2.0000     -10.863262      -295.6044
   7   2.0000     -10.839758      -294.9648
   8   2.0000     -10.836805      -294.8845
   9   2.0000     -10.835849      -294.8584
  10   2.0000     -10.834582      -294.8240
  11   2.0000     -10.831070      -294.7284
  12   2.0000     -10.830934      -294.7247
  13   2.0000     -10.830244      -294.7059
  14   2.0000     -10.829828      -294.6946
  15   2.0000     -10.829120      -294.6753
  16   2.0000     -10.828842      -294.6678
  17   2.0000     -10.828093      -294.6474
  18   2.0000     -10.826815      -294.6126
  19   2.0000     -10.826374      -294.6006
  20   2.0000     -10.825454      -294.5756
  21   2.0000     -10.824418      -294.5474
  22   2.0000     -10.824013      -294.5364
  23   2.0000     -10.822766      -294.5024
  24   2.0000      -8.577587      -233.4080
  25   2.0000      -6.368468      -173.2948
  26   2.0000      -6.366268      -173.2350
  27   2.0000      -6.364193      -173.1785
  28   2.0000      -1.180590       -32.1255
  29   2.0000      -1.070862       -29.1396
  30   2.0000      -1.057579       -28.7782
  31   2.0000      -1.037960       -28.2443
  32   2.0000      -1.016205       -27.6524
  33   2.0000      -0.970535       -26.4096
  34   2.0000      -0.949207       -25.8292
  35   2.0000      -0.927057       -25.2265
  36   2.0000      -0.921146       -25.0657
  37   2.0000      -0.919516       -25.0213
  38   2.0000      -0.908996       -24.7350
  39   2.0000      -0.873017       -23.7560
  40   2.0000      -0.841982       -22.9115
  41   2.0000      -0.784370       -21.3438
  42   2.0000      -0.774481       -21.0747
  43   2.0000      -0.754549       -20.5323
  44   2.0000      -0.752401       -20.4739
  45   2.0000      -0.734548       -19.9881
  46   2.0000      -0.721824       -19.6418
  47   2.0000      -0.709910       -19.3176
  48   2.0000      -0.665177       -18.1004
  49   2.0000      -0.654128       -17.7997
  50   2.0000      -0.625527       -17.0215
  51   2.0000      -0.616413       -16.7734
  52   2.0000      -0.610752       -16.6194
  53   2.0000      -0.586034       -15.9468
  54   2.0000      -0.577379       -15.7113
  55   2.0000      -0.574698       -15.6383
  56   2.0000      -0.562524       -15.3071
  57   2.0000      -0.555572       -15.1179
  58   2.0000      -0.548274       -14.9193
  59   2.0000      -0.537848       -14.6356
  60   2.0000      -0.533535       -14.5182
  61   2.0000      -0.529767       -14.4157
  62   2.0000      -0.521025       -14.1778
  63   2.0000      -0.518993       -14.1225
  64   2.0000      -0.513195       -13.9647
  65   2.0000      -0.493193       -13.4205
  66   2.0000      -0.485207       -13.2031
  67   2.0000      -0.466711       -12.6998
  68   2.0000      -0.466043       -12.6817
  69   2.0000      -0.455455       -12.3936
  70   2.0000      -0.453637       -12.3441
  71   2.0000      -0.449916       -12.2428
  72   2.0000      -0.438926       -11.9438
  73   2.0000      -0.434753       -11.8302
  74   2.0000      -0.425234       -11.5712
  75   2.0000      -0.413342       -11.2476
  76   2.0000      -0.403434       -10.9780
  77   2.0000      -0.372018       -10.1231
  78   2.0000      -0.352678        -9.5969
  79   2.0000      -0.318941        -8.6788
  80   2.0000      -0.314101        -8.5471
  81   2.0000      -0.310196        -8.4409
  82   2.0000      -0.303476        -8.2580
  83   2.0000      -0.257412        -7.0045
  84   2.0000      -0.237120        -6.4524
  85   0.0000       0.027228         0.7409
  86   0.0000       0.042724         1.1626
  87   0.0000       0.057230         1.5573
  88   0.0000       0.062250         1.6939
  89   0.0000       0.070907         1.9295

MULLIKEN ATOMIC CHARGES
-----------------------
   0 C :   -0.211182
   1 C :   -0.157604
   2 C :   -0.133821
   3 C :    0.287079
   4 C :   -0.307772
   5 C :   -0.155390
   6 C :    0.216023
   7 C :   -0.032098
   8 C :   -0.281540
   9 H :    0.161138
  10 C :    0.093763
  11 C :    0.177210
  12 C :   -0.348730
  13 H :    0.163706
  14 H :    0.177417
  15 H :    0.163338
  16 C :    0.196900
  17 C :   -0.260678
  18 C :   -0.278498
  19 C :   -0.116396
  20 C :   -0.113155
  21 C :   -0.149078
  22 H :    0.163707
  23 H :    0.164254
  24 H :    0.161580
  25 H :    0.162671
  26 H :    0.164398
  27 H :    0.162178
  28 N :   -0.023250
  29 H :    0.180761
  30 S :   -0.018116
  31 C :   -0.296466
  32 C :   -0.155175
  33 H :    0.160294
  34 C :   -0.245250
  35 C :   -0.153319
  36 H :    0.161697
  37 H :    0.161099
  38 H :    0.158309
Sum of atomic charges:    0.0000000

LOEWDIN ATOMIC CHARGES
----------------------
   0 C :   -0.163128
   1 C :   -0.147706
   2 C :   -0.343203
   3 C :   -0.153829
   4 C :   -0.120828
   5 C :   -0.143794
   6 C :   -0.151833
   7 C :   -0.333479
   8 C :   -0.104243
   9 H :    0.158724
  10 C :   -0.112121
  11 C :   -0.102745
  12 C :   -0.086422
  13 H :    0.153328
  14 H :    0.161613
  15 H :    0.152947
  16 C :   -0.169344
  17 C :   -0.099887
  18 C :   -0.101218
  19 C :   -0.137071
  20 C :   -0.138216
  21 C :   -0.138317
  22 H :    0.152469
  23 H :    0.152524
  24 H :    0.158312
  25 H :    0.160032
  26 H :    0.151756
  27 H :    0.150420
  28 N :    0.267536
  29 H :    0.165689
  30 S :    0.668801
  31 C :   -0.109996
  32 C :   -0.147123
  33 H :    0.150756
  34 C :   -0.105395
  35 C :   -0.154542
  36 H :    0.149929
  37 H :    0.155246
  38 H :    0.154360

  Mayer bond orders larger than 0.100000
B(  0-C ,  1-C ) :   1.4021 B(  0-C ,  5-C ) :   1.4037 B(  0-C , 27-H ) :   0.9858
B(  1-C ,  2-C ) :   1.3636 B(  1-C , 13-H ) :   0.9781 B(  2-C ,  3-C ) :   1.2570
B(  2-C , 30-S ) :   1.1157 B(  3-C ,  4-C ) :   1.3437 B(  3-C , 28-N ) :   1.0917
B(  4-C ,  5-C ) :   1.4169 B(  4-C , 14-H ) :   0.9694 B(  5-C , 15-H ) :   0.9804
B(  6-C ,  7-C ) :   1.1482 B(  6-C , 12-C ) :   1.4684 B(  6-C , 28-N ) :   1.1209
B(  7-C ,  8-C ) :   1.4855 B(  7-C , 30-S ) :   1.1100 B(  8-C ,  9-H ) :   0.9860
B(  8-C , 10-C ) :   1.2215 B( 10-C , 11-C ) :   1.2852 B( 10-C , 34-C ) :   1.2498
B( 11-C , 12-C ) :   1.2152 B( 11-C , 31-C ) :   1.2299 B( 12-C , 29-H ) :   0.9637
B( 16-C , 17-C ) :   1.4715 B( 16-C , 18-C ) :   1.4180 B( 16-C , 28-N ) :   0.7200
B( 17-C , 19-C ) :   1.4253 B( 17-C , 24-H ) :   0.9837 B( 18-C , 20-C ) :   1.4181
B( 18-C , 25-H ) :   0.9879 B( 19-C , 21-C ) :   1.4062 B( 19-C , 22-H ) :   0.9805
B( 20-C , 21-C ) :   1.3912 B( 20-C , 23-H ) :   0.9779 B( 21-C , 26-H ) :   0.9773
B( 31-C , 32-C ) :   1.5558 B( 31-C , 38-H ) :   0.9887 B( 32-C , 33-H ) :   0.9844
B( 32-C , 35-C ) :   1.2530 B( 34-C , 35-C ) :   1.5379 B( 34-C , 37-H ) :   0.9870
B( 35-C , 36-H ) :   0.9828

MP2 TOTAL ENERGY:    -1299.239245629 Eh

-----------------------------------------------------------------------------
         ABSORPTION SPECTRUM VIA TRANSITION ELECTRIC DIPOLE MOMENTS
-----------------------------------------------------------------------------
State   Energy    Wavelength  fosc         T2        TX        TY        TZ
        (cm-1)      (nm)                 (au**2)    (au)      (au)      (au)
-----------------------------------------------------------------------------
   1   26877.4    372.1   0.011054103   0.13540  -0.06851   0.36123   0.01479
   2   20613.6    485.1   0.119992665   1.91635  -1.12287  -0.79754   0.13943
   3   30217.3    330.9   0.055315399   0.60265  -0.71378   0.28222   0.11628
   4   25471.4    392.6   0.071188983   0.92010   0.86565  -0.35961   0.20356
   5   29864.7    334.8   1.231563404  13.57607  -3.63283  -0.61193   0.06473
   6   24462.8    408.8   0.006824806   0.09185   0.28956  -0.08683   0.02150
   7   35387.8    282.6   0.025407183   0.23636  -0.44636  -0.17066   0.08946
   8   34076.3    293.5   0.214126870   2.06869   1.33357  -0.53390   0.07232
   9   35713.9    280.0   0.024907348   0.22960  -0.44425   0.10340  -0.14678
  10   34292.0    291.6   0.063575457   0.61034   0.16198   0.74843  -0.15477
  11   39551.8    252.8   0.334252273   2.78217   1.17303   1.16814   0.20402
  12   46477.9    215.2   0.160307369   1.13549   0.76436   0.73828   0.07866
  13   35111.0    284.8   0.085538622   0.80204   0.73434  -0.51260   0.00392
  14   39367.8    254.0   0.326554052   2.73080   0.80414  -1.43969  -0.10709
  15   36697.0    272.5   0.050544392   0.45344  -0.00801  -0.54520   0.39513
  16   33582.1    297.8   0.112666194   1.10449   1.03263   0.09155  -0.17259
  17   32872.8    304.2   0.020159252   0.20189   0.20730   0.38953  -0.08477
  18   41669.1    240.0   0.020646406   0.16312  -0.16515   0.36826  -0.01511
  19   32665.7    306.1   0.060209948   0.60681   0.23965   0.58349   0.45707
  20   37682.9    265.4   0.308480578   2.69500  -0.55876  -1.46645   0.48199
  21   41309.1    242.1   0.343873283   2.74049   0.37222  -1.21140   1.06511
  22   43344.7    230.7   0.378999758   2.87858   0.31002  -0.95925  -1.36466
  23   36509.7    273.9   0.065855775   0.59383  -0.36441  -0.67684  -0.05407
  24   43678.9    228.9   0.232901628   1.75540   0.30498  -1.28413  -0.11574
  25   42595.1    234.8   0.039692949   0.30678  -0.26130   0.42218   0.24550
  26   38465.0    260.0   0.013094835   0.11208   0.30301  -0.05451   0.13150
  27   36774.4    271.9   0.020096279   0.17991  -0.08033  -0.26355   0.32248
  28   37331.3    267.9   0.025102944   0.22137   0.08314   0.43467   0.15977
  29   38319.1    261.0   0.001207923   0.01038   0.07000  -0.03846   0.06324
  30   38289.4    261.2   0.025332187   0.21781   0.44316  -0.09559   0.11079

Dispersion correction           -0.041891904
FINAL SINGLE POINT ENERGY     -1297.292445378393

DIPOLE MOMENT
-------------
                                X             Y             Z
Electronic contribution:     -0.20643      -8.88413       2.18930
Nuclear contribution   :     -0.19956      10.08607      -2.50481
                        -----------------------------------------
Total Dipole Moment    :     -0.40599       1.20194      -0.31552
                        -----------------------------------------
Magnitude (a.u.)       :      1.30730
Magnitude (Debye)      :      3.32290

Rotational constants in cm-1:     0.010608     0.006356     0.004225
Rotational constants in MHz :   318.005228   190.553560   126.647559

                             ****ORCA TERMINATED NORMALLY****
TOTAL RUN TIME: 0 days 0 hours 39 minutes 53 seconds 429 msec
