 Gaussian 09, Revision E.01,

 ----------------------------------------------------------------------
 #p PBEPBE/def2TZVP opt freq=noraman nosymm int=ultrafine scrf=(SMD,sol
 vent=n,n-DiMethylAcetamide) EmpiricalDispersion=GD3BJ
 ----------------------------------------------------------------------

 -----
 Title
 -----
 Symbolic Z-matrix:
 Charge =  0 Multiplicity = 1

 SCF Done:  E(RPBE-PBE) =  -1299.43137146     A.U. after   14 cycles
 SCF Done:  E(RPBE-PBE) =  -1299.43155475     A.U. after    9 cycles
 SCF Done:  E(RPBE-PBE) =  -1299.43157642     A.U. after    9 cycles
 SCF Done:  E(RPBE-PBE) =  -1299.43158024     A.U. after    8 cycles
 SCF Done:  E(RPBE-PBE) =  -1299.43158261     A.U. after    9 cycles
 SCF Done:  E(RPBE-PBE) =  -1299.43158325     A.U. after    8 cycles
 SCF Done:  E(RPBE-PBE) =  -1299.43158342     A.U. after    7 cycles
 Optimization completed.
    -- Stationary point found.
 Normal termination of Gaussian 09 at Sat Mar 27 21:27:35 2021.

 ---------------------------------------------------------------------
 #P Geom=AllCheck Guess=TCheck SCRF=Check GenChk RPBEPBE/def2TZVP Freq
 ---------------------------------------------------------------------

 Structure from the checkpoint file:  "cp.chk"
 -----
 Title
 -----
 Charge =  0 Multiplicity = 1

 SCF Done:  E(RPBE-PBE) =  -1299.43158342     A.U. after    1 cycles

  Exact polarizability: 710.146  45.597 496.212  -3.026 -22.819 283.647
 Approx polarizability: 907.741  63.235 673.095  -9.735 -41.977 380.361

                      1                      2                      3
                      A                      A                      A
 Frequencies --     24.1180                37.0427                49.2855
 Red. masses --      6.3452                 4.0873                 4.8537
 Frc consts  --      0.0022                 0.0033                 0.0069
 IR Inten    --      0.3537                 0.2249                 1.0506

                      4                      5                      6
                      A                      A                      A
 Frequencies --     65.1035                77.4559               112.3211
 Red. masses --      4.6168                 4.4084                 5.5614
 Frc consts  --      0.0115                 0.0156                 0.0413
 IR Inten    --      0.1420                 0.3106                 0.4466

                      7                      8                      9
                      A                      A                      A
 Frequencies --    133.7596               160.6996               218.7775
 Red. masses --      4.7519                 6.1051                 6.1905
 Frc consts  --      0.0501                 0.0929                 0.1746
 IR Inten    --      0.2572                 0.7333                 1.8129

                     10                     11                     12
                      A                      A                      A
 Frequencies --    240.9991               242.9401               266.1728
 Red. masses --      4.7134                 4.4647                 4.7504
 Frc consts  --      0.1613                 0.1553                 0.1983
 IR Inten    --      1.6005                 2.3786                 5.6089

                     13                     14                     15
                      A                      A                      A
 Frequencies --    278.0274               303.5557               330.9792
 Red. masses --      6.0988                 6.1009                 6.1585
 Frc consts  --      0.2778                 0.3312                 0.3975
 IR Inten    --      2.0314                 1.2362                 0.2823

                     16                     17                     18
                      A                      A                      A
 Frequencies --    395.9250               404.8760               409.8253
 Red. masses --      5.1318                 2.9820                 4.8561
 Frc consts  --      0.4740                 0.2880                 0.4805
 IR Inten    --      3.7540                 0.2967                 7.1406

                     19                     20                     21
                      A                      A                      A
 Frequencies --    425.0522               438.2714               461.4456
 Red. masses --      3.5504                 6.8468                 2.7859
 Frc consts  --      0.3779                 0.7749                 0.3495
 IR Inten    --      3.0983                 4.6123                29.2003

                     22                     23                     24
                      A                      A                      A
 Frequencies --    465.7964               491.9631               529.0125
 Red. masses --      4.9283                 5.1786                 5.1892
 Frc consts  --      0.6300                 0.7385                 0.8556
 IR Inten    --      5.3292                 2.9231                 6.5893

                     25                     26                     27
                      A                      A                      A
 Frequencies --    533.1714               545.7173               569.4192
 Red. masses --      4.0908                 4.0848                 5.0357
 Frc consts  --      0.6852                 0.7167                 0.9620
 IR Inten    --      2.5071                 1.5035                46.5535

                     28                     29                     30
                      A                      A                      A
 Frequencies --    592.7225               611.8721               619.5761
 Red. masses --      6.8814                 6.4382                 6.4838
 Frc consts  --      1.4244                 1.4202                 1.4664
 IR Inten    --     31.7943                 0.9820                 2.1479

                     31                     32                     33
                      A                      A                      A
 Frequencies --    645.7980               666.6339               681.6339
 Red. masses --      6.6239                 6.3606                 5.2414
 Frc consts  --      1.6276                 1.6654                 1.4348
 IR Inten    --     14.5584                 3.0976                 5.1887

                     34                     35                     36
                      A                      A                      A
 Frequencies --    693.2632               705.3415               715.8078
 Red. masses --      1.7459                 3.1965                 3.4670
 Frc consts  --      0.4944                 0.9370                 1.0467
 IR Inten    --     94.3308                 9.9918                10.5587

                     37                     38                     39
                      A                      A                      A
 Frequencies --    725.4743               730.6223               753.3881
 Red. masses --      1.4554                 1.2601                 2.6774
 Frc consts  --      0.4513                 0.3963                 0.8954
 IR Inten    --    117.3338                81.7443                 3.0885

                     40                     41                     42
                      A                      A                      A
 Frequencies --    761.7718               789.2860               823.3493
 Red. masses --      2.9272                 4.0181                 1.3184
 Frc consts  --      1.0008                 1.4748                 0.5266
 IR Inten    --      7.6406                 0.8336                 6.4790

                     43                     44                     45
                      A                      A                      A
 Frequencies --    826.6526               828.0956               845.5171
 Red. masses --      1.3085                 1.3821                 4.2816
 Frc consts  --      0.5268                 0.5584                 1.8034
 IR Inten    --      0.0661                 0.8208                31.1084

                     46                     47                     48
                      A                      A                      A
 Frequencies --    853.6299               870.6103               899.7963
 Red. masses --      1.5015                 1.8034                 1.5268
 Frc consts  --      0.6446                 0.8054                 0.7283
 IR Inten    --     80.0053                 3.9014                 2.9349

                     49                     50                     51
                      A                      A                      A
 Frequencies --    903.3672               906.9880               922.1001
 Red. masses --      2.4504                 2.3712                 1.3751
 Frc consts  --      1.1782                 1.1493                 0.6889
 IR Inten    --      1.7834                 0.3402                 8.5451

                     52                     53                     54
                      A                      A                      A
 Frequencies --    925.9691               938.8769               945.8525
 Red. masses --      1.2534                 3.7202                 1.2722
 Frc consts  --      0.6332                 1.9321                 0.6706
 IR Inten    --      0.1436                14.1714                 0.1018

                     55                     56                     57
                      A                      A                      A
 Frequencies --    947.8741               969.6400               994.1183
 Red. masses --      1.3880                 1.2910                 6.2276
 Frc consts  --      0.7348                 0.7151                 3.6262
 IR Inten    --      0.2879                 0.2237                 3.6816

                     58                     59                     60
                      A                      A                      A
 Frequencies --   1018.3351              1021.5970              1028.0450
 Red. masses --      2.2167                 2.2029                 3.5096
 Frc consts  --      1.3544                 1.3546                 2.1854
 IR Inten    --     19.6369                11.7719                35.4713

                     61                     62                     63
                      A                      A                      A
 Frequencies --   1045.0272              1060.5036              1066.2511
 Red. masses --      2.7677                 3.0147                 1.4585
 Frc consts  --      1.7808                 1.9976                 0.9769
 IR Inten    --     34.3185                14.6674                20.7400

                     64                     65                     66
                      A                      A                      A
 Frequencies --   1114.2610              1116.1051              1129.9687
 Red. masses --      1.4693                 1.5477                 1.0928
 Frc consts  --      1.0748                 1.1359                 0.8221
 IR Inten    --     37.4850                20.0410                 2.1911

                     67                     68                     69
                      A                      A                      A
 Frequencies --   1135.1640              1137.1163              1146.2117
 Red. masses --      1.0660                 1.0755                 1.1228
 Frc consts  --      0.8093                 0.8194                 0.8691
 IR Inten    --      0.1032                 4.1580                 0.5223

                     70                     71                     72
                      A                      A                      A
 Frequencies --   1167.9084              1205.3214              1215.1242
 Red. masses --      1.8746                 2.1737                 1.5600
 Frc consts  --      1.5065                 1.8606                 1.3571
 IR Inten    --     16.8956                64.3550                 7.3812

                     73                     74                     75
                      A                      A                      A
 Frequencies --   1239.6741              1253.1402              1264.6005
 Red. masses --      2.0625                 1.7090                 3.5267
 Frc consts  --      1.8675                 1.5812                 3.3230
 IR Inten    --    160.2416                 0.3886               240.1089

                     76                     77                     78
                      A                      A                      A
 Frequencies --   1290.3341              1294.5087              1325.0726
 Red. masses --      1.4089                 2.6929                 2.9733
 Frc consts  --      1.3820                 2.6587                 3.0759
 IR Inten    --      9.2694               352.0039               367.6199

                     79                     80                     81
                      A                      A                      A
 Frequencies --   1340.0763              1341.1538              1377.1664
 Red. masses --      9.3158                 7.9045                 6.1653
 Frc consts  --      9.8567                 8.3769                 6.8893
 IR Inten    --      3.2850                 2.6983                 6.5510

                     82                     83                     84
                      A                      A                      A
 Frequencies --   1391.4590              1421.1455              1429.3418
 Red. masses --      4.7680                 2.4996                 3.0049
 Frc consts  --      5.4391                 2.9744                 3.6170
 IR Inten    --     12.7950               134.5675               110.4114

                     85                     86                     87
                      A                      A                      A
 Frequencies --   1432.5309              1435.4087              1464.8388
 Red. masses --      3.0045                 2.3180                 2.7423
 Frc consts  --      3.6328                 2.8139                 3.4669
 IR Inten    --    655.9832                 9.0984                93.6888

                     88                     89                     90
                      A                      A                      A
 Frequencies --   1478.3546              1495.0882              1555.9875
 Red. masses --      2.4548                 3.9421                 6.6346
 Frc consts  --      3.1609                 5.1917                 9.4640
 IR Inten    --     75.6214                56.8782                33.7157

                     91                     92                     93
                      A                      A                      A
 Frequencies --   1564.1235              1570.6422              1583.1492
 Red. masses --      6.4512                 6.8786                 6.3317
 Frc consts  --      9.2990                 9.9978                 9.3501
 IR Inten    --     27.3282                65.2747                77.6373

                     94                     95                     96
                      A                      A                      A
 Frequencies --   1584.9810              1595.7514              1608.7821
 Red. masses --      6.4407                 6.3285                 6.5622
 Frc consts  --      9.5330                 9.4947                10.0067
 IR Inten    --      4.5154                 5.7877                30.9767

                     97                     98                     99
                      A                      A                      A
 Frequencies --   3096.7891              3100.5168              3101.0121
 Red. masses --      1.0857                 1.0895                 1.0887
 Frc consts  --      6.1348                 6.1708                 6.1680
 IR Inten    --      6.9772                 2.3361                 3.7367

                    100                    101                    102
                      A                      A                      A
 Frequencies --   3105.8701              3106.7929              3112.2838
 Red. masses --      1.0871                 1.0855                 1.0928
 Frc consts  --      6.1785                 6.1729                 6.2368
 IR Inten    --      1.6124                 0.3806                32.9866

                    103                    104                    105
                      A                      A                      A
 Frequencies --   3113.7334              3114.2684              3120.5852
 Red. masses --      1.0878                 1.0889                 1.0916
 Frc consts  --      6.2141                 6.2223                 6.2628
 IR Inten    --      3.3752                 8.7756                16.9903

                    106                    107                    108
                      A                      A                      A
 Frequencies --   3124.3127              3126.7000              3130.4049
 Red. masses --      1.0972                 1.0951                 1.0950
 Frc consts  --      6.3101                 6.3079                 6.3222
 IR Inten    --     36.5337                15.0630                20.4374

                    109                    110                    111
                      A                      A                      A
 Frequencies --   3131.6700              3132.3012              3142.2328
 Red. masses --      1.0894                 1.0981                 1.0926
 Frc consts  --      6.2947                 6.3479                 6.3562
 IR Inten    --      0.9813                 8.3412                 4.2517

 - Thermochemistry -
 -------------------
 Temperature   298.150 Kelvin.  Pressure   1.00000 Atm.
 Atom     1 has atomic number  6 and mass  12.00000

 Molecular mass:   325.09252 amu.
 Principal axes and moments of inertia in atomic units:
                           1         2         3
     Eigenvalues --  5740.137059562.73374**********
           X            0.99958   0.02545   0.01388
           Y           -0.02567   0.99955   0.01580
           Z           -0.01347  -0.01615   0.99978
 This molecule is an asymmetric top.
 Rotational symmetry number  1.
 Warning -- assumption of classical behavior for rotation
           may cause significant error
 Rotational temperatures (Kelvin)      0.01509     0.00906     0.00603
 Rotational constants (GHZ):           0.31441     0.18873     0.12572
 Zero-point vibrational energy     777638.9 (Joules/Mol)
                                  185.86015 (Kcal/Mol)
 Warning -- explicit consideration of  30 degrees of freedom as
           vibrations may cause significant error
 Vibrational temperatures:     34.70    53.30    70.91    93.67   111.44
          (Kelvin)            161.60   192.45   231.21   314.77   346.74
                              349.54   382.96   400.02   436.75   476.20
                              569.65   582.53   589.65   611.55   630.57
                              663.92   670.18   707.82   761.13   767.11
                              785.16   819.27   852.79   880.35   891.43
                              929.16   959.14   980.72   997.45  1014.83
                             1029.89  1043.79  1051.20  1083.96  1096.02
                             1135.61  1184.61  1189.37  1191.44  1216.51
                             1228.18  1252.61  1294.60  1299.74  1304.95
                             1326.69  1332.26  1350.83  1360.87  1363.78
                             1395.09  1430.31  1465.16  1469.85  1479.13
                             1503.56  1525.83  1534.10  1603.17  1605.82
                             1625.77  1633.25  1636.05  1649.14  1680.36
                             1734.19  1748.29  1783.61  1802.99  1819.48
                             1856.50  1862.51  1906.48  1928.07  1929.62
                             1981.43  2002.00  2044.71  2056.50  2061.09
                             2065.23  2107.57  2127.02  2151.10  2238.72
                             2250.42  2259.80  2277.80  2280.43  2295.93
                             2314.68  4455.58  4460.95  4461.66  4468.65
                             4469.98  4477.88  4479.96  4480.73  4489.82
                             4495.18  4498.62  4503.95  4505.77  4506.68
                             4520.97

 Zero-point correction=                           0.296187 (Hartree/Particle)
 Thermal correction to Energy=                    0.314505
 Thermal correction to Enthalpy=                  0.315449
 Thermal correction to Gibbs Free Energy=         0.248842
 Sum of electronic and zero-point Energies=          -1299.135396
 Sum of electronic and thermal Energies=             -1299.117078
 Sum of electronic and thermal Enthalpies=           -1299.116134
 Sum of electronic and thermal Free Energies=        -1299.182741

                     E (Thermal)             CV                S
                      KCal/Mol        Cal/Mol-Kelvin    Cal/Mol-Kelvin
 Total                  197.355             75.975            140.186
 Electronic               0.000              0.000              0.000
 Translational            0.889              2.981             43.232
 Rotational               0.889              2.981             35.020
 Vibrational            195.577             70.013             61.934
 Vibration     1          0.593              1.985              6.263
 Vibration     2          0.594              1.982              5.411
 Vibration     3          0.595              1.978              4.846
 Vibration     4          0.597              1.971              4.296
 Vibration     5          0.599              1.964              3.954
 Vibration     6          0.607              1.939              3.228
 Vibration     7          0.613              1.920              2.891
 Vibration     8          0.622              1.891              2.542
 Vibration     9          0.647              1.812              1.969
 Vibration    10          0.658              1.778              1.795
 Vibration    11          0.659              1.774              1.781
 Vibration    12          0.672              1.735              1.621
 Vibration    13          0.679              1.714              1.546
 Vibration    14          0.695              1.667              1.397
 Vibration    15          0.713              1.614              1.255
 Vibration    16          0.763              1.479              0.978
 Vibration    17          0.770              1.460              0.945
 Vibration    18          0.774              1.449              0.927
 Vibration    19          0.787              1.416              0.875
 Vibration    20          0.798              1.387              0.832
 Vibration    21          0.819              1.336              0.762
 Vibration    22          0.823              1.326              0.749
 Vibration    23          0.848              1.268              0.679
 Vibration    24          0.884              1.186              0.589
 Vibration    25          0.888              1.177              0.580
 Vibration    26          0.901              1.149              0.553
 Vibration    27          0.925              1.097              0.505
 Vibration    28          0.950              1.047              0.462
 Vibration    29          0.971              1.007              0.430
 Vibration    30          0.980              0.991              0.417

 Normal termination of Gaussian 09 at Sat Mar 27 23:43:59 2021.
 Gaussian 09:  ES64L-G09RevE.01 30-Nov-2015

 ----------------------------------------------------------------------
 #p PBEPBE chkbasis geom=allcheck Guess=Read int=ultrafine scrf=(SMD,so
 lvent=n,n-DiMethylAcetamide) td=(NStates=30) EmpiricalDispersion=GD3BJ
 ----------------------------------------------------------------------

 Structure from the checkpoint file:  "cp.chk"
 -----
 Title
 -----
 Charge =  0 Multiplicity = 1

                         Standard orientation:
 ---------------------------------------------------------------------
 Center     Atomic      Atomic             Coordinates (Angstroms)
 Number     Number       Type             X           Y           Z
 ---------------------------------------------------------------------
      1          6           0       -4.129535   -2.504231   -0.609044
      2          6           0       -2.880256   -2.986594   -0.215205
      3          6           0       -1.830630   -2.106604    0.064379
      4          6           0       -1.994759   -0.713008   -0.091772
      5          6           0       -3.259156   -0.244513   -0.493743
      6          6           0       -4.312442   -1.127053   -0.737694
      7          6           0        0.418704   -0.177962    0.106994
      8          6           0        0.820657   -1.544089    0.263942
      9          6           0        2.147882   -1.909698    0.169604
     10          1           0        2.425527   -2.961063    0.279221
     11          6           0        3.169996   -0.946023   -0.024560
     12          6           0        2.785209    0.429935   -0.137502
     13          6           0        1.411264    0.775382   -0.080871
     14          1           0       -2.715053   -4.060049   -0.099371
     15          1           0       -3.422867    0.825603   -0.610320
     16          1           0       -5.280699   -0.724091   -1.039731
     17          6           0       -1.247832    1.591930    0.169949
     18          6           0       -1.494150    2.223410    1.389884
     19          6           0       -1.294843    2.312530   -1.027445
     20          6           0       -1.791925    3.588370    1.412826
     21          6           0       -1.592178    3.676168   -0.998986
     22          6           0       -1.840660    4.314585    0.220028
     23          1           0       -1.985745    4.084166    2.365677
     24          1           0       -1.629963    4.241616   -1.931795
     25          1           0       -1.451202    1.640653    2.311726
     26          1           0       -1.098233    1.801956   -1.971870
     27          1           0       -2.072999    5.380924    0.239458
     28          1           0       -4.945484   -3.199900   -0.809123
     29          7           0       -0.939688    0.183877    0.167042
     30          1           0        1.144439    1.826393   -0.187133
     31         16           0       -0.346071   -2.775558    0.741389
     32          6           0        3.797876    1.408064   -0.319777
     33          6           0        5.128964    1.041318   -0.391773
     34          1           0        5.896889    1.804377   -0.533947
     35          6           0        4.542244   -1.293260   -0.100844
     36          6           0        5.505669   -0.318066   -0.282533
     37          1           0        6.560071   -0.594500   -0.341781
     38          1           0        4.824108   -2.345370   -0.012728
     39          1           0        3.505583    2.457534   -0.404939
 ---------------------------------------------------------------------

 SCF Done:  E(RPBE-PBE) =  -1299.43160125     A.U. after    6 cycles

 Excitation energies and oscillator strengths:

 Excited State   1:      Singlet-A      2.7611 eV  449.04 nm  f=0.1079  <S**2>=0.000
      84 -> 87         0.12118
      85 -> 86         0.65936
      85 -> 87        -0.20319
 This state for optimization and/or second-order correction.
 Total Energy, E(TD-HF/TD-KS) =  -1299.33013395
 Copying the excited state density for this state as the 1-particle RhoCI density.

 Excited State   2:      Singlet-A      3.0038 eV  412.76 nm  f=0.0673  <S**2>=0.000
      84 -> 87         0.10591
      85 -> 86         0.18240
      85 -> 87         0.65680
      85 -> 88        -0.10211

 Excited State   3:      Singlet-A      3.1338 eV  395.64 nm  f=0.0023  <S**2>=0.000
      85 -> 88         0.64653
      85 -> 89        -0.27194

 Excited State   4:      Singlet-A      3.2467 eV  381.87 nm  f=0.0117  <S**2>=0.000
      85 -> 88         0.23971
      85 -> 89         0.61161
      85 -> 90         0.23152

 Excited State   5:      Singlet-A      3.5144 eV  352.79 nm  f=0.0373  <S**2>=0.000
      83 -> 86        -0.13092
      84 -> 86        -0.44069
      84 -> 87        -0.21082
      85 -> 89        -0.14690
      85 -> 90         0.44503

 Excited State   6:      Singlet-A      3.5414 eV  350.10 nm  f=0.0444  <S**2>=0.000
      83 -> 86         0.10174
      84 -> 86         0.48431
      84 -> 87        -0.25163
      84 -> 88         0.13190
      84 -> 89         0.11334
      85 -> 90         0.36092

 Excited State   7:      Singlet-A      3.6856 eV  336.40 nm  f=0.1801  <S**2>=0.000
      84 -> 86        -0.12595
      84 -> 87        -0.41959
      84 -> 88         0.44361
      85 -> 89         0.10443
      85 -> 90        -0.26843

 Excited State   8:      Singlet-A      3.7407 eV  331.44 nm  f=0.1069  <S**2>=0.000
      84 -> 87        -0.24683
      84 -> 88        -0.43431
      84 -> 89         0.46875
      85 -> 90        -0.12614

 Excited State   9:      Singlet-A      3.8863 eV  319.03 nm  f=0.4555  <S**2>=0.000
      82 -> 86         0.16295
      84 -> 87         0.31277
      84 -> 88         0.29229
      84 -> 89         0.48832

 Excited State  10:      Singlet-A      4.0287 eV  307.75 nm  f=0.0045  <S**2>=0.000
      84 -> 90         0.67865

 Excited State  11:      Singlet-A      4.0971 eV  302.62 nm  f=0.0297  <S**2>=0.000
      82 -> 87         0.12430
      83 -> 86        -0.24793
      83 -> 87         0.10212
      85 -> 91         0.59294
      85 -> 92        -0.17432

 Excited State  12:      Singlet-A      4.1994 eV  295.24 nm  f=0.0147  <S**2>=0.000
      83 -> 86        -0.36254
      85 -> 92         0.58193

 Excited State  13:      Singlet-A      4.2587 eV  291.13 nm  f=0.0753  <S**2>=0.000
      80 -> 86        -0.12281
      82 -> 86         0.12274
      82 -> 87         0.16081
      83 -> 86         0.48102
      84 -> 86        -0.11541
      85 -> 91         0.26997
      85 -> 92         0.31690

 Excited State  14:      Singlet-A      4.4051 eV  281.46 nm  f=0.0109  <S**2>=0.000
      81 -> 86         0.64374
      82 -> 86         0.27044

 Excited State  15:      Singlet-A      4.4226 eV  280.34 nm  f=0.0052  <S**2>=0.000
      83 -> 87        -0.15626
      85 -> 93         0.67413

 Excited State  16:      Singlet-A      4.4764 eV  276.97 nm  f=0.0136  <S**2>=0.000
      81 -> 86         0.21948
      82 -> 86        -0.35726
      83 -> 87        -0.16089
      84 -> 91         0.51915

 Excited State  17:      Singlet-A      4.5253 eV  273.98 nm  f=0.1289  <S**2>=0.000
      80 -> 86         0.49649
      81 -> 86         0.11867
      82 -> 86        -0.23864
      83 -> 86         0.10432
      83 -> 87         0.30547
      84 -> 91        -0.18213

 Excited State  18:      Singlet-A      4.5399 eV  273.10 nm  f=0.2279  <S**2>=0.000
      80 -> 86        -0.42967
      82 -> 86        -0.19338
      83 -> 87         0.46233
      85 -> 93         0.11394

 Excited State  19:      Singlet-A      4.6745 eV  265.23 nm  f=0.0149  <S**2>=0.000
      83 -> 88         0.65460
      83 -> 89        -0.19761

 Excited State  20:      Singlet-A      4.7680 eV  260.03 nm  f=0.0021  <S**2>=0.000
      80 -> 87        -0.13891
      81 -> 87         0.53309
      81 -> 88         0.14598
      82 -> 87         0.25798
      83 -> 89         0.23899
      83 -> 90         0.12055

 Excited State  21:      Singlet-A      4.7737 eV  259.72 nm  f=0.0346  <S**2>=0.000
      81 -> 87        -0.30371
      83 -> 89         0.51532
      83 -> 90         0.24499
      84 -> 91        -0.10883

 Excited State  22:      Singlet-A      4.8003 eV  258.29 nm  f=0.0014  <S**2>=0.000
      79 -> 86         0.32663
      84 -> 92         0.58967

 Excited State  23:      Singlet-A      4.8473 eV  255.78 nm  f=0.1003  <S**2>=0.000
      80 -> 87         0.53538
      80 -> 89         0.13032
      81 -> 87         0.18608
      82 -> 86        -0.12090
      82 -> 87        -0.24843
      84 -> 91        -0.11782

 Excited State  24:      Singlet-A      4.9027 eV  252.89 nm  f=0.0279  <S**2>=0.000
      80 -> 87        -0.24737
      81 -> 87         0.10636
      81 -> 88        -0.10544
      82 -> 87        -0.27097
      82 -> 88         0.53157
      82 -> 90         0.11264
      84 -> 93         0.11410

 Excited State  25:      Singlet-A      4.9603 eV  249.96 nm  f=0.0087  <S**2>=0.000
      80 -> 87        -0.12651
      81 -> 89        -0.11759
      82 -> 87        -0.15224
      82 -> 88        -0.28812
      82 -> 89         0.46766
      84 -> 93         0.33014

 Excited State  26:      Singlet-A      4.9872 eV  248.60 nm  f=0.0438  <S**2>=0.000
      82 -> 87         0.14179
      82 -> 89        -0.26690
      82 -> 90        -0.13650
      84 -> 93         0.59160

 Excited State  27:      Singlet-A      5.0836 eV  243.89 nm  f=0.1161  <S**2>=0.000
      78 -> 86         0.17532
      79 -> 86         0.12656
      80 -> 88         0.17993
      80 -> 89         0.11924
      81 -> 89        -0.19364
      82 -> 86         0.18031
      82 -> 87        -0.12931
      82 -> 88        -0.15887
      82 -> 89        -0.20710
      82 -> 90         0.31819
      83 -> 87         0.13981
      83 -> 90         0.17892
      84 -> 91         0.19466

 Excited State  28:      Singlet-A      5.0966 eV  243.27 nm  f=0.1036  <S**2>=0.000
      78 -> 86         0.16683
      80 -> 87         0.11739
      80 -> 88        -0.26253
      81 -> 89         0.46962
      81 -> 90        -0.18583
      82 -> 86         0.15029
      83 -> 87         0.10837
      84 -> 91         0.16252

 Excited State  29:      Singlet-A      5.1581 eV  240.37 nm  f=0.0351  <S**2>=0.000
      78 -> 86         0.11547
      80 -> 87         0.12603
      80 -> 88        -0.18939
      80 -> 89        -0.22610
      80 -> 90         0.22203
      81 -> 88        -0.22413
      81 -> 89        -0.18559
      81 -> 90         0.31554
      82 -> 89         0.10335
      83 -> 89         0.15546
      83 -> 90        -0.25908

 Excited State  30:      Singlet-A      5.2246 eV  237.31 nm  f=0.0167  <S**2>=0.000
      78 -> 86         0.18043
      80 -> 88         0.33726
      81 -> 88         0.15013
      81 -> 89        -0.11179
      81 -> 90        -0.32454
      82 -> 90        -0.10800
      83 -> 89         0.14869
      83 -> 90        -0.29157
      83 -> 91        -0.12930

 The electronic state is 1-A.
 Alpha  occ. eigenvalues --  -88.06275 -14.03703  -9.94330  -9.94124  -9.93006
 Alpha  occ. eigenvalues --   -9.92849  -9.92405  -9.89877  -9.89708  -9.89312
 Alpha  occ. eigenvalues --   -9.89311  -9.89290  -9.89222  -9.89192  -9.89175
 Alpha  occ. eigenvalues --   -9.89088  -9.88775  -9.88647  -9.88597  -9.88574
 Alpha  occ. eigenvalues --   -9.88476  -9.88434  -9.88332  -9.88332  -7.68849
 Alpha  occ. eigenvalues --   -5.71043  -5.70637  -5.70027  -0.90276  -0.80240
 Alpha  occ. eigenvalues --   -0.79361  -0.77658  -0.76130  -0.72505  -0.70353
 Alpha  occ. eigenvalues --   -0.68800  -0.68172  -0.68135  -0.67256  -0.64262
 Alpha  occ. eigenvalues --   -0.62417  -0.58318  -0.57362  -0.55402  -0.55126
 Alpha  occ. eigenvalues --   -0.53836  -0.52950  -0.51788  -0.49444  -0.48392
 Alpha  occ. eigenvalues --   -0.45557  -0.44744  -0.44405  -0.42379  -0.41602
 Alpha  occ. eigenvalues --   -0.41411  -0.40244  -0.39675  -0.39052  -0.38543
 Alpha  occ. eigenvalues --   -0.38126  -0.37957  -0.37428  -0.36872  -0.36432
 Alpha  occ. eigenvalues --   -0.35238  -0.34926  -0.33592  -0.32552  -0.32093
 Alpha  occ. eigenvalues --   -0.31964  -0.31645  -0.30840  -0.30000  -0.29538
 Alpha  occ. eigenvalues --   -0.28776  -0.28510  -0.26840  -0.25785  -0.23967
 Alpha  occ. eigenvalues --   -0.23606  -0.23314  -0.22374  -0.18913  -0.16744
 Alpha virt. eigenvalues --   -0.07415  -0.06201  -0.05284  -0.05088  -0.04327
 Alpha virt. eigenvalues --   -0.02578  -0.01737  -0.00771   0.02843   0.03406
 Alpha virt. eigenvalues --    0.04650   0.04824   0.05320   0.05545   0.06426

 Mulliken charges:
               1
     1  C   -0.179315
     2  C   -0.194184
     3  C   -0.004685
     4  C    0.157362
     5  C   -0.243606
     6  C   -0.165658
     7  C    0.134332
     8  C    0.084840
     9  C   -0.345012
    10  H    0.132006
    11  C    0.153767
    12  C    0.178529
    13  C   -0.344818
    14  H    0.142608
    15  H    0.159628
    16  H    0.144528
    17  C    0.090223
    18  C   -0.198592
    19  C   -0.205425
    20  C   -0.126582
    21  C   -0.112319
    22  C   -0.122253
    23  H    0.146389
    24  H    0.147822
    25  H    0.142289
    26  H    0.139167
    27  H    0.148461
    28  H    0.143798
    29  N    0.159873
    30  H    0.160436
    31  S   -0.085051
    32  C   -0.277274
    33  C   -0.137814
    34  H    0.142034
    35  C   -0.246373
    36  C   -0.137317
    37  H    0.142946
    38  H    0.139891
    39  H    0.135353
 Sum of Mulliken charges =  -0.00000

 Dipole moment (field-independent basis, Debye):
    X=             -1.5202    Y=              3.1959    Z=             -0.6100  Tot=              3.5912
 Quadrupole moment (field-independent basis, Debye-Ang):
   XX=           -134.2299   YY=           -125.8967   ZZ=           -146.8188
   XY=             -4.7618   XZ=              1.0653   YZ=             -0.6305

 1\1\GINC-CN007\SP\RPBEPBE TD-FC\Gen\C22H15N1S1\PNG4RJV\28-Mar-2021\0\\
 #p PBEPBE chkbasis geom=allcheck Guess=Read int=ultrafine scrf=(SMD,so
 lvent=n,n-DiMethylAcetamide) td=(NStates=30) EmpiricalDispersion=GD3BJ
 \\Title\\0,1\C,0,-4.2134152463,-2.372397933,-0.4747186354\C,0,-2.97363
 59964,-2.8855711426,-0.0899069449\C,0,-1.895465357,-2.0328207371,0.164
 3173178\C,0,-2.021206502,-0.6372669861,-0.0090353141\C,0,-3.2766021672
 ,-0.1376236909,-0.4015963159\C,0,-4.3580443259,-0.9923364163,-0.620112
 7392\C,0,0.4090920821,-0.1700694965,0.1520900336\C,0,0.7733419159,-1.5

 Normal termination of Gaussian 09 at Sun Mar 28 01:25:03 2021.
