                         Program Version 5.0.2 -  RELEASE  -
|  1> %maxcore 20000
|  2> %pal
|  3>  nprocs= 4
|  4> end
|  5> ! RI-B2GP-PLYP   def2-TZVP def2/J def2-TZVP/C RIJCOSX CPCM TightSCF
|  6> %TDDFT
|  7>    NROOTS   30
|  8>    dcorr 4
|  9>    TDA      FALSE
| 10> END
| 11>
| 12> %CPCM
| 13>    SMD          TRUE
| 14>    SMDsolvent   "N,N-DIMETHYLACETAMIDE"
| 15> END
| 16>
| 17>
| 18> * xyz 0 1
| 19> C                  -4.14164500   -2.46300300   -0.56122300
| 20> C                  -2.89708500   -2.95154600   -0.19768700
| 21> C                  -1.83913000   -2.08903100    0.05976900
| 22> C                  -1.99528000   -0.70233100   -0.08283000
| 23> C                  -3.25710800   -0.22754800   -0.45352000
| 24> C                  -4.31455600   -1.09428700   -0.67966000
| 25> C                   0.41700400   -0.18324600    0.09852000
| 26> C                   0.81220500   -1.54358300    0.24579400
| 27> C                   2.13131000   -1.90558200    0.16175400
| 28> H                   2.40302700   -2.94963600    0.26866100
| 29> C                   3.15250100   -0.95178300   -0.02213500
| 30> C                   2.77399800    0.41534500   -0.13410200
| 31> C                   1.40783600    0.75982700   -0.08143300
| 32> H                  -2.73900100   -4.01780900   -0.08879900
| 33> H                  -3.41728400    0.83556000   -0.55946400
| 34> H                  -5.27746600   -0.68515600   -0.95746300
| 35> C                  -1.23144600    1.58988300    0.16316500
| 36> C                  -1.44230800    2.22989500    1.37461000
| 37> C                  -1.29856100    2.29933200   -1.02962300
| 38> C                  -1.72374300    3.58887100    1.39341800
| 39> C                  -1.58055900    3.65594100   -1.00535400
| 40> C                  -1.79283600    4.30168800    0.20560300
| 41> H                  -1.88892500    4.08963000    2.33891500
| 42> H                  -1.63400600    4.21032700   -1.93372400
| 43> H                  -1.38401700    1.65956000    2.29339900
| 44> H                  -1.12920200    1.78246900   -1.96665700
| 45> H                  -2.01234100    5.36168000    0.22205000
| 46> H                  -4.96006700   -3.14611200   -0.74507900
| 47> N                  -0.93473300    0.18458300    0.16055300
| 48> H                   1.14872200    1.80453300   -0.18323800
| 49> S                  -0.35150300   -2.78066700    0.68072400
| 50> C                   3.78441900    1.38479100   -0.30855900
| 51> C                   5.10510400    1.01852700   -0.37283600
| 52> H                   5.86911900    1.77393600   -0.50867400
| 53> C                   4.51657300   -1.29854500   -0.09042200
| 54> C                   5.47596700   -0.33279500   -0.26364900
| 55> H                   6.52151700   -0.60905100   -0.31653600
| 56> H                   4.79358000   -2.34290800   -0.00327500
| 57> H                   3.49757800    2.42665300   -0.39316800
| 58> *
| 59>
| 60>
| 61>                          ****END OF INPUT****

CARTESIAN COORDINATES (ANGSTROEM)
---------------------------------
  C     -4.141645   -2.463003   -0.561223
  C     -2.897085   -2.951546   -0.197687
  C     -1.839130   -2.089031    0.059769
  C     -1.995280   -0.702331   -0.082830
  C     -3.257108   -0.227548   -0.453520
  C     -4.314556   -1.094287   -0.679660
  C      0.417004   -0.183246    0.098520
  C      0.812205   -1.543583    0.245794
  C      2.131310   -1.905582    0.161754
  H      2.403027   -2.949636    0.268661
  C      3.152501   -0.951783   -0.022135
  C      2.773998    0.415345   -0.134102
  C      1.407836    0.759827   -0.081433
  H     -2.739001   -4.017809   -0.088799
  H     -3.417284    0.835560   -0.559464
  H     -5.277466   -0.685156   -0.957463
  C     -1.231446    1.589883    0.163165
  C     -1.442308    2.229895    1.374610
  C     -1.298561    2.299332   -1.029623
  C     -1.723743    3.588871    1.393418
  C     -1.580559    3.655941   -1.005354
  C     -1.792836    4.301688    0.205603
  H     -1.888925    4.089630    2.338915
  H     -1.634006    4.210327   -1.933724
  H     -1.384017    1.659560    2.293399
  H     -1.129202    1.782469   -1.966657
  H     -2.012341    5.361680    0.222050
  H     -4.960067   -3.146112   -0.745079
  N     -0.934733    0.184583    0.160553
  H      1.148722    1.804533   -0.183238
  S     -0.351503   -2.780667    0.680724
  C      3.784419    1.384791   -0.308559
  C      5.105104    1.018527   -0.372836
  H      5.869119    1.773936   -0.508674
  C      4.516573   -1.298545   -0.090422
  C      5.475967   -0.332795   -0.263649
  H      6.521517   -0.609051   -0.316536
  H      4.793580   -2.342908   -0.003275
  H      3.497578    2.426653   -0.393168

 Total Charge           Charge          ....    0
 Multiplicity           Mult            ....    1
 Number of Electrons    NEL             ....  170
 Basis Dimension        Dim             ....  840

ORBITAL ENERGIES
----------------

  NO   OCC          E(Eh)            E(eV)
   0   2.0000     -90.629420     -2466.1519
   1   2.0000     -15.065302      -409.9477
   2   2.0000     -10.838761      -294.9377
   3   2.0000     -10.836624      -294.8795
   4   2.0000     -10.817920      -294.3706
   5   2.0000     -10.817818      -294.3678
   6   2.0000     -10.812374      -294.2196
   7   2.0000     -10.788764      -293.5772
   8   2.0000     -10.785750      -293.4952
   9   2.0000     -10.784899      -293.4720
  10   2.0000     -10.783460      -293.4329
  11   2.0000     -10.780184      -293.3437
  12   2.0000     -10.780067      -293.3405
  13   2.0000     -10.779382      -293.3219
  14   2.0000     -10.778979      -293.3109
  15   2.0000     -10.778255      -293.2912
  16   2.0000     -10.777726      -293.2768
  17   2.0000     -10.777008      -293.2573
  18   2.0000     -10.775745      -293.2229
  19   2.0000     -10.775515      -293.2167
  20   2.0000     -10.774468      -293.1882
  21   2.0000     -10.773620      -293.1651
  22   2.0000     -10.773051      -293.1496
  23   2.0000     -10.771862      -293.1173
  24   2.0000      -8.528258      -232.0657
  25   2.0000      -6.333187      -172.3348
  26   2.0000      -6.330868      -172.2717
  27   2.0000      -6.328581      -172.2095
  28   2.0000      -1.166259       -31.7355
  29   2.0000      -1.057249       -28.7692
  30   2.0000      -1.044237       -28.4151
  31   2.0000      -1.024763       -27.8852
  32   2.0000      -1.003401       -27.3039
  33   2.0000      -0.958292       -26.0765
  34   2.0000      -0.936904       -25.4944
  35   2.0000      -0.915099       -24.9011
  36   2.0000      -0.909185       -24.7402
  37   2.0000      -0.907618       -24.6975
  38   2.0000      -0.897243       -24.4152
  39   2.0000      -0.861597       -23.4452
  40   2.0000      -0.831364       -22.6226
  41   2.0000      -0.774679       -21.0801
  42   2.0000      -0.764815       -20.8117
  43   2.0000      -0.744890       -20.2695
  44   2.0000      -0.742731       -20.2107
  45   2.0000      -0.725214       -19.7341
  46   2.0000      -0.712669       -19.3927
  47   2.0000      -0.700766       -19.0688
  48   2.0000      -0.657381       -17.8883
  49   2.0000      -0.646339       -17.5878
  50   2.0000      -0.617771       -16.8104
  51   2.0000      -0.608637       -16.5619
  52   2.0000      -0.603154       -16.4127
  53   2.0000      -0.578676       -15.7466
  54   2.0000      -0.570137       -15.5142
  55   2.0000      -0.567357       -15.4386
  56   2.0000      -0.555231       -15.1086
  57   2.0000      -0.548404       -14.9228
  58   2.0000      -0.541110       -14.7244
  59   2.0000      -0.531057       -14.4508
  60   2.0000      -0.526736       -14.3332
  61   2.0000      -0.523014       -14.2319
  62   2.0000      -0.514537       -14.0013
  63   2.0000      -0.512348       -13.9417
  64   2.0000      -0.506692       -13.7878
  65   2.0000      -0.486822       -13.2471
  66   2.0000      -0.479495       -13.0477
  67   2.0000      -0.460766       -12.5381
  68   2.0000      -0.459912       -12.5148
  69   2.0000      -0.449777       -12.2391
  70   2.0000      -0.447703       -12.1826
  71   2.0000      -0.444111       -12.0849
  72   2.0000      -0.433474       -11.7954
  73   2.0000      -0.429033       -11.6746
  74   2.0000      -0.419615       -11.4183
  75   2.0000      -0.408052       -11.1036
  76   2.0000      -0.398495       -10.8436
  77   2.0000      -0.367915       -10.0115
  78   2.0000      -0.349156        -9.5010
  79   2.0000      -0.316244        -8.6054
  80   2.0000      -0.311479        -8.4758
  81   2.0000      -0.307675        -8.3723
  82   2.0000      -0.300780        -8.1846
  83   2.0000      -0.255220        -6.9449
  84   2.0000      -0.234700        -6.3865
  85   0.0000       0.019530         0.5314
  86   0.0000       0.034895         0.9495
  87   0.0000       0.049271         1.3407
  88   0.0000       0.054060         1.4710
  89   0.0000       0.062678         1.7055

MULLIKEN ATOMIC CHARGES
-----------------------
   0 C :   -0.209493
   1 C :   -0.160253
   2 C :   -0.124721
   3 C :    0.276338
   4 C :   -0.301161
   5 C :   -0.158085
   6 C :    0.207072
   7 C :   -0.025237
   8 C :   -0.279469
   9 H :    0.160751
  10 C :    0.090736
  11 C :    0.167674
  12 C :   -0.340820
  13 H :    0.163470
  14 H :    0.178330
  15 H :    0.163289
  16 C :    0.185547
  17 C :   -0.255183
  18 C :   -0.273845
  19 C :   -0.118239
  20 C :   -0.113533
  21 C :   -0.148623
  22 H :    0.163837
  23 H :    0.164416
  24 H :    0.161684
  25 H :    0.162807
  26 H :    0.164580
  27 H :    0.162187
  28 N :   -0.022709
  29 H :    0.181455
  30 S :   -0.020124
  31 C :   -0.291073
  32 C :   -0.156043
  33 H :    0.160336
  34 C :   -0.242605
  35 C :   -0.153851
  36 H :    0.161661
  37 H :    0.160799
  38 H :    0.158096
Sum of atomic charges:    0.0000000

LOEWDIN ATOMIC CHARGES
----------------------
   0 C :   -0.163261
   1 C :   -0.148479
   2 C :   -0.343232
   3 C :   -0.154716
   4 C :   -0.120895
   5 C :   -0.144625
   6 C :   -0.152677
   7 C :   -0.333635
   8 C :   -0.105053
   9 H :    0.159023
  10 C :   -0.112142
  11 C :   -0.103122
  12 C :   -0.086323
  13 H :    0.153658
  14 H :    0.161995
  15 H :    0.153274
  16 C :   -0.169996
  17 C :   -0.100156
  18 C :   -0.101698
  19 C :   -0.137260
  20 C :   -0.138396
  21 C :   -0.138538
  22 H :    0.152881
  23 H :    0.152936
  24 H :    0.158717
  25 H :    0.160463
  26 H :    0.152165
  27 H :    0.150807
  28 N :    0.269207
  29 H :    0.166068
  30 S :    0.670093
  31 C :   -0.110249
  32 C :   -0.147750
  33 H :    0.151096
  34 C :   -0.105944
  35 C :   -0.154805
  36 H :    0.150297
  37 H :    0.155563
  38 H :    0.154709

  Mayer bond orders larger than 0.100000
B(  0-C ,  1-C ) :   1.4017 B(  0-C ,  5-C ) :   1.4027 B(  0-C , 27-H ) :   0.9847
B(  1-C ,  2-C ) :   1.3608 B(  1-C , 13-H ) :   0.9772 B(  2-C ,  3-C ) :   1.2574
B(  2-C , 30-S ) :   1.1155 B(  3-C ,  4-C ) :   1.3427 B(  3-C , 28-N ) :   1.0933
B(  4-C ,  5-C ) :   1.4162 B(  4-C , 14-H ) :   0.9670 B(  5-C , 15-H ) :   0.9795
B(  6-C ,  7-C ) :   1.1487 B(  6-C , 12-C ) :   1.4674 B(  6-C , 28-N ) :   1.1219
B(  7-C ,  8-C ) :   1.4813 B(  7-C , 30-S ) :   1.1094 B(  8-C ,  9-H ) :   0.9845
B(  8-C , 10-C ) :   1.2229 B( 10-C , 11-C ) :   1.2805 B( 10-C , 34-C ) :   1.2481
B( 11-C , 12-C ) :   1.2187 B( 11-C , 31-C ) :   1.2299 B( 12-C , 29-H ) :   0.9605
B( 16-C , 17-C ) :   1.4699 B( 16-C , 18-C ) :   1.4166 B( 16-C , 28-N ) :   0.7197
B( 17-C , 19-C ) :   1.4237 B( 17-C , 24-H ) :   0.9828 B( 18-C , 20-C ) :   1.4152
B( 18-C , 25-H ) :   0.9873 B( 19-C , 21-C ) :   1.4050 B( 19-C , 22-H ) :   0.9794
B( 20-C , 21-C ) :   1.3904 B( 20-C , 23-H ) :   0.9768 B( 21-C , 26-H ) :   0.9762
B( 31-C , 32-C ) :   1.5527 B( 31-C , 38-H ) :   0.9871 B( 32-C , 33-H ) :   0.9833
B( 32-C , 35-C ) :   1.2548 B( 34-C , 35-C ) :   1.5353 B( 34-C , 37-H ) :   0.9857
B( 35-C , 36-H ) :   0.9817

MP2 TOTAL ENERGY:    -1299.539373712 Eh

-----------------------------------------------------------------------------
         ABSORPTION SPECTRUM VIA TRANSITION ELECTRIC DIPOLE MOMENTS
-----------------------------------------------------------------------------
State   Energy    Wavelength  fosc         T2        TX        TY        TZ
        (cm-1)      (nm)                 (au**2)    (au)      (au)      (au)
-----------------------------------------------------------------------------
   1   28433.0    351.7   0.080084350   0.92726   0.88857   0.35340  -0.11321
   2   30503.3    327.8   0.111085110   1.19891   0.75927   0.78438  -0.08461
   3   34467.7    290.1   0.063498143   0.60649  -0.70684   0.30547   0.11644
   4   33453.5    298.9   0.100488832   0.98890  -0.90602   0.35620  -0.20285
   5   36296.1    275.5   1.456708362  13.21259  -3.58237  -0.61279   0.06114
   6   35470.6    281.9   0.011615950   0.10781  -0.32238   0.05934  -0.01902
   7   40200.7    248.8   0.009008905   0.07378   0.16330   0.19711  -0.09087
   8   40215.9    248.7   0.238055904   1.94875  -1.35566   0.33018  -0.04390
   9   42032.0    237.9   0.016849426   0.13197   0.33160  -0.04884   0.14010
  10   41859.1    238.9   0.102848836   0.80888  -0.21425   0.85747  -0.16651
  11   42798.5    233.7   0.470302086   3.61763  -1.35450  -1.31995  -0.20174
  12   44111.5    226.7   0.119106738   0.88892   0.83631  -0.43437  -0.02859
  13   48282.8    207.1   0.032234308   0.21979   0.09221   0.45818   0.03682
  14   45580.8    219.4   0.315529542   2.27894   0.79059  -1.28433  -0.06633
  15   45185.5    221.3   0.036140201   0.26331  -0.02816   0.35420  -0.37022
  16   44723.5    223.6   0.165221304   1.21620  -1.07927  -0.05838   0.21901
  17   44552.1    224.5   0.029656691   0.21914  -0.14471  -0.42965   0.11662
  18   44541.8    224.5   0.039392177   0.29115  -0.13190  -0.46212  -0.24535
  19   49343.1    202.7   0.016463000   0.10984  -0.29020  -0.09236  -0.13074
  20   47638.4    209.9   0.326506352   2.25637   0.61013   1.35499  -0.21938
  21   48471.8    206.3   0.358688270   2.43615   0.40162  -1.49406   0.20651
  22   49147.2    203.5   0.202729413   1.35798   0.46397   0.48905  -0.95055
  23   50796.0    196.9   0.341279203   2.21185   0.17368   0.38782   1.42523
  24   50588.1    197.7   0.350725804   2.28242  -0.36365   1.46565   0.04524
  25   50022.8    199.9   0.042064974   0.27684  -0.02378  -0.39492  -0.34686
  26   50976.1    196.2   0.041272192   0.26654   0.36049  -0.35584  -0.09983
  27   49477.7    202.1   0.054452837   0.36231  -0.09401  -0.32913   0.49513
  28   50451.2    198.2   0.112147388   0.73180   0.08944   0.82523   0.20689
  29   49959.2    200.2   0.007974416   0.05255   0.10843   0.19792   0.04025
  30   50996.5    196.1   0.031004351   0.20015   0.41869  -0.07184   0.14033

FINAL SINGLE POINT ENERGY     -1297.840223354908

DIPOLE MOMENT
-------------
                                X             Y             Z
Electronic contribution:     -0.21175      -8.88164       2.19362
Nuclear contribution   :     -0.19956      10.08607      -2.50481
                        -----------------------------------------
Total Dipole Moment    :     -0.41130       1.20443      -0.31120
                        -----------------------------------------
Magnitude (a.u.)       :      1.31022
Magnitude (Debye)      :      3.33031

Rotational constants in cm-1:     0.010608     0.006356     0.004225
Rotational constants in MHz :   318.005228   190.553560   126.647559

                             ****ORCA TERMINATED NORMALLY****
TOTAL RUN TIME: 0 days 2 hours 10 minutes 27 seconds 18 msec
