                         Program Version 5.0.2 -  RELEASE  -
|  1> %maxcore 3200
|  2> %pal
|  3>  nprocs= 8
|  4> end
|  5> ! RI-wB2PLYP def2-TZVP def2/J def2-TZVP/C RIJCOSX CPCM TightSCF
|  6> %TDDFT DCORR 1
|  7>    NROOTS   30
|  8>
|  9>    TDA      FALSE
| 10> END
| 11>
| 12> %CPCM
| 13>    SMD          TRUE
| 14>    SMDsolvent   "N,N-DIMETHYLACETAMIDE"
| 15> END
| 16>
| 17>
| 18> * xyz 0 1
| 19> C                  -4.14164500   -2.46300300   -0.56122300
| 20> C                  -2.89708500   -2.95154600   -0.19768700
| 21> C                  -1.83913000   -2.08903100    0.05976900
| 22> C                  -1.99528000   -0.70233100   -0.08283000
| 23> C                  -3.25710800   -0.22754800   -0.45352000
| 24> C                  -4.31455600   -1.09428700   -0.67966000
| 25> C                   0.41700400   -0.18324600    0.09852000
| 26> C                   0.81220500   -1.54358300    0.24579400
| 27> C                   2.13131000   -1.90558200    0.16175400
| 28> H                   2.40302700   -2.94963600    0.26866100
| 29> C                   3.15250100   -0.95178300   -0.02213500
| 30> C                   2.77399800    0.41534500   -0.13410200
| 31> C                   1.40783600    0.75982700   -0.08143300
| 32> H                  -2.73900100   -4.01780900   -0.08879900
| 33> H                  -3.41728400    0.83556000   -0.55946400
| 34> H                  -5.27746600   -0.68515600   -0.95746300
| 35> C                  -1.23144600    1.58988300    0.16316500
| 36> C                  -1.44230800    2.22989500    1.37461000
| 37> C                  -1.29856100    2.29933200   -1.02962300
| 38> C                  -1.72374300    3.58887100    1.39341800
| 39> C                  -1.58055900    3.65594100   -1.00535400
| 40> C                  -1.79283600    4.30168800    0.20560300
| 41> H                  -1.88892500    4.08963000    2.33891500
| 42> H                  -1.63400600    4.21032700   -1.93372400
| 43> H                  -1.38401700    1.65956000    2.29339900
| 44> H                  -1.12920200    1.78246900   -1.96665700
| 45> H                  -2.01234100    5.36168000    0.22205000
| 46> H                  -4.96006700   -3.14611200   -0.74507900
| 47> N                  -0.93473300    0.18458300    0.16055300
| 48> H                   1.14872200    1.80453300   -0.18323800
| 49> S                  -0.35150300   -2.78066700    0.68072400
| 50> C                   3.78441900    1.38479100   -0.30855900
| 51> C                   5.10510400    1.01852700   -0.37283600
| 52> H                   5.86911900    1.77393600   -0.50867400
| 53> C                   4.51657300   -1.29854500   -0.09042200
| 54> C                   5.47596700   -0.33279500   -0.26364900
| 55> H                   6.52151700   -0.60905100   -0.31653600
| 56> H                   4.79358000   -2.34290800   -0.00327500
| 57> H                   3.49757800    2.42665300   -0.39316800
| 58> *
| 59>
| 60>
| 61>                          ****END OF INPUT****

CARTESIAN COORDINATES (ANGSTROEM)
---------------------------------
  C     -4.141645   -2.463003   -0.561223
  C     -2.897085   -2.951546   -0.197687
  C     -1.839130   -2.089031    0.059769
  C     -1.995280   -0.702331   -0.082830
  C     -3.257108   -0.227548   -0.453520
  C     -4.314556   -1.094287   -0.679660
  C      0.417004   -0.183246    0.098520
  C      0.812205   -1.543583    0.245794
  C      2.131310   -1.905582    0.161754
  H      2.403027   -2.949636    0.268661
  C      3.152501   -0.951783   -0.022135
  C      2.773998    0.415345   -0.134102
  C      1.407836    0.759827   -0.081433
  H     -2.739001   -4.017809   -0.088799
  H     -3.417284    0.835560   -0.559464
  H     -5.277466   -0.685156   -0.957463
  C     -1.231446    1.589883    0.163165
  C     -1.442308    2.229895    1.374610
  C     -1.298561    2.299332   -1.029623
  C     -1.723743    3.588871    1.393418
  C     -1.580559    3.655941   -1.005354
  C     -1.792836    4.301688    0.205603
  H     -1.888925    4.089630    2.338915
  H     -1.634006    4.210327   -1.933724
  H     -1.384017    1.659560    2.293399
  H     -1.129202    1.782469   -1.966657
  H     -2.012341    5.361680    0.222050
  H     -4.960067   -3.146112   -0.745079
  N     -0.934733    0.184583    0.160553
  H      1.148722    1.804533   -0.183238
  S     -0.351503   -2.780667    0.680724
  C      3.784419    1.384791   -0.308559
  C      5.105104    1.018527   -0.372836
  H      5.869119    1.773936   -0.508674
  C      4.516573   -1.298545   -0.090422
  C      5.475967   -0.332795   -0.263649
  H      6.521517   -0.609051   -0.316536
  H      4.793580   -2.342908   -0.003275
  H      3.497578    2.426653   -0.393168

 Total Charge           Charge          ....    0
 Multiplicity           Mult            ....    1
 Number of Electrons    NEL             ....  170
 Basis Dimension        Dim             ....  840

ORBITAL ENERGIES
----------------

  NO   OCC          E(Eh)            E(eV)
   0   2.0000     -90.238840     -2455.5237
   1   2.0000     -14.948992      -406.7827
   2   2.0000     -10.750686      -292.5410
   3   2.0000     -10.748420      -292.4794
   4   2.0000     -10.730183      -291.9831
   5   2.0000     -10.729196      -291.9563
   6   2.0000     -10.724445      -291.8270
   7   2.0000     -10.700681      -291.1803
   8   2.0000     -10.697432      -291.0919
   9   2.0000     -10.696666      -291.0711
  10   2.0000     -10.694849      -291.0216
  11   2.0000     -10.691281      -290.9246
  12   2.0000     -10.691227      -290.9231
  13   2.0000     -10.690549      -290.9046
  14   2.0000     -10.690169      -290.8943
  15   2.0000     -10.689445      -290.8746
  16   2.0000     -10.689046      -290.8637
  17   2.0000     -10.688352      -290.8448
  18   2.0000     -10.686963      -290.8070
  19   2.0000     -10.686905      -290.8055
  20   2.0000     -10.685788      -290.7751
  21   2.0000     -10.685062      -290.7553
  22   2.0000     -10.684270      -290.7338
  23   2.0000     -10.683024      -290.6999
  24   2.0000      -8.450175      -229.9410
  25   2.0000      -6.296914      -171.3477
  26   2.0000      -6.294172      -171.2731
  27   2.0000      -6.291211      -171.1925
  28   2.0000      -1.200250       -32.6605
  29   2.0000      -1.094546       -29.7841
  30   2.0000      -1.081792       -29.4371
  31   2.0000      -1.062033       -28.8994
  32   2.0000      -1.041741       -28.3472
  33   2.0000      -0.997489       -27.1431
  34   2.0000      -0.975229       -26.5373
  35   2.0000      -0.953224       -25.9385
  36   2.0000      -0.947014       -25.7696
  37   2.0000      -0.945755       -25.7353
  38   2.0000      -0.935689       -25.4614
  39   2.0000      -0.899799       -24.4848
  40   2.0000      -0.871520       -23.7153
  41   2.0000      -0.815694       -22.1962
  42   2.0000      -0.805433       -21.9170
  43   2.0000      -0.784999       -21.3609
  44   2.0000      -0.782568       -21.2948
  45   2.0000      -0.766678       -20.8624
  46   2.0000      -0.753111       -20.4932
  47   2.0000      -0.740750       -20.1568
  48   2.0000      -0.700832       -19.0706
  49   2.0000      -0.689117       -18.7518
  50   2.0000      -0.660133       -17.9631
  51   2.0000      -0.649751       -17.6806
  52   2.0000      -0.645233       -17.5577
  53   2.0000      -0.621810       -16.9203
  54   2.0000      -0.612157       -16.6576
  55   2.0000      -0.607886       -16.5414
  56   2.0000      -0.595883       -16.2148
  57   2.0000      -0.589561       -16.0428
  58   2.0000      -0.581420       -15.8212
  59   2.0000      -0.572106       -15.5678
  60   2.0000      -0.568257       -15.4631
  61   2.0000      -0.565024       -15.3751
  62   2.0000      -0.558936       -15.2094
  63   2.0000      -0.553475       -15.0608
  64   2.0000      -0.547765       -14.9054
  65   2.0000      -0.529921       -14.4199
  66   2.0000      -0.526071       -14.3151
  67   2.0000      -0.505948       -13.7675
  68   2.0000      -0.499557       -13.5936
  69   2.0000      -0.492527       -13.4023
  70   2.0000      -0.488555       -13.2943
  71   2.0000      -0.486139       -13.2285
  72   2.0000      -0.476228       -12.9588
  73   2.0000      -0.468616       -12.7517
  74   2.0000      -0.459488       -12.5033
  75   2.0000      -0.449517       -12.2320
  76   2.0000      -0.440731       -11.9929
  77   2.0000      -0.412894       -11.2354
  78   2.0000      -0.393526       -10.7084
  79   2.0000      -0.358721        -9.7613
  80   2.0000      -0.353549        -9.6206
  81   2.0000      -0.349037        -9.4978
  82   2.0000      -0.342336        -9.3154
  83   2.0000      -0.294438        -8.0121
  84   2.0000      -0.272943        -7.4272
  85   0.0000       0.042871         1.1666
  86   0.0000       0.058211         1.5840
  87   0.0000       0.073686         2.0051
  88   0.0000       0.079102         2.1525
  89   0.0000       0.088191         2.3998

MULLIKEN ATOMIC CHARGES
-----------------------
   0 C :   -0.226151
   1 C :   -0.170898
   2 C :   -0.117777
   3 C :    0.244754
   4 C :   -0.292269
   5 C :   -0.180139
   6 C :    0.171552
   7 C :   -0.037514
   8 C :   -0.245457
   9 H :    0.180664
  10 C :    0.042700
  11 C :    0.106231
  12 C :   -0.305460
  13 H :    0.180427
  14 H :    0.200360
  15 H :    0.180789
  16 C :    0.073141
  17 C :   -0.234777
  18 C :   -0.255153
  19 C :   -0.142750
  20 C :   -0.126700
  21 C :   -0.163749
  22 H :    0.181728
  23 H :    0.182361
  24 H :    0.180428
  25 H :    0.183966
  26 H :    0.182551
  27 H :    0.179673
  28 N :   -0.035509
  29 H :    0.204407
  30 S :    0.007291
  31 C :   -0.271913
  32 C :   -0.177423
  33 H :    0.178325
  34 C :   -0.234407
  35 C :   -0.177203
  36 H :    0.178966
  37 H :    0.178571
  38 H :    0.176365
Sum of atomic charges:    0.0000000

LOEWDIN ATOMIC CHARGES
----------------------
   0 C :   -0.166345
   1 C :   -0.151127
   2 C :   -0.344945
   3 C :   -0.157286
   4 C :   -0.124018
   5 C :   -0.147300
   6 C :   -0.155147
   7 C :   -0.335134
   8 C :   -0.106934
   9 H :    0.163196
  10 C :   -0.114337
  11 C :   -0.104889
  12 C :   -0.089443
  13 H :    0.157701
  14 H :    0.165738
  15 H :    0.157320
  16 C :   -0.176284
  17 C :   -0.103399
  18 C :   -0.105840
  19 C :   -0.140473
  20 C :   -0.141610
  21 C :   -0.141613
  22 H :    0.156842
  23 H :    0.156922
  24 H :    0.162821
  25 H :    0.164657
  26 H :    0.156130
  27 H :    0.154773
  28 N :    0.271470
  29 H :    0.169804
  30 S :    0.670762
  31 C :   -0.112985
  32 C :   -0.150551
  33 H :    0.155146
  34 C :   -0.108550
  35 C :   -0.157796
  36 H :    0.154296
  37 H :    0.159663
  38 H :    0.158764

  Mayer bond orders larger than 0.100000
B(  0-C ,  1-C ) :   1.4121 B(  0-C ,  5-C ) :   1.4069 B(  0-C , 27-H ) :   0.9777
B(  1-C ,  2-C ) :   1.3651 B(  1-C , 13-H ) :   0.9654 B(  2-C ,  3-C ) :   1.2590
B(  2-C , 30-S ) :   1.1278 B(  3-C ,  4-C ) :   1.3343 B(  3-C , 28-N ) :   1.0942
B(  4-C ,  5-C ) :   1.4252 B(  4-C , 14-H ) :   0.9550 B(  5-C , 15-H ) :   0.9721
B(  6-C ,  7-C ) :   1.1450 B(  6-C , 12-C ) :   1.4973 B(  6-C , 28-N ) :   1.1182
B(  7-C ,  8-C ) :   1.5110 B(  7-C , 30-S ) :   1.1227 B(  8-C ,  9-H ) :   0.9549
B(  8-C , 10-C ) :   1.2417 B( 10-C , 11-C ) :   1.2725 B( 10-C , 34-C ) :   1.2378
B( 11-C , 12-C ) :   1.2422 B( 11-C , 31-C ) :   1.2244 B( 12-C , 29-H ) :   0.9301
B( 16-C , 17-C ) :   1.4736 B( 16-C , 18-C ) :   1.4212 B( 16-C , 28-N ) :   0.7206
B( 17-C , 19-C ) :   1.4170 B( 17-C , 24-H ) :   0.9731 B( 18-C , 20-C ) :   1.4083
B( 18-C , 25-H ) :   0.9763 B( 19-C , 21-C ) :   1.4042 B( 19-C , 22-H ) :   0.9731
B( 20-C , 21-C ) :   1.3898 B( 20-C , 23-H ) :   0.9703 B( 21-C , 26-H ) :   0.9704
B( 31-C , 32-C ) :   1.5638 B( 31-C , 38-H ) :   0.9718 B( 32-C , 33-H ) :   0.9768
B( 32-C , 35-C ) :   1.2546 B( 34-C , 35-C ) :   1.5509 B( 34-C , 37-H ) :   0.9706
B( 35-C , 36-H ) :   0.9758

MP2 TOTAL ENERGY:    -1298.617946989 Eh

-----------------------------------------------------------------------------
         ABSORPTION SPECTRUM VIA TRANSITION ELECTRIC DIPOLE MOMENTS
-----------------------------------------------------------------------------
State   Energy    Wavelength  fosc         T2        TX        TY        TZ
        (cm-1)      (nm)                 (au**2)    (au)      (au)      (au)
-----------------------------------------------------------------------------
   1   32630.3    306.5   0.010559280   0.10653   0.13470  -0.29600  -0.02785
   2   31449.4    318.0   0.173145239   1.81248   1.05528   0.82538  -0.13269
   3   36699.6    272.5   0.047875614   0.42947   0.58053  -0.27667  -0.12610
   4   36413.0    274.6   0.106665479   0.96437   0.87966  -0.39244   0.19119
   5   39005.2    256.4   1.652370253  13.94633   3.68221   0.61846  -0.07198
   6   42793.5    233.7   0.074052377   0.56969  -0.71336  -0.22509   0.10069
   7   41446.5    241.3   0.043907001   0.34876   0.58120  -0.08611  -0.05956
   8   42980.1    232.7   0.015304555   0.11723  -0.32599  -0.01605  -0.10345
   9   44900.1    222.7   0.326414492   2.39330  -1.32096   0.78812  -0.16504
  10   46249.9    216.2   0.105247356   0.74916  -0.68548  -0.51453   0.12058
  11   47416.2    210.9   0.299775392   2.08135   0.98027   1.03244   0.23342
  12   48051.1    208.1   0.284778046   1.95110  -1.02426  -0.94275  -0.11492
  13   46331.3    215.8   0.146363180   1.04000   0.41391  -0.92763   0.09039
  14   49029.2    204.0   0.445513526   2.99145   0.71704  -1.56304  -0.18496
  15   49304.0    202.8   0.146998734   0.98154  -0.05996   0.91361  -0.37849
  16   51591.3    193.8   0.041587246   0.26537   0.45136   0.19520  -0.15343
  17   51132.0    195.6   0.121661444   0.78331  -0.86320   0.17597   0.08500
  18   54286.5    184.2   0.605658521   3.67292  -0.04957  -0.28521   1.89450
  19   51660.4    193.6   0.245606535   1.56516   0.26880   1.21555  -0.12381
  20   54200.4    184.5   0.666886469   4.05065  -0.03141   2.00099   0.21375
  21   54119.8    184.8   0.092591369   0.56324  -0.54398   0.51544  -0.04064
  22   54854.9    182.3   0.080379240   0.48240   0.40871  -0.48779  -0.27823
  23   54033.7    185.1   0.038044877   0.23180   0.25348   0.38020  -0.15162
  24   54974.2    181.9   0.004629998   0.02773  -0.15876   0.05022  -0.00035
  25   54601.2    183.1   0.021312541   0.12850   0.28446   0.14635   0.16175
  26   56447.7    177.2   0.000674076   0.00393   0.03253  -0.01946  -0.04994
  27   56787.8    176.1   0.036433703   0.21121  -0.33518   0.15308  -0.27466
  28   57897.2    172.7   0.011693498   0.06649  -0.20007  -0.06587  -0.14874
  29   57100.4    175.1   0.009327331   0.05378  -0.09612  -0.03006   0.20889
  30   57570.1    173.7   0.016535811   0.09456  -0.14848   0.26425  -0.05179

FINAL SINGLE POINT ENERGY     -1297.352294722363

DIPOLE MOMENT
-------------
                                X             Y             Z
Electronic contribution:     -0.19808      -8.87665       2.18467
Nuclear contribution   :     -0.19956      10.08607      -2.50481
                        -----------------------------------------
Total Dipole Moment    :     -0.39764       1.20942      -0.32015
                        -----------------------------------------
Magnitude (a.u.)       :      1.31275
Magnitude (Debye)      :      3.33674

Rotational constants in cm-1:     0.010608     0.006356     0.004225
Rotational constants in MHz :   318.005228   190.553560   126.647559

                             ****ORCA TERMINATED NORMALLY****
TOTAL RUN TIME: 0 days 0 hours 40 minutes 42 seconds 15 msec
