 Gaussian 09, Revision E.01,

 ----------------------------------------------------------------------
 #p m06/def2TZVP opt freq=noraman nosymm int=ultrafine scrf=(SMD,solven
 t=n,n-DiMethylAcetamide)
 ----------------------------------------------------------------------

 -----
 Title
 -----
 Symbolic Z-matrix:
 Charge =  0 Multiplicity = 1

 SCF Done:  E(RM06) =  -1299.95792716     A.U. after   14 cycles
 SCF Done:  E(RM06) =  -1299.96181942     A.U. after   11 cycles
 SCF Done:  E(RM06) =  -1299.96187289     A.U. after    9 cycles
 SCF Done:  E(RM06) =  -1299.96187676     A.U. after    9 cycles
 SCF Done:  E(RM06) =  -1299.96187862     A.U. after    9 cycles
 SCF Done:  E(RM06) =  -1299.96187941     A.U. after    8 cycles
 SCF Done:  E(RM06) =  -1299.96187986     A.U. after    8 cycles
 SCF Done:  E(RM06) =  -1299.96187998     A.U. after    7 cycles
 Optimization completed.
    -- Stationary point found.
 Normal termination of Gaussian 09 at Sun Feb 21 06:48:03 2021.

 ------------------------------------------------------------------
 #P Geom=AllCheck Guess=TCheck SCRF=Check GenChk RM06/def2TZVP Freq
 ------------------------------------------------------------------

 Structure from the checkpoint file:  "cp.chk"
 -----
 Title
 -----
 Charge =  0 Multiplicity = 1

 SCF Done:  E(RM06) =  -1299.96187998     A.U. after    1 cycles

  Exact polarizability: 623.572  31.535 472.214  -2.879 -26.462 287.839
 Approx polarizability: 582.198  24.641 488.968  -4.122 -32.553 309.123

                      1                      2                      3
                      A                      A                      A
 Frequencies --     24.8281                35.2198                49.8261
 Red. masses --      6.0418                 4.2970                 4.9033
 Frc consts  --      0.0022                 0.0031                 0.0072
 IR Inten    --      0.3367                 0.2733                 1.0069

                      4                      5                      6
                      A                      A                      A
 Frequencies --     72.2156                81.0588               117.1065
 Red. masses --      4.4402                 4.4553                 5.5844
 Frc consts  --      0.0136                 0.0172                 0.0451
 IR Inten    --      0.0608                 0.3768                 0.2685

                      7                      8                      9
                      A                      A                      A
 Frequencies --    138.3223               167.6881               224.6358
 Red. masses --      4.6654                 6.2197                 6.2202
 Frc consts  --      0.0526                 0.1030                 0.1849
 IR Inten    --      0.3062                 0.6815                 1.7169

                     10                     11                     12
                      A                      A                      A
 Frequencies --    251.7580               252.7149               274.8352
 Red. masses --      4.9974                 4.2700                 4.7094
 Frc consts  --      0.1866                 0.1607                 0.2096
 IR Inten    --      3.4801                 0.8615                 5.0749

                     13                     14                     15
                      A                      A                      A
 Frequencies --    285.1307               313.9594               341.3325
 Red. masses --      6.1695                 6.1379                 6.0879
 Frc consts  --      0.2955                 0.3565                 0.4179
 IR Inten    --      1.6733                 1.1575                 0.4008

                     16                     17                     18
                      A                      A                      A
 Frequencies --    407.2785               420.5209               426.6542
 Red. masses --      5.9416                 2.9196                 4.4011
 Frc consts  --      0.5807                 0.3042                 0.4720
 IR Inten    --      2.7877                 0.4547                 8.0900

                     19                     20                     21
                      A                      A                      A
 Frequencies --    439.3254               449.7127               477.8687
 Red. masses --      3.8322                 5.9239                 4.1838
 Frc consts  --      0.4358                 0.7059                 0.5629
 IR Inten    --      2.6310                 6.2222                 9.7790

                     22                     23                     24
                      A                      A                      A
 Frequencies --    483.1293               506.1274               544.3162
 Red. masses --      3.0248                 5.1768                 5.0946
 Frc consts  --      0.4160                 0.7813                 0.8893
 IR Inten    --     22.1035                 2.9807                 9.1775

                     25                     26                     27
                      A                      A                      A
 Frequencies --    551.5536               565.5027               584.3133
 Red. masses --      3.8826                 3.9616                 4.9921
 Frc consts  --      0.6959                 0.7464                 1.0042
 IR Inten    --      2.2214                 1.7508                37.0344

                     28                     29                     30
                      A                      A                      A
 Frequencies --    606.4775               626.2332               633.8298
 Red. masses --      6.7807                 6.3773                 6.4699
 Frc consts  --      1.4694                 1.4735                 1.5314
 IR Inten    --     27.8621                 1.0195                 1.9857

                     31                     32                     33
                      A                      A                      A
 Frequencies --    658.7925               681.9265               710.4086
 Red. masses --      6.6156                 6.3644                 5.0042
 Frc consts  --      1.6917                 1.7437                 1.4880
 IR Inten    --     16.1093                 3.1694                 2.2433

                     34                     35                     36
                      A                      A                      A
 Frequencies --    715.5177               727.7572               742.6769
 Red. masses --      1.7004                 3.8330                 2.5140
 Frc consts  --      0.5129                 1.1961                 0.8170
 IR Inten    --     92.8181                 2.9521                19.3013

                     37                     38                     39
                      A                      A                      A
 Frequencies --    758.6564               760.2448               782.9408
 Red. masses --      1.4953                 1.3028                 2.8796
 Frc consts  --      0.5071                 0.4437                 1.0400
 IR Inten    --    144.6557                32.2920                 5.5843

                     40                     41                     42
                      A                      A                      A
 Frequencies --    788.2651               814.5474               857.4985
 Red. masses --      2.4756                 3.8877                 1.2554
 Frc consts  --      0.9063                 1.5198                 0.5439
 IR Inten    --      0.7983                 1.0463                 0.3484

                     43                     44                     45
                      A                      A                      A
 Frequencies --    859.8993               864.0695               869.7167
 Red. masses --      1.3445                 2.4762                 1.9379
 Frc consts  --      0.5857                 1.0893                 0.8637
 IR Inten    --      7.3838                18.3404                12.4331

                     46                     47                     48
                      A                      A                      A
 Frequencies --    894.3228               914.5360               926.7456
 Red. masses --      1.5366                 1.8194                 4.7922
 Frc consts  --      0.7241                 0.8966                 2.4250
 IR Inten    --     76.1094                 5.0468                 1.4974

                     49                     50                     51
                      A                      A                      A
 Frequencies --    935.6834               951.5507               965.0198
 Red. masses --      2.0712                 1.3755                 3.0795
 Frc consts  --      1.0684                 0.7338                 1.6897
 IR Inten    --      2.2260                 4.5299                14.1817

                     52                     53                     54
                      A                      A                      A
 Frequencies --    975.7280               988.6742               995.6639
 Red. masses --      1.3793                 1.3009                 1.3784
 Frc consts  --      0.7737                 0.7492                 0.8051
 IR Inten    --      8.3795                 0.3830                 0.0149

                     55                     56                     57
                      A                      A                      A
 Frequencies --   1002.5519              1016.3298              1019.0372
 Red. masses --      1.3214                 6.0264                 1.3249
 Frc consts  --      0.7825                 3.6676                 0.8106
 IR Inten    --      0.0479                 4.0774                 0.0177

                     58                     59                     60
                      A                      A                      A
 Frequencies --   1044.0381              1046.8197              1057.1582
 Red. masses --      2.2547                 2.0757                 3.4483
 Frc consts  --      1.4480                 1.3401                 2.2706
 IR Inten    --     11.5151                 9.5482                21.9110

                     61                     62                     63
                      A                      A                      A
 Frequencies --   1073.7840              1087.2199              1089.1875
 Red. masses --      2.9641                 2.6078                 1.4170
 Frc consts  --      2.0136                 1.8162                 0.9904
 IR Inten    --     29.9890                10.4402                18.2102

                     64                     65                     66
                      A                      A                      A
 Frequencies --   1140.5903              1142.1845              1146.3015
 Red. masses --      1.4031                 1.4345                 1.1158
 Frc consts  --      1.0755                 1.1026                 0.8638
 IR Inten    --     26.7541                16.1140                 4.9586

                     67                     68                     69
                      A                      A                      A
 Frequencies --   1149.9407              1159.3924              1165.3744
 Red. masses --      1.0860                 1.1364                 1.1082
 Frc consts  --      0.8461                 0.9000                 0.8868
 IR Inten    --      0.4702                 8.6240                 0.2483

                     70                     71                     72
                      A                      A                      A
 Frequencies --   1192.8068              1226.4022              1241.4560
 Red. masses --      1.7680                 2.6003                 1.5228
 Frc consts  --      1.4821                 2.3043                 1.3828
 IR Inten    --     15.7739                13.7648                36.5518

                     73                     74                     75
                      A                      A                      A
 Frequencies --   1265.0573              1284.2024              1298.4354
 Red. masses --      2.0541                 1.6998                 3.3446
 Frc consts  --      1.9368                 1.6516                 3.3223
 IR Inten    --    258.1426                 0.0665               323.1486

                     76                     77                     78
                      A                      A                      A
 Frequencies --   1312.3979              1322.4624              1341.1145
 Red. masses --      1.6852                 2.9339                 6.4994
 Frc consts  --      1.7101                 3.0232                 6.8874
 IR Inten    --      3.7262               335.8754                22.7477

                     79                     80                     81
                      A                      A                      A
 Frequencies --   1342.6615              1357.5103              1397.8644
 Red. masses --      3.8390                 2.8379                 4.4874
 Frc consts  --      4.0775                 3.0813                 5.1663
 IR Inten    --      5.1976               214.6607                49.8573

                     82                     83                     84
                      A                      A                      A
 Frequencies --   1426.9189              1461.7999              1471.4043
 Red. masses --      5.0280                 2.5675                 3.1208
 Frc consts  --      6.0317                 3.2324                 3.9809
 IR Inten    --      1.6039               108.9291               173.2809

                     85                     86                     87
                      A                      A                      A
 Frequencies --   1473.3268              1473.8578              1508.0014
 Red. masses --      2.5411                 3.0752                 2.8132
 Frc consts  --      3.2499                 3.9358                 3.7692
 IR Inten    --    176.3374               355.2600               105.4375

                     88                     89                     90
                      A                      A                      A
 Frequencies --   1520.3966              1542.3186              1618.2133
 Red. masses --      2.6501                 4.1961                 6.9143
 Frc consts  --      3.6093                 5.8810                10.6677
 IR Inten    --     95.3592                64.1879                23.7638

                     91                     92                     93
                      A                      A                      A
 Frequencies --   1625.9201              1629.9178              1641.3273
 Red. masses --      6.8039                 7.1245                 6.6137
 Frc consts  --     10.5976                11.1515                10.4975
 IR Inten    --     27.0662                73.4347                13.3946

                     94                     95                     96
                      A                      A                      A
 Frequencies --   1642.4197              1655.4385              1675.0454
 Red. masses --      6.6583                 6.6112                 6.8690
 Frc consts  --     10.5824                10.6747                11.3552
 IR Inten    --     74.0096                 4.1468                30.9382

                     97                     98                     99
                      A                      A                      A
 Frequencies --   3158.8062              3160.3989              3163.6869
 Red. masses --      1.0910                 1.0865                 1.0887
 Frc consts  --      6.4138                 6.3940                 6.4201
 IR Inten    --      7.4611                 7.1481                 0.4024

                    100                    101                    102
                      A                      A                      A
 Frequencies --   3165.1838              3167.3988              3172.1120
 Red. masses --      1.0885                 1.0876                 1.0881
 Frc consts  --      6.4248                 6.4285                 6.4508
 IR Inten    --      3.7848                 3.2037                 0.2115

                    103                    104                    105
                      A                      A                      A
 Frequencies --   3175.7090              3176.0206              3178.1371
 Red. masses --      1.0935                 1.0888                 1.0914
 Frc consts  --      6.4975                 6.4710                 6.4950
 IR Inten    --     29.1160                 8.7123                 9.2582

                    106                    107                    108
                      A                      A                      A
 Frequencies --   3185.8842              3187.2439              3188.3743
 Red. masses --      1.0954                 1.0979                 1.0899
 Frc consts  --      6.5509                 6.5713                 6.5280
 IR Inten    --     19.4947                34.1525                 1.5858

                    109                    110                    111
                      A                      A                      A
 Frequencies --   3191.6891              3193.3954              3201.6588
 Red. masses --      1.0955                 1.0992                 1.0936
 Frc consts  --      6.5753                 6.6044                 6.6048
 IR Inten    --     20.2279                11.7306                 5.5983

 - Thermochemistry -
 -------------------
 Temperature   298.150 Kelvin.  Pressure   1.00000 Atm.
 Atom     1 has atomic number  6 and mass  12.00000

 Molecular mass:   325.09252 amu.
 Principal axes and moments of inertia in atomic units:
                           1         2         3
     Eigenvalues --  5697.113539450.10700**********
           X            0.99906   0.03953   0.01759
           Y           -0.03985   0.99904   0.01815
           Z           -0.01686  -0.01883   0.99968
 This molecule is an asymmetric top.
 Rotational symmetry number  1.
 Warning -- assumption of classical behavior for rotation
           may cause significant error
 Rotational temperatures (Kelvin)      0.01520     0.00917     0.00614
 Rotational constants (GHZ):           0.31678     0.19098     0.12786
 Zero-point vibrational energy     798199.9 (Joules/Mol)
                                  190.77436 (Kcal/Mol)
 Warning -- explicit consideration of  28 degrees of freedom as
           vibrations may cause significant error
 Vibrational temperatures:     35.72    50.67    71.69   103.90   116.63
          (Kelvin)            168.49   199.01   241.27   323.20   362.22
                              363.60   395.43   410.24   451.72   491.10
                              585.98   605.04   613.86   632.09   647.04
                              687.55   695.11   728.20   783.15   793.56
                              813.63   840.70   872.58   901.01   911.94
                              947.85   981.14  1022.12  1029.47  1047.08
                             1068.55  1091.54  1093.82  1126.48  1134.14
                             1171.95  1233.75  1237.20  1243.20  1251.33
                             1286.73  1315.81  1333.38  1346.24  1369.07
                             1388.45  1403.85  1422.48  1432.54  1442.45
                             1462.27  1466.17  1502.14  1506.14  1521.01
                             1544.93  1564.26  1567.10  1641.05  1643.35
                             1649.27  1654.51  1668.10  1676.71  1716.18
                             1764.52  1786.18  1820.13  1847.68  1868.16
                             1888.25  1902.73  1929.56  1931.79  1953.15
                             2011.21  2053.02  2103.20  2117.02  2119.79
                             2120.55  2169.67  2187.51  2219.05  2328.25
                             2339.33  2345.09  2361.50  2363.07  2381.80
                             2410.01  4544.81  4547.10  4551.83  4553.99
                             4557.17  4563.96  4569.13  4569.58  4572.62
                             4583.77  4585.73  4587.35  4592.12  4594.58
                             4606.47

 Zero-point correction=                           0.304018 (Hartree/Particle)
 Thermal correction to Energy=                    0.321762
 Thermal correction to Enthalpy=                  0.322706
 Thermal correction to Gibbs Free Energy=         0.257174
 Sum of electronic and zero-point Energies=          -1299.657862
 Sum of electronic and thermal Energies=             -1299.640118
 Sum of electronic and thermal Enthalpies=           -1299.639174
 Sum of electronic and thermal Free Energies=        -1299.704706

                     E (Thermal)             CV                S
                      KCal/Mol        Cal/Mol-Kelvin    Cal/Mol-Kelvin
 Total                  201.909             73.458            137.924
 Electronic               0.000              0.000              0.000
 Translational            0.889              2.981             43.232
 Rotational               0.889              2.981             34.984
 Vibrational            200.131             67.497             59.707
 Vibration     1          0.593              1.985              6.205
 Vibration     2          0.594              1.982              5.511
 Vibration     3          0.595              1.978              4.824
 Vibration     4          0.598              1.967              4.092
 Vibration     5          0.600              1.962              3.865
 Vibration     6          0.608              1.935              3.148
 Vibration     7          0.614              1.915              2.827
 Vibration     8          0.624              1.882              2.461
 Vibration     9          0.649              1.804              1.921
 Vibration    10          0.664              1.760              1.718
 Vibration    11          0.664              1.758              1.712
 Vibration    12          0.677              1.720              1.566
 Vibration    13          0.683              1.701              1.503
 Vibration    14          0.702              1.647              1.341
 Vibration    15          0.721              1.593              1.206
 Vibration    16          0.772              1.454              0.936
 Vibration    17          0.783              1.426              0.890
 Vibration    18          0.788              1.412              0.870
 Vibration    19          0.799              1.384              0.829
 Vibration    20          0.809              1.362              0.797
 Vibration    21          0.834              1.299              0.716
 Vibration    22          0.839              1.287              0.702
 Vibration    23          0.861              1.236              0.643
 Vibration    24          0.899              1.152              0.556
 Vibration    25          0.907              1.136              0.541
 Vibration    26          0.921              1.106              0.513
 Vibration    27          0.941              1.065              0.477
 Vibration    28          0.965              1.018              0.439

 Optimization completed.
    -- Stationary point found.
 Normal termination of Gaussian 09 at Sun Feb 21 11:18:05 2021.
 Gaussian 09:  ES64L-G09RevE.01 30-Nov-2015

 ----------------------------------------------------------------------
 #p m06 chkbasis geom=allcheck Guess=Read int=ultrafine scrf=(SMD,solve
 nt=n,n-DiMethylAcetamide) td=(NStates=30)
 ----------------------------------------------------------------------

 Structure from the checkpoint file:  "cp.chk"
 -----
 Title
 -----
 Charge =  0 Multiplicity = 1

                         Standard orientation:
 ---------------------------------------------------------------------
 Center     Atomic      Atomic             Coordinates (Angstroms)
 Number     Number       Type             X           Y           Z
 ---------------------------------------------------------------------
      1          6           0       -4.022877   -2.559528   -0.683256
      2          6           0       -2.795709   -3.002810   -0.222858
      3          6           0       -1.785038   -2.103707    0.077655
      4          6           0       -1.963640   -0.730349   -0.116890
      5          6           0       -3.204900   -0.300324   -0.585635
      6          6           0       -4.220837   -1.201640   -0.854293
      7          6           0        0.423129   -0.157856    0.110607
      8          6           0        0.835177   -1.504833    0.310671
      9          6           0        2.150546   -1.859712    0.224805
     10          1           0        2.436737   -2.897419    0.371398
     11          6           0        3.157489   -0.902678   -0.010725
     12          6           0        2.765739    0.448742   -0.170037
     13          6           0        1.396900    0.784986   -0.116178
     14          1           0       -2.616686   -4.062471   -0.071100
     15          1           0       -3.387096    0.755751   -0.735499
     16          1           0       -5.174158   -0.827851   -1.209815
     17          6           0       -1.269614    1.576924    0.188825
     18          6           0       -1.540536    2.183576    1.402815
     19          6           0       -1.321538    2.308828   -0.988655
     20          6           0       -1.867221    3.530142    1.441069
     21          6           0       -1.647732    3.652921   -0.947093
     22          6           0       -1.920858    4.264051    0.267780
     23          1           0       -2.080511    4.005891    2.391394
     24          1           0       -1.689647    4.226092   -1.866135
     25          1           0       -1.494122    1.592776    2.311294
     26          1           0       -1.105766    1.814778   -1.930819
     27          1           0       -2.176644    5.317013    0.298251
     28          1           0       -4.811807   -3.269123   -0.901436
     29          7           0       -0.936560    0.183708    0.172169
     30          1           0        1.129780    1.825430   -0.256406
     31         16           0       -0.320840   -2.723982    0.832278
     32          6           0        3.763116    1.420669   -0.394378
     33          6           0        5.082484    1.065469   -0.459786
     34          1           0        5.838897    1.822625   -0.633743
     35          6           0        4.523073   -1.241239   -0.081633
     36          6           0        5.468187   -0.277615   -0.302694
     37          1           0        6.517274   -0.545329   -0.356983
     38          1           0        4.808434   -2.281181    0.043482
     39          1           0        3.462626    2.456676   -0.516215
 ---------------------------------------------------------------------

 SCF Done:  E(RM06) =  -1299.96188462     A.U. after    7 cycles

 Excitation energies and oscillator strengths:

 Excited State   1:      Singlet-A      3.4309 eV  361.38 nm  f=0.1333  <S**2>=0.000
      84 -> 87        -0.12744
      85 -> 86         0.64962
      85 -> 87        -0.21498
 This state for optimization and/or second-order correction.
 Total Energy, E(TD-HF/TD-KS) =  -1299.83580271
 Copying the excited state density for this state as the 1-particle RhoCI density.

 Excited State   2:      Singlet-A      3.5851 eV  345.83 nm  f=0.0678  <S**2>=0.000
      84 -> 86         0.15653
      84 -> 87        -0.10308
      85 -> 86         0.19417
      85 -> 87         0.62986
      85 -> 88         0.10993

 Excited State   3:      Singlet-A      4.0102 eV  309.17 nm  f=0.0053  <S**2>=0.000
      84 -> 86         0.26157
      85 -> 87        -0.15760
      85 -> 88         0.61141

 Excited State   4:      Singlet-A      4.0806 eV  303.84 nm  f=0.0967  <S**2>=0.000
      84 -> 86         0.61762
      84 -> 87         0.11314
      85 -> 88        -0.25674
      85 -> 91        -0.10071

 Excited State   5:      Singlet-A      4.1234 eV  300.68 nm  f=0.0223  <S**2>=0.000
      85 -> 89         0.66995
      85 -> 90        -0.12980

 Excited State   6:      Singlet-A      4.3317 eV  286.23 nm  f=0.0388  <S**2>=0.000
      84 -> 87         0.23794
      84 -> 88         0.13828
      85 -> 88         0.11116
      85 -> 89         0.14358
      85 -> 90         0.59521

 Excited State   7:      Singlet-A      4.3757 eV  283.35 nm  f=0.9849  <S**2>=0.000
      82 -> 86         0.14578
      84 -> 87         0.56481
      85 -> 86         0.15250
      85 -> 90        -0.29523

 Excited State   8:      Singlet-A      4.7829 eV  259.22 nm  f=0.0012  <S**2>=0.000
      84 -> 87        -0.18984
      84 -> 88         0.62454
      85 -> 93         0.18902

 Excited State   9:      Singlet-A      4.8634 eV  254.94 nm  f=0.0579  <S**2>=0.000
      82 -> 86         0.11397
      83 -> 86         0.10184
      83 -> 87        -0.11211
      84 -> 89         0.15753
      84 -> 90        -0.13531
      84 -> 91        -0.13391
      84 -> 93         0.13007
      85 -> 91         0.47898
      85 -> 93        -0.32377

 Excited State  10:      Singlet-A      4.9206 eV  251.97 nm  f=0.0084  <S**2>=0.000
      84 -> 89         0.66213
      85 -> 91        -0.12970
      85 -> 93         0.10267

 Excited State  11:      Singlet-A      4.9618 eV  249.88 nm  f=0.0879  <S**2>=0.000
      82 -> 86        -0.21824
      83 -> 86         0.15865
      84 -> 91         0.11327
      84 -> 93        -0.13211
      85 -> 91         0.41984
      85 -> 92         0.16271
      85 -> 93         0.38121

 Excited State  12:      Singlet-A      5.0562 eV  245.21 nm  f=0.1811  <S**2>=0.000
      82 -> 86         0.23661
      83 -> 87        -0.19460
      84 -> 88        -0.16420
      84 -> 90        -0.22214
      84 -> 91        -0.19559
      85 -> 92        -0.33279
      85 -> 93         0.35820

 Excited State  13:      Singlet-A      5.0729 eV  244.41 nm  f=0.0033  <S**2>=0.000
      84 -> 90         0.61435
      85 -> 92        -0.26296

 Excited State  14:      Singlet-A      5.1220 eV  242.06 nm  f=0.0643  <S**2>=0.000
      83 -> 86         0.63359
      85 -> 91        -0.17438
      85 -> 92         0.13682

 Excited State  15:      Singlet-A      5.1692 eV  239.85 nm  f=0.1999  <S**2>=0.000
      82 -> 86         0.32716
      83 -> 86        -0.15035
      83 -> 87        -0.14456
      84 -> 90         0.14563
      84 -> 91        -0.20574
      85 -> 92         0.48515

 Excited State  16:      Singlet-A      5.2794 eV  234.84 nm  f=0.0048  <S**2>=0.000
      80 -> 86        -0.14076
      80 -> 87         0.18415
      80 -> 88        -0.25228
      80 -> 89         0.18091
      80 -> 90        -0.14652
      81 -> 86         0.13811
      81 -> 87        -0.14197
      81 -> 89         0.37291
      81 -> 90         0.17792
      82 -> 87        -0.12995
      82 -> 88         0.11089
      83 -> 87        -0.13779
      83 -> 88         0.16051
      83 -> 89        -0.10104

 Excited State  17:      Singlet-A      5.4675 eV  226.76 nm  f=0.0206  <S**2>=0.000
      81 -> 86         0.48267
      82 -> 86         0.21150
      83 -> 87         0.38532
      84 -> 91        -0.13797

 Excited State  18:      Singlet-A      5.4921 eV  225.75 nm  f=0.0907  <S**2>=0.000
      81 -> 86         0.35471
      81 -> 89        -0.11199
      82 -> 86         0.12711
      83 -> 87        -0.34417
      84 -> 91         0.37170
      84 -> 92        -0.12425

 Excited State  19:      Singlet-A      5.5222 eV  224.52 nm  f=0.1183  <S**2>=0.000
      79 -> 86         0.11640
      80 -> 86         0.19820
      81 -> 86         0.28617
      82 -> 86        -0.23644
      83 -> 87        -0.17264
      84 -> 91        -0.22768
      84 -> 92         0.41118

 Excited State  20:      Singlet-A      5.6088 eV  221.05 nm  f=0.1448  <S**2>=0.000
      80 -> 86        -0.21916
      81 -> 86        -0.11723
      82 -> 86         0.22272
      82 -> 88        -0.11457
      84 -> 91         0.21680
      84 -> 92         0.49812

 Excited State  21:      Singlet-A      5.6247 eV  220.43 nm  f=0.2386  <S**2>=0.000
      80 -> 86         0.56510
      82 -> 86         0.12245
      84 -> 91         0.25442

 Excited State  22:      Singlet-A      5.6777 eV  218.37 nm  f=0.0288  <S**2>=0.000
      80 -> 87         0.11364
      81 -> 87         0.15406
      81 -> 88        -0.10726
      81 -> 89         0.11109
      82 -> 87         0.46492
      83 -> 88         0.31984
      83 -> 89         0.17803
      84 -> 93         0.14185

 Excited State  23:      Singlet-A      5.7340 eV  216.23 nm  f=0.0477  <S**2>=0.000
      80 -> 86        -0.12817
      81 -> 87        -0.21317
      81 -> 88         0.11301
      83 -> 89        -0.10600
      84 -> 93         0.53678
      85 -> 93         0.18405

 Excited State  24:      Singlet-A      5.7401 eV  216.00 nm  f=0.1062  <S**2>=0.000
      80 -> 86         0.10748
      80 -> 87         0.14233
      80 -> 89        -0.14967
      81 -> 87         0.33028
      81 -> 88        -0.16633
      81 -> 89         0.10256
      82 -> 87        -0.28002
      82 -> 89         0.10321
      83 -> 88        -0.16368
      83 -> 89         0.13231
      83 -> 90         0.15500
      84 -> 93         0.29001

 Excited State  25:      Singlet-A      5.8587 eV  211.62 nm  f=0.1701  <S**2>=0.000
      80 -> 87        -0.14816
      81 -> 87         0.24778
      82 -> 87        -0.17901
      83 -> 88         0.45865
      83 -> 89        -0.31567

 Excited State  26:      Singlet-A      5.8765 eV  210.98 nm  f=0.1535  <S**2>=0.000
      81 -> 87         0.37076
      81 -> 88         0.18064
      81 -> 90         0.13071
      82 -> 87         0.23890
      82 -> 88         0.16473
      83 -> 88        -0.26842
      83 -> 89        -0.30568

 Excited State  27:      Singlet-A      5.9545 eV  208.22 nm  f=0.0480  <S**2>=0.000
      80 -> 87        -0.23159
      80 -> 89         0.18066
      81 -> 87         0.13054
      81 -> 88         0.20535
      82 -> 87        -0.10573
      82 -> 88         0.22692
      83 -> 87         0.10013
      83 -> 89         0.39431
      85 -> 95        -0.18090

 Excited State  28:      Singlet-A      5.9834 eV  207.21 nm  f=0.0168  <S**2>=0.000
      82 -> 88         0.15744
      85 -> 94        -0.32200
      85 -> 95         0.46392
      85 -> 96        -0.10144
      85 -> 98        -0.24128

 Excited State  29:      Singlet-A      5.9917 eV  206.93 nm  f=0.0046  <S**2>=0.000
      79 -> 86        -0.20910
      79 -> 87        -0.12366
      80 -> 87        -0.19324
      80 -> 88        -0.10786
      80 -> 89         0.11327
      81 -> 88         0.16350
      82 -> 88        -0.26484
      82 -> 89        -0.10504
      83 -> 87        -0.14625
      83 -> 89         0.20439
      83 -> 90         0.27654
      83 -> 91         0.13170
      85 -> 94        -0.21399

 Excited State  30:      Singlet-A      6.0097 eV  206.31 nm  f=0.0334  <S**2>=0.000
      80 -> 87         0.15313
      81 -> 87         0.11952
      81 -> 88         0.16993
      82 -> 88        -0.11350
      82 -> 89        -0.12193
      85 -> 94         0.44674
      85 -> 95         0.35119
      85 -> 96        -0.11401

 The electronic state is 1-A.
 Alpha  occ. eigenvalues --  -89.05157 -14.43115 -10.29653 -10.29435 -10.28044
 Alpha  occ. eigenvalues --  -10.27675 -10.27192 -10.25020 -10.24752 -10.24512
 Alpha  occ. eigenvalues --  -10.24401 -10.24363 -10.24336 -10.24284 -10.24250
 Alpha  occ. eigenvalues --  -10.24164 -10.23916 -10.23842 -10.23794 -10.23711
 Alpha  occ. eigenvalues --  -10.23661 -10.23624 -10.23522 -10.23460  -8.06572
 Alpha  occ. eigenvalues --   -5.98274  -5.97907  -5.97309  -0.99756  -0.89695
 Alpha  occ. eigenvalues --   -0.88621  -0.86886  -0.85091  -0.81215  -0.78953
 Alpha  occ. eigenvalues --   -0.77150  -0.76601  -0.76466  -0.75565  -0.72469
 Alpha  occ. eigenvalues --   -0.70361  -0.65583  -0.64470  -0.62719  -0.62376
 Alpha  occ. eigenvalues --   -0.61115  -0.60043  -0.58869  -0.55890  -0.54860
 Alpha  occ. eigenvalues --   -0.52124  -0.50972  -0.50847  -0.48939  -0.48018
 Alpha  occ. eigenvalues --   -0.47442  -0.46394  -0.45674  -0.45062  -0.44547
 Alpha  occ. eigenvalues --   -0.44112  -0.43791  -0.43360  -0.42759  -0.42277
 Alpha  occ. eigenvalues --   -0.40892  -0.40542  -0.38957  -0.38061  -0.37611
 Alpha  occ. eigenvalues --   -0.37254  -0.37053  -0.36168  -0.35376  -0.34672
 Alpha  occ. eigenvalues --   -0.33859  -0.33352  -0.31271  -0.29997  -0.27685
 Alpha  occ. eigenvalues --   -0.27270  -0.26886  -0.26156  -0.22335  -0.20317
 Alpha virt. eigenvalues --   -0.04282  -0.02906  -0.01730  -0.01464  -0.00782
 Alpha virt. eigenvalues --    0.00766   0.01964   0.02820   0.04988   0.05406
 Alpha virt. eigenvalues --    0.06341   0.06598   0.07397   0.07684   0.08321

 Mulliken charges:
               1
     1  C   -0.176061
     2  C   -0.087654
     3  C   -0.092811
     4  C    0.247588
     5  C   -0.238785
     6  C   -0.148878
     7  C    0.165360
     8  C   -0.027329
     9  C   -0.028622
    10  H    0.134122
    11  C   -0.152752
    12  C   -0.150251
    13  C   -0.139146
    14  H    0.133591
    15  H    0.187707
    16  H    0.129523
    17  C   -0.030255
    18  C   -0.156390
    19  C   -0.329332
    20  C   -0.059565
    21  C   -0.023969
    22  C   -0.121914
    23  H    0.133096
    24  H    0.135399
    25  H    0.133053
    26  H    0.161377
    27  H    0.135902
    28  H    0.127622
    29  N   -0.061528
    30  H    0.205747
    31  S   -0.047253
    32  C   -0.109473
    33  C   -0.130281
    34  H    0.126044
    35  C   -0.078975
    36  C   -0.128035
    37  H    0.126298
    38  H    0.118498
    39  H    0.118333
 Sum of Mulliken charges =  -0.00000

 Dipole moment (field-independent basis, Debye):
    X=             -1.1866    Y=              2.8618    Z=             -0.7346  Tot=              3.1840
 Quadrupole moment (field-independent basis, Debye-Ang):
   XX=           -132.2109   YY=           -126.9307   ZZ=           -146.2871
   XY=             -4.2074   XZ=              1.3336   YZ=             -0.9299

 Normal termination of Gaussian 09 at Sun Feb 21 14:35:28 2021.
