 Gaussian 09, Revision E.01,

 ----------------------------------------------------------------------
 #p b3lyp/def2TZVP opt freq=noraman nosymm int=ultrafine scrf=(SMD,solv
 ent=n,n-DiMethylAcetamide) EmpiricalDispersion=GD3BJ
 ----------------------------------------------------------------------

 -----
 Title
 -----
 Symbolic Z-matrix:
 Charge =  0 Multiplicity = 1

 SCF Done:  E(RB3LYP) =  -1300.80482115     A.U. after   13 cycles
 SCF Done:  E(RB3LYP) =  -1300.80691019     A.U. after   10 cycles
 SCF Done:  E(RB3LYP) =  -1300.80694493     A.U. after    9 cycles
 SCF Done:  E(RB3LYP) =  -1300.80695043     A.U. after    8 cycles
 SCF Done:  E(RB3LYP) =  -1300.80695331     A.U. after    8 cycles
 SCF Done:  E(RB3LYP) =  -1300.80695426     A.U. after    8 cycles
 SCF Done:  E(RB3LYP) =  -1300.80695459     A.U. after    7 cycles
 Optimization completed.
    -- Stationary point found.

 1\1\GINC-CN013\FOpt\RB3LYP\def2TZVP\C22H15N1S1\PNG4RJV\16-Feb-2021\0\\
 #p b3lyp/def2TZVP opt freq=noraman nosymm int=ultrafine scrf=(SMD,solv
 ent=n,n-DiMethylAcetamide) EmpiricalDispersion=GD3BJ\\Title\\0,1\C,-4.
 1578910082,-2.3750854921,-0.5271327514\C,-2.9424044898,-2.8684404404,-
 0.0705764384\C,-1.8866175761,-2.006846754,0.2073882248\C,-2.008255838,
 -0.6255901411,-0.01172979\C,-3.237915976,-0.144643829,-0.4759037235\C,
 -4.2993147252,-1.0072328623,-0.7191749667\C,0.4095424927,-0.1529561715
 ,0.1727948275\C,0.7688579545,-1.5165653654,0.3935786202\C,2.0709295261

 Normal termination of Gaussian 09 at Tue Feb 16 01:11:42 2021.

 --------------------------------------------------------------------
 #P Geom=AllCheck Guess=TCheck SCRF=Check GenChk RB3LYP/def2TZVP Freq
 --------------------------------------------------------------------

 Structure from the checkpoint file:  "cp.chk"
 -----
 Title
 -----
 Charge =  0 Multiplicity = 1

 SCF Done:  E(RB3LYP) =  -1300.80695459     A.U. after    1 cycles

  Exact polarizability: 627.815  33.498 469.820  -3.093 -26.688 281.904
 Approx polarizability: 628.810  29.997 516.648  -5.554 -35.124 324.871

                      1                      2                      3
                      A                      A                      A
 Frequencies --     25.3886                38.7672                50.7039
 Red. masses --      6.1035                 4.1847                 4.9763
 Frc consts  --      0.0023                 0.0037                 0.0075
 IR Inten    --      0.4222                 0.2609                 1.2396

                      4                      5                      6
                      A                      A                      A
 Frequencies --     71.8222                80.2090               117.5076
 Red. masses --      4.4798                 4.4811                 5.5692
 Frc consts  --      0.0136                 0.0170                 0.0453
 IR Inten    --      0.1261                 0.3713                 0.2535

                      7                      8                      9
                      A                      A                      A
 Frequencies --    137.4411               169.5857               226.0362
 Red. masses --      4.6828                 6.2054                 6.2369
 Frc consts  --      0.0521                 0.1051                 0.1877
 IR Inten    --      0.3926                 0.7813                 1.8409

                     10                     11                     12
                      A                      A                      A
 Frequencies --    251.2286               253.3305               276.3956
 Red. masses --      4.3184                 4.9745                 4.7788
 Frc consts  --      0.1606                 0.1881                 0.2151
 IR Inten    --      1.8140                 2.3640                 5.4891

                     13                     14                     15
                      A                      A                      A
 Frequencies --    286.3452               315.2269               344.9412
 Red. masses --      6.0885                 6.1249                 6.0894
 Frc consts  --      0.2941                 0.3586                 0.4269
 IR Inten    --      1.6837                 1.1292                 0.3948

                     16                     17                     18
                      A                      A                      A
 Frequencies --    411.1770               424.3597               428.4447
 Red. masses --      5.6083                 2.9791                 4.6041
 Frc consts  --      0.5587                 0.3161                 0.4980
 IR Inten    --      3.1001                 0.5343                 7.5816

                     19                     20                     21
                      A                      A                      A
 Frequencies --    442.5467               452.1113               480.3522
 Red. masses --      3.7887                 6.1674                 3.4086
 Frc consts  --      0.4372                 0.7428                 0.4634
 IR Inten    --      3.2013                 5.9062                20.2635

                     22                     23                     24
                      A                      A                      A
 Frequencies --    483.7674               510.2592               549.8322
 Red. masses --      3.6564                 5.1467                 5.0747
 Frc consts  --      0.5042                 0.7895                 0.9039
 IR Inten    --     16.9809                 4.1828                10.6882

                     25                     26                     27
                      A                      A                      A
 Frequencies --    553.2956               566.2324               590.7456
 Red. masses --      3.9348                 4.0411                 5.0777
 Frc consts  --      0.7097                 0.7634                 1.0441
 IR Inten    --      2.2232                 1.9757                38.4118

                     28                     29                     30
                      A                      A                      A
 Frequencies --    613.6954               636.6490               644.2468
 Red. masses --      6.8683                 6.4521                 6.5096
 Frc consts  --      1.5241                 1.5408                 1.5919
 IR Inten    --     28.8971                 0.8873                 1.9552

                     31                     32                     33
                      A                      A                      A
 Frequencies --    666.9337               690.7560               711.3698
 Red. masses --      6.6513                 6.4037                 5.2111
 Frc consts  --      1.7431                 1.8002                 1.5537
 IR Inten    --     14.9946                 3.8293                 2.5443

                     34                     35                     36
                      A                      A                      A
 Frequencies --    718.7661               733.9046               744.5498
 Red. masses --      1.7855                 3.5269                 3.2308
 Frc consts  --      0.5435                 1.1192                 1.0552
 IR Inten    --    101.4642                 6.3787                 9.9564

                     37                     38                     39
                      A                      A                      A
 Frequencies --    760.7164               761.3785               781.8258
 Red. masses --      1.3394                 1.3055                 2.7085
 Frc consts  --      0.4567                 0.4459                 0.9755
 IR Inten    --    196.1839                18.9143                 2.3243

                     40                     41                     42
                      A                      A                      A
 Frequencies --    788.8073               812.8016               861.7543
 Red. masses --      2.9598                 3.8332                 1.3029
 Frc consts  --      1.0851                 1.4920                 0.5701
 IR Inten    --      5.6948                 0.8263                 3.8182

                     43                     44                     45
                      A                      A                      A
 Frequencies --    862.5408               869.4269               875.2190
 Red. masses --      1.2773                 2.0310                 2.3321
 Frc consts  --      0.5599                 0.9045                 1.0525
 IR Inten    --      1.0587                13.2922                18.9607

                     46                     47                     48
                      A                      A                      A
 Frequencies --    897.8109               913.6893               934.3418
 Red. masses --      1.5421                 1.7073                 5.4335
 Frc consts  --      0.7324                 0.8398                 2.7947
 IR Inten    --     76.9568                 9.8207                 0.9880

                     49                     50                     51
                      A                      A                      A
 Frequencies --    943.2611               951.9189               970.8430
 Red. masses --      1.9363                 1.3775                 1.3762
 Frc consts  --      1.0150                 0.7354                 0.7642
 IR Inten    --      1.4396                 5.1342                 9.0418

                     52                     53                     54
                      A                      A                      A
 Frequencies --    975.2736               980.3827               993.1079
 Red. masses --      3.1323                 1.2908                 1.2925
 Frc consts  --      1.7554                 0.7310                 0.7511
 IR Inten    --     13.0428                 0.9999                 0.0983

                     55                     56                     57
                      A                      A                      A
 Frequencies --    994.7222              1015.3991              1026.6370
 Red. masses --      1.3754                 1.3157                 6.1923
 Frc consts  --      0.8018                 0.7992                 3.8454
 IR Inten    --      0.0199                 0.1058                 1.8015

                     58                     59                     60
                      A                      A                      A
 Frequencies --   1041.5791              1049.5914              1055.7451
 Red. masses --      2.3613                 2.2589                 3.6036
 Frc consts  --      1.5094                 1.4662                 2.3665
 IR Inten    --     14.1066                11.1118                26.9232

                     61                     62                     63
                      A                      A                      A
 Frequencies --   1074.1645              1095.1764              1097.6806
 Red. masses --      2.8166                 3.2667                 1.5232
 Frc consts  --      1.9148                 2.3085                 1.0813
 IR Inten    --     30.6181                13.6486                18.8050

                     64                     65                     66
                      A                      A                      A
 Frequencies --   1150.7491              1153.9494              1168.2418
 Red. masses --      1.6051                 1.5272                 1.1627
 Frc consts  --      1.2523                 1.1982                 0.9350
 IR Inten    --     54.5888                 8.4225                 5.6725

                     67                     68                     69
                      A                      A                      A
 Frequencies --   1174.0437              1181.0689              1186.6231
 Red. masses --      1.0991                 1.1156                 1.1323
 Frc consts  --      0.8926                 0.9169                 0.9394
 IR Inten    --      0.1943                 8.5563                 0.3305

                     70                     71                     72
                      A                      A                      A
 Frequencies --   1201.4426              1230.2662              1256.2539
 Red. masses --      1.9592                 2.4908                 1.7841
 Frc consts  --      1.6662                 2.2212                 1.6590
 IR Inten    --     23.8899                14.5398               128.3745

                     73                     74                     75
                      A                      A                      A
 Frequencies --   1271.3076              1299.2463              1299.3134
 Red. masses --      2.5159                 2.6885                 1.9614
 Frc consts  --      2.3958                 2.6739                 1.9510
 IR Inten    --    369.9399               171.1994                42.2211

                     76                     77                     78
                      A                      A                      A
 Frequencies --   1320.2980              1322.8010              1337.3741
 Red. masses --      4.0767                 3.8900                 3.3570
 Frc consts  --      4.1870                 4.0104                 3.5376
 IR Inten    --     24.6320               148.7479               174.3255

                     79                     80                     81
                      A                      A                      A
 Frequencies --   1350.8919              1363.6036              1392.0739
 Red. masses --      1.5802                 2.6269                 4.4337
 Frc consts  --      1.6991                 2.8779                 5.0622
 IR Inten    --      0.6997               172.8034                41.9604

                     82                     83                     84
                      A                      A                      A
 Frequencies --   1409.7559              1470.4742              1475.2784
 Red. masses --      6.2527                 2.3008                 2.5120
 Frc consts  --      7.3216                 2.9311                 3.2212
 IR Inten    --     63.9455               166.7810               388.5279

                     85                     86                     87
                      A                      A                      A
 Frequencies --   1477.2804              1483.9650              1513.8327
 Red. masses --      2.5526                 2.2001                 2.4911
 Frc consts  --      3.2821                 2.8546                 3.3636
 IR Inten    --    117.3213                 9.0666               116.6460

                     88                     89                     90
                      A                      A                      A
 Frequencies --   1529.4685              1537.8326              1603.2987
 Red. masses --      2.3380                 3.4048                 6.2273
 Frc consts  --      3.2223                 4.7441                 9.4315
 IR Inten    --     67.5454                50.7336                20.3476

                     91                     92                     93
                      A                      A                      A
 Frequencies --   1611.5480              1616.6210              1628.7317
 Red. masses --      6.0394                 6.1441                 5.8992
 Frc consts  --      9.2413                 9.4608                 9.2203
 IR Inten    --     19.3603                82.6283                10.5953

                     94                     95                     96
                      A                      A                      A
 Frequencies --   1629.9124              1642.8012              1658.0491
 Red. masses --      5.8502                 5.8700                 6.0731
 Frc consts  --      9.1570                 9.3337                 9.8369
 IR Inten    --     72.3895                 3.5467                29.3127

                     97                     98                     99
                      A                      A                      A
 Frequencies --   3167.6173              3171.7149              3173.4448
 Red. masses --      1.0863                 1.0890                 1.0901
 Frc consts  --      6.4218                 6.4543                 6.4682
 IR Inten    --      3.9789                 0.3074                 4.9684

                    100                    101                    102
                      A                      A                      A
 Frequencies --   3176.1497              3176.2693              3182.7075
 Red. masses --      1.0864                 1.0874                 1.0934
 Frc consts  --      6.4572                 6.4636                 6.5259
 IR Inten    --      0.4633                 0.8532                36.1406

                    103                    104                    105
                      A                      A                      A
 Frequencies --   3183.4259              3183.9514              3190.7399
 Red. masses --      1.0886                 1.0900                 1.0919
 Frc consts  --      6.4999                 6.5105                 6.5498
 IR Inten    --      4.3629                11.1840                21.2224

                    106                    107                    108
                      A                      A                      A
 Frequencies --   3194.1978              3196.9043              3199.8304
 Red. masses --      1.0971                 1.0949                 1.0960
 Frc consts  --      6.5953                 6.5931                 6.6117
 IR Inten    --     36.6924                16.8837                23.8700

                    109                    110                    111
                      A                      A                      A
 Frequencies --   3202.0918              3213.8838              3222.6266
 Red. masses --      1.0982                 1.0894                 1.0916
 Frc consts  --      6.6343                 6.6300                 6.6793
 IR Inten    --      5.8820                 2.5213                 2.4477

 - Thermochemistry -
 -------------------
 Temperature   298.150 Kelvin.  Pressure   1.00000 Atm.
 Atom     1 has atomic number  6 and mass  12.00000

 Molecular mass:   325.09252 amu.
 Principal axes and moments of inertia in atomic units:
                           1         2         3
     Eigenvalues --  5733.493719493.09940**********
           X            0.99919   0.03612   0.01780
           Y           -0.03646   0.99915   0.01908
           Z           -0.01710  -0.01972   0.99966
 This molecule is an asymmetric top.
 Rotational symmetry number  1.
 Warning -- assumption of classical behavior for rotation
           may cause significant error
 Rotational temperatures (Kelvin)      0.01511     0.00912     0.00611
 Rotational constants (GHZ):           0.31477     0.19011     0.12732
 Zero-point vibrational energy     800712.5 (Joules/Mol)
                                  191.37487 (Kcal/Mol)
 Warning -- explicit consideration of  28 degrees of freedom as
           vibrations may cause significant error
 Vibrational temperatures:     36.53    55.78    72.95   103.34   115.40
          (Kelvin)            169.07   197.75   244.00   325.22   361.46
                              364.49   397.67   411.99   453.54   496.29
                              591.59   610.56   616.44   636.73   650.49
                              691.12   696.03   734.15   791.08   796.07
                              814.68   849.95   882.97   915.99   926.93
                              959.57   993.84  1023.50  1034.14  1055.92
                             1071.24  1094.50  1095.45  1124.87  1134.92
                             1169.44  1239.87  1241.00  1250.91  1259.24
                             1291.75  1314.59  1344.31  1357.14  1369.60
                             1396.82  1403.20  1410.55  1428.86  1431.18
                             1460.93  1477.10  1498.60  1510.13  1518.98
                             1545.48  1575.71  1579.32  1655.67  1660.27
                             1680.84  1689.18  1699.29  1707.28  1728.61
                             1770.08  1807.47  1829.13  1869.32  1869.42
                             1899.61  1903.21  1924.18  1943.63  1961.92
                             2002.88  2028.32  2115.68  2122.59  2125.47
                             2135.09  2178.06  2200.56  2212.60  2306.79
                             2318.66  2325.95  2343.38  2345.08  2363.62
                             2385.56  4557.49  4563.38  4565.87  4569.77
                             4569.94  4579.20  4580.23  4580.99  4590.76
                             4595.73  4599.63  4603.84  4607.09  4624.06
                             4636.64

 Zero-point correction=                           0.304975 (Hartree/Particle)
 Thermal correction to Energy=                    0.322623
 Thermal correction to Enthalpy=                  0.323568
 Thermal correction to Gibbs Free Energy=         0.258281
 Sum of electronic and zero-point Energies=          -1300.501979
 Sum of electronic and thermal Energies=             -1300.484331
 Sum of electronic and thermal Enthalpies=           -1300.483387
 Sum of electronic and thermal Free Energies=        -1300.548674

                     E (Thermal)             CV                S
                      KCal/Mol        Cal/Mol-Kelvin    Cal/Mol-Kelvin
 Total                  202.449             73.085            137.408
 Electronic               0.000              0.000              0.000
 Translational            0.889              2.981             43.232
 Rotational               0.889              2.981             34.999
 Vibrational            200.672             67.123             59.176
 Vibration     1          0.593              1.985              6.161
 Vibration     2          0.594              1.981              5.321
 Vibration     3          0.595              1.977              4.790
 Vibration     4          0.598              1.967              4.103
 Vibration     5          0.600              1.963              3.886
 Vibration     6          0.608              1.935              3.141
 Vibration     7          0.614              1.916              2.839
 Vibration     8          0.625              1.880              2.440
 Vibration     9          0.650              1.801              1.910
 Vibration    10          0.663              1.761              1.722
 Vibration    11          0.664              1.757              1.707
 Vibration    12          0.678              1.717              1.556
 Vibration    13          0.684              1.699              1.495
 Vibration    14          0.703              1.645              1.335
 Vibration    15          0.723              1.586              1.189
 Vibration    16          0.775              1.446              0.922
 Vibration    17          0.786              1.417              0.877
 Vibration    18          0.790              1.408              0.864
 Vibration    19          0.802              1.377              0.819
 Vibration    20          0.811              1.356              0.789
 Vibration    21          0.837              1.294              0.709
 Vibration    22          0.840              1.286              0.700
 Vibration    23          0.865              1.227              0.633
 Vibration    24          0.905              1.140              0.545
 Vibration    25          0.909              1.132              0.537
 Vibration    26          0.922              1.104              0.512
 Vibration    27          0.948              1.052              0.466
 Vibration    28          0.973              1.003              0.427

 1\1\GINC-CN013\Freq\RB3LYP\def2TZVP\C22H15N1S1\PNG4RJV\16-Feb-2021\0\\
 #P Geom=AllCheck Guess=TCheck SCRF=Check GenChk RB3LYP/def2TZVP Freq\\
 Title\\0,1\C,-4.1578910082,-2.3750854921,-0.5271327514\C,-2.9424044898
 ,-2.8684404404,-0.0705764384\C,-1.8866175761,-2.006846754,0.2073882248
 \C,-2.008255838,-0.6255901411,-0.01172979\C,-3.237915976,-0.144643829,
 -0.4759037235\C,-4.2993147252,-1.0072328623,-0.7191749667\C,0.40954249
 27,-0.1529561715,0.1727948275\C,0.7688579545,-1.5165653654,0.393578620
 2\C,2.0709295261,-1.9303149954,0.28794792\H,2.3157605473,-2.9738051701

 Normal termination of Gaussian 09 at Tue Feb 16 05:00:44 2021.
 Gaussian 09:  ES64L-G09RevE.01 30-Nov-2015

 ----------------------------------------------------------------------
 #p b3lyp chkbasis geom=allcheck Guess=Read int=ultrafine scrf=(SMD,sol
 vent=n,n-DiMethylAcetamide) td=(NStates=30) EmpiricalDispersion=GD3BJ
 ----------------------------------------------------------------------

 Structure from the checkpoint file:  "cp.chk"
 -----
 Title
 -----
 Charge =  0 Multiplicity = 1

                         Standard orientation:
 ---------------------------------------------------------------------
 Center     Atomic      Atomic             Coordinates (Angstroms)
 Number     Number       Type             X           Y           Z
 ---------------------------------------------------------------------
      1          6           0       -4.041442   -2.552990   -0.697976
      2          6           0       -2.814663   -3.005586   -0.229550
      3          6           0       -1.798700   -2.107742    0.080272
      4          6           0       -1.971893   -0.728808   -0.117774
      5          6           0       -3.212214   -0.289039   -0.594258
      6          6           0       -4.234298   -1.188700   -0.869506
      7          6           0        0.421847   -0.163922    0.114808
      8          6           0        0.831766   -1.515828    0.318769
      9          6           0        2.150843   -1.875719    0.227931
     10          1           0        2.434587   -2.911273    0.373360
     11          6           0        3.161308   -0.916552   -0.011557
     12          6           0        2.769600    0.443011   -0.171577
     13          6           0        1.398099    0.782212   -0.115746
     14          1           0       -2.644655   -4.064694   -0.080043
     15          1           0       -3.385611    0.765225   -0.743961
     16          1           0       -5.182919   -0.811446   -1.229446
     17          6           0       -1.267824    1.581837    0.191567
     18          6           0       -1.535548    2.191955    1.409479
     19          6           0       -1.313338    2.315258   -0.989581
     20          6           0       -1.852517    3.545739    1.448178
     21          6           0       -1.629682    3.667269   -0.947987
     22          6           0       -1.899420    4.283635    0.270474
     23          1           0       -2.061886    4.021860    2.397547
     24          1           0       -1.665644    4.239336   -1.866263
     25          1           0       -1.494189    1.603443    2.316888
     26          1           0       -1.101350    1.825472   -1.931076
     27          1           0       -2.145780    5.337369    0.300865
     28          1           0       -4.830966   -3.258106   -0.921445
     29          7           0       -0.940169    0.182494    0.178191
     30          1           0        1.128910    1.817918   -0.256831
     31         16           0       -0.336205   -2.725705    0.848827
     32          6           0        3.771305    1.416921   -0.399391
     33          6           0        5.094984    1.057909   -0.468077
     34          1           0        5.851556    1.812441   -0.643815
     35          6           0        4.531176   -1.257375   -0.086354
     36          6           0        5.480202   -0.290473   -0.311008
     37          1           0        6.527483   -0.558995   -0.367937
     38          1           0        4.818570   -2.294752    0.037684
     39          1           0        3.474807    2.451963   -0.520903
 ---------------------------------------------------------------------

 SCF Done:  E(RB3LYP) =  -1300.80696649     A.U. after    6 cycles

 Excitation energies and oscillator strengths:

 Excited State   1:      Singlet-A      3.3307 eV  372.25 nm  f=0.1216  <S**2>=0.000
      84 -> 87         0.12025
      85 -> 86         0.66127
      85 -> 87        -0.19635
 This state for optimization and/or second-order correction.
 Total Energy, E(TD-HF/TD-KS) =  -1300.68456547
 Copying the excited state density for this state as the 1-particle RhoCI density.

 Excited State   2:      Singlet-A      3.5400 eV  350.24 nm  f=0.0784  <S**2>=0.000
      84 -> 86        -0.11220
      84 -> 87         0.10705
      85 -> 86         0.17633
      85 -> 87         0.65449

 Excited State   3:      Singlet-A      3.8755 eV  319.92 nm  f=0.0050  <S**2>=0.000
      85 -> 88         0.64173
      85 -> 89        -0.23357

 Excited State   4:      Singlet-A      3.9624 eV  312.90 nm  f=0.0115  <S**2>=0.000
      85 -> 88         0.20286
      85 -> 89         0.65198

 Excited State   5:      Singlet-A      4.0412 eV  306.80 nm  f=0.0971  <S**2>=0.000
      84 -> 86         0.66624
      84 -> 87         0.10537
      85 -> 88         0.11956

 Excited State   6:      Singlet-A      4.1813 eV  296.52 nm  f=0.0069  <S**2>=0.000
      84 -> 87        -0.14745
      85 -> 90         0.66551

 Excited State   7:      Singlet-A      4.3002 eV  288.32 nm  f=0.9103  <S**2>=0.000
      82 -> 86         0.16077
      84 -> 87         0.62130
      85 -> 86        -0.14200
      85 -> 88        -0.11441
      85 -> 90         0.16737

 Excited State   8:      Singlet-A      4.6066 eV  269.14 nm  f=0.0213  <S**2>=0.000
      82 -> 86         0.10897
      84 -> 87        -0.11640
      84 -> 88         0.67391

 Excited State   9:      Singlet-A      4.6896 eV  264.38 nm  f=0.0008  <S**2>=0.000
      84 -> 89         0.69543

 Excited State  10:      Singlet-A      4.7641 eV  260.25 nm  f=0.0670  <S**2>=0.000
      83 -> 86        -0.18947
      84 -> 90         0.11509
      85 -> 91         0.61446
      85 -> 93         0.14634

 Excited State  11:      Singlet-A      4.8743 eV  254.36 nm  f=0.0540  <S**2>=0.000
      84 -> 90         0.66814
      85 -> 91        -0.15513

 Excited State  12:      Singlet-A      4.9112 eV  252.45 nm  f=0.0432  <S**2>=0.000
      82 -> 86         0.24606
      83 -> 86        -0.14111
      83 -> 87        -0.12894
      84 -> 90         0.12881
      84 -> 91        -0.17951
      85 -> 91         0.10429
      85 -> 92         0.50254
      85 -> 93        -0.24061

 Excited State  13:      Singlet-A      4.9512 eV  250.41 nm  f=0.0662  <S**2>=0.000
      82 -> 86         0.12677
      83 -> 86         0.63147
      84 -> 91        -0.10045
      85 -> 91         0.16736

 Excited State  14:      Singlet-A      4.9697 eV  249.48 nm  f=0.0066  <S**2>=0.000
      84 -> 93         0.13229
      85 -> 91        -0.10258
      85 -> 92         0.35889
      85 -> 93         0.55503

 Excited State  15:      Singlet-A      5.0424 eV  245.88 nm  f=0.2606  <S**2>=0.000
      82 -> 86         0.38484
      83 -> 86        -0.15820
      83 -> 87        -0.20143
      84 -> 87        -0.10575
      84 -> 88        -0.10143
      84 -> 91        -0.29895
      85 -> 92        -0.30573
      85 -> 93         0.22062

 Excited State  16:      Singlet-A      5.2536 eV  236.00 nm  f=0.0113  <S**2>=0.000
      80 -> 86        -0.19480
      80 -> 88        -0.12511
      81 -> 86         0.52173
      81 -> 89         0.18850
      82 -> 86         0.12751
      83 -> 87        -0.18512
      84 -> 91         0.18227

 Excited State  17:      Singlet-A      5.2902 eV  234.37 nm  f=0.0584  <S**2>=0.000
      81 -> 86         0.38751
      81 -> 89        -0.12423
      82 -> 88        -0.10169
      83 -> 87         0.44578
      84 -> 91        -0.27563

 Excited State  18:      Singlet-A      5.3498 eV  231.76 nm  f=0.0435  <S**2>=0.000
      80 -> 86         0.36876
      80 -> 87        -0.12733
      80 -> 88         0.16295
      81 -> 86         0.22377
      81 -> 87         0.11862
      81 -> 89        -0.23271
      82 -> 87         0.13595
      83 -> 87        -0.26265
      83 -> 88        -0.14325
      84 -> 91         0.21348
      84 -> 92         0.11048

 Excited State  19:      Singlet-A      5.3712 eV  230.83 nm  f=0.0972  <S**2>=0.000
      79 -> 86         0.10255
      80 -> 86         0.36440
      80 -> 87         0.16025
      80 -> 88        -0.12048
      81 -> 87        -0.10827
      81 -> 89         0.15379
      82 -> 86        -0.23732
      83 -> 88         0.17494
      84 -> 91        -0.25555
      84 -> 92         0.27156

 Excited State  20:      Singlet-A      5.4700 eV  226.66 nm  f=0.0091  <S**2>=0.000
      79 -> 86         0.18147
      80 -> 86        -0.36411
      84 -> 92         0.53541

 Excited State  21:      Singlet-A      5.5349 eV  224.00 nm  f=0.3677  <S**2>=0.000
      79 -> 86         0.10484
      80 -> 86         0.18407
      80 -> 88        -0.11926
      81 -> 89         0.15918
      82 -> 86         0.29144
      82 -> 88        -0.16258
      82 -> 90         0.14690
      83 -> 87         0.19783
      84 -> 91         0.29914
      84 -> 92         0.22573

 Excited State  22:      Singlet-A      5.6055 eV  221.18 nm  f=0.0192  <S**2>=0.000
      81 -> 87         0.22260
      82 -> 87         0.42800
      83 -> 88         0.43895
      84 -> 93        -0.18811

 Excited State  23:      Singlet-A      5.6421 eV  219.75 nm  f=0.1455  <S**2>=0.000
      81 -> 87         0.12632
      82 -> 86         0.10714
      83 -> 88         0.17399
      83 -> 89        -0.16441
      84 -> 93         0.58842
      85 -> 93        -0.15910

 Excited State  24:      Singlet-A      5.6521 eV  219.36 nm  f=0.0100  <S**2>=0.000
      80 -> 87         0.17705
      80 -> 88        -0.13355
      81 -> 87         0.35461
      81 -> 89         0.18318
      83 -> 88        -0.17509
      83 -> 89         0.46281
      84 -> 93         0.10928

 Excited State  25:      Singlet-A      5.6818 eV  218.21 nm  f=0.0636  <S**2>=0.000
      81 -> 87         0.48274
      82 -> 87        -0.27213
      83 -> 89        -0.34740
      84 -> 93        -0.16120

 Excited State  26:      Singlet-A      5.7434 eV  215.87 nm  f=0.2227  <S**2>=0.000
      80 -> 88        -0.11162
      82 -> 87         0.34694
      82 -> 88         0.15012
      83 -> 88        -0.30053
      83 -> 89        -0.27555
      83 -> 90        -0.29940

 Excited State  27:      Singlet-A      5.7859 eV  214.29 nm  f=0.0122  <S**2>=0.000
      80 -> 87         0.50327
      80 -> 88         0.16423
      82 -> 88        -0.37777
      83 -> 87        -0.11968

 Excited State  28:      Singlet-A      5.8532 eV  211.82 nm  f=0.0589  <S**2>=0.000
      78 -> 86        -0.12040
      79 -> 87        -0.10901
      80 -> 87        -0.24964
      80 -> 88        -0.14442
      81 -> 88         0.13586
      82 -> 86        -0.12816
      82 -> 88        -0.29418
      83 -> 87        -0.12079
      83 -> 88        -0.18704
      83 -> 90         0.35649
      83 -> 91         0.11872

 Excited State  29:      Singlet-A      5.9069 eV  209.90 nm  f=0.0024  <S**2>=0.000
      80 -> 88        -0.12285
      81 -> 88        -0.10691
      82 -> 88        -0.20054
      82 -> 89         0.63200

 Excited State  30:      Singlet-A      5.9476 eV  208.46 nm  f=0.0547  <S**2>=0.000
      80 -> 89         0.15876
      80 -> 90         0.11324
      81 -> 88         0.59178
      81 -> 90        -0.19108

 The electronic state is 1-A.
 Alpha  occ. eigenvalues --  -88.87151 -14.36069 -10.23148 -10.22963 -10.21621
 Alpha  occ. eigenvalues --  -10.21396 -10.20942 -10.18611 -10.18391 -10.18114
 Alpha  occ. eigenvalues --  -10.18003 -10.17922 -10.17918 -10.17857 -10.17836
 Alpha  occ. eigenvalues --  -10.17762 -10.17488 -10.17429 -10.17393 -10.17295
 Alpha  occ. eigenvalues --  -10.17251 -10.17227 -10.17119 -10.17073  -7.94829
 Alpha  occ. eigenvalues --   -5.91151  -5.90801  -5.90275  -0.98380  -0.88348
 Alpha  occ. eigenvalues --   -0.87338  -0.85573  -0.83810  -0.79969  -0.77840
 Alpha  occ. eigenvalues --   -0.76084  -0.75516  -0.75372  -0.74484  -0.71397
 Alpha  occ. eigenvalues --   -0.69157  -0.64516  -0.63496  -0.61738  -0.61425
 Alpha  occ. eigenvalues --   -0.60089  -0.59043  -0.57870  -0.54829  -0.53865
 Alpha  occ. eigenvalues --   -0.51108  -0.50152  -0.49893  -0.47618  -0.46832
 Alpha  occ. eigenvalues --   -0.46624  -0.45498  -0.44942  -0.44339  -0.43606
 Alpha  occ. eigenvalues --   -0.43181  -0.42837  -0.42249  -0.41854  -0.41429
 Alpha  occ. eigenvalues --   -0.39768  -0.39473  -0.37805  -0.37240  -0.36674
 Alpha  occ. eigenvalues --   -0.36259  -0.36139  -0.35280  -0.34580  -0.33859
 Alpha  occ. eigenvalues --   -0.32948  -0.32277  -0.30166  -0.28921  -0.26688
 Alpha  occ. eigenvalues --   -0.26313  -0.25888  -0.25111  -0.21395  -0.19325
 Alpha virt. eigenvalues --   -0.04855  -0.03475  -0.02353  -0.02140  -0.01417
 Alpha virt. eigenvalues --    0.00129   0.01270   0.02392   0.05195   0.05698
 Alpha virt. eigenvalues --    0.06832   0.07104   0.07541   0.08506   0.08753

 Mulliken charges:
               1
     1  C   -0.183400
     2  C   -0.175916
     3  C   -0.020507
     4  C    0.168540
     5  C   -0.244378
     6  C   -0.161851
     7  C    0.127377
     8  C    0.066438
     9  C   -0.276011
    10  H    0.137836
    11  C    0.095956
    12  C    0.118778
    13  C   -0.302924
    14  H    0.146199
    15  H    0.174186
    16  H    0.149306
    17  C    0.135762
    18  C   -0.208709
    19  C   -0.235225
    20  C   -0.123255
    21  C   -0.105188
    22  C   -0.134632
    23  H    0.150583
    24  H    0.151980
    25  H    0.147258
    26  H    0.148133
    27  H    0.152825
    28  H    0.148093
    29  N    0.013220
    30  H    0.176246
    31  S   -0.062248
    32  C   -0.244232
    33  C   -0.144955
    34  H    0.146935
    35  C   -0.218343
    36  C   -0.144478
    37  H    0.147286
    38  H    0.142918
    39  H    0.140396
 Sum of Mulliken charges =  -0.00000

 Dipole moment (field-independent basis, Debye):
    X=             -1.2401    Y=              3.0700    Z=             -0.8339  Tot=              3.4143
 Quadrupole moment (field-independent basis, Debye-Ang):
   XX=           -133.9299   YY=           -127.9101   ZZ=           -147.2622
   XY=             -4.4723   XZ=              1.4023   YZ=             -0.8465

 Normal termination of Gaussian 09 at Tue Feb 16 07:03:53 2021.
