                         Program Version 5.0.2 -  RELEASE  -
|  1> %maxcore 20000
|  2> %pal
|  3>  nprocs= 6
|  4> end
|  5> ! RI-SCS-PBE-QIDH   def2-TZVP def2/J def2-TZVP/C RIJCOSX CPCM TightSCF
|  6> %TDDFT
|  7>    NROOTS   30
|  8>    dcorr 4
|  9>    doscs true
| 10>    TDA      FALSE
| 11> END
| 12>
| 13> %CPCM
| 14>    SMD          TRUE
| 15>    SMDsolvent   "N,N-DIMETHYLACETAMIDE"
| 16> END
| 17>
| 18>
| 19> * xyz 0 1
| 20> C                  -4.14164500   -2.46300300   -0.56122300
| 21> C                  -2.89708500   -2.95154600   -0.19768700
| 22> C                  -1.83913000   -2.08903100    0.05976900
| 23> C                  -1.99528000   -0.70233100   -0.08283000
| 24> C                  -3.25710800   -0.22754800   -0.45352000
| 25> C                  -4.31455600   -1.09428700   -0.67966000
| 26> C                   0.41700400   -0.18324600    0.09852000
| 27> C                   0.81220500   -1.54358300    0.24579400
| 28> C                   2.13131000   -1.90558200    0.16175400
| 29> H                   2.40302700   -2.94963600    0.26866100
| 30> C                   3.15250100   -0.95178300   -0.02213500
| 31> C                   2.77399800    0.41534500   -0.13410200
| 32> C                   1.40783600    0.75982700   -0.08143300
| 33> H                  -2.73900100   -4.01780900   -0.08879900
| 34> H                  -3.41728400    0.83556000   -0.55946400
| 35> H                  -5.27746600   -0.68515600   -0.95746300
| 36> C                  -1.23144600    1.58988300    0.16316500
| 37> C                  -1.44230800    2.22989500    1.37461000
| 38> C                  -1.29856100    2.29933200   -1.02962300
| 39> C                  -1.72374300    3.58887100    1.39341800
| 40> C                  -1.58055900    3.65594100   -1.00535400
| 41> C                  -1.79283600    4.30168800    0.20560300
| 42> H                  -1.88892500    4.08963000    2.33891500
| 43> H                  -1.63400600    4.21032700   -1.93372400
| 44> H                  -1.38401700    1.65956000    2.29339900
| 45> H                  -1.12920200    1.78246900   -1.96665700
| 46> H                  -2.01234100    5.36168000    0.22205000
| 47> H                  -4.96006700   -3.14611200   -0.74507900
| 48> N                  -0.93473300    0.18458300    0.16055300
| 49> H                   1.14872200    1.80453300   -0.18323800
| 50> S                  -0.35150300   -2.78066700    0.68072400
| 51> C                   3.78441900    1.38479100   -0.30855900
| 52> C                   5.10510400    1.01852700   -0.37283600
| 53> H                   5.86911900    1.77393600   -0.50867400
| 54> C                   4.51657300   -1.29854500   -0.09042200
| 55> C                   5.47596700   -0.33279500   -0.26364900
| 56> H                   6.52151700   -0.60905100   -0.31653600
| 57> H                   4.79358000   -2.34290800   -0.00327500
| 58> H                   3.49757800    2.42665300   -0.39316800
| 59> *
| 60>
| 61>
| 62>                          ****END OF INPUT****

CARTESIAN COORDINATES (ANGSTROEM)
---------------------------------
  C     -4.141645   -2.463003   -0.561223
  C     -2.897085   -2.951546   -0.197687
  C     -1.839130   -2.089031    0.059769
  C     -1.995280   -0.702331   -0.082830
  C     -3.257108   -0.227548   -0.453520
  C     -4.314556   -1.094287   -0.679660
  C      0.417004   -0.183246    0.098520
  C      0.812205   -1.543583    0.245794
  C      2.131310   -1.905582    0.161754
  H      2.403027   -2.949636    0.268661
  C      3.152501   -0.951783   -0.022135
  C      2.773998    0.415345   -0.134102
  C      1.407836    0.759827   -0.081433
  H     -2.739001   -4.017809   -0.088799
  H     -3.417284    0.835560   -0.559464
  H     -5.277466   -0.685156   -0.957463
  C     -1.231446    1.589883    0.163165
  C     -1.442308    2.229895    1.374610
  C     -1.298561    2.299332   -1.029623
  C     -1.723743    3.588871    1.393418
  C     -1.580559    3.655941   -1.005354
  C     -1.792836    4.301688    0.205603
  H     -1.888925    4.089630    2.338915
  H     -1.634006    4.210327   -1.933724
  H     -1.384017    1.659560    2.293399
  H     -1.129202    1.782469   -1.966657
  H     -2.012341    5.361680    0.222050
  H     -4.960067   -3.146112   -0.745079
  N     -0.934733    0.184583    0.160553
  H      1.148722    1.804533   -0.183238
  S     -0.351503   -2.780667    0.680724
  C      3.784419    1.384791   -0.308559
  C      5.105104    1.018527   -0.372836
  H      5.869119    1.773936   -0.508674
  C      4.516573   -1.298545   -0.090422
  C      5.475967   -0.332795   -0.263649
  H      6.521517   -0.609051   -0.316536
  H      4.793580   -2.342908   -0.003275
  H      3.497578    2.426653   -0.393168

 Total Charge           Charge          ....    0
 Multiplicity           Mult            ....    1
 Number of Electrons    NEL             ....  170
 Basis Dimension        Dim             ....  840

ORBITAL ENERGIES
----------------

  NO   OCC          E(Eh)            E(eV)
   0   2.0000     -90.759342     -2469.6873
   1   2.0000     -15.124942      -411.5706
   2   2.0000     -10.885678      -296.2144
   3   2.0000     -10.883273      -296.1489
   4   2.0000     -10.865963      -295.6779
   5   2.0000     -10.864370      -295.6345
   6   2.0000     -10.860144      -295.5195
   7   2.0000     -10.835399      -294.8462
   8   2.0000     -10.832064      -294.7554
   9   2.0000     -10.831129      -294.7300
  10   2.0000     -10.829124      -294.6754
  11   2.0000     -10.825486      -294.5764
  12   2.0000     -10.825424      -294.5748
  13   2.0000     -10.824649      -294.5537
  14   2.0000     -10.824179      -294.5409
  15   2.0000     -10.823383      -294.5192
  16   2.0000     -10.823178      -294.5136
  17   2.0000     -10.822480      -294.4947
  18   2.0000     -10.821148      -294.4584
  19   2.0000     -10.821144      -294.4583
  20   2.0000     -10.819874      -294.4237
  21   2.0000     -10.819638      -294.4173
  22   2.0000     -10.818362      -294.3826
  23   2.0000     -10.817105      -294.3484
  24   2.0000      -8.588976      -233.7179
  25   2.0000      -6.375487      -173.4858
  26   2.0000      -6.373254      -173.4251
  27   2.0000      -6.371088      -173.3661
  28   2.0000      -1.193711       -32.4825
  29   2.0000      -1.083186       -29.4750
  30   2.0000      -1.069692       -29.1078
  31   2.0000      -1.049863       -28.5682
  32   2.0000      -1.028010       -27.9736
  33   2.0000      -0.981952       -26.7203
  34   2.0000      -0.960466       -26.1356
  35   2.0000      -0.938142       -25.5281
  36   2.0000      -0.931836       -25.3566
  37   2.0000      -0.930521       -25.3208
  38   2.0000      -0.919832       -25.0299
  39   2.0000      -0.883554       -24.0427
  40   2.0000      -0.852478       -23.1971
  41   2.0000      -0.795152       -21.6372
  42   2.0000      -0.785216       -21.3668
  43   2.0000      -0.764375       -20.7997
  44   2.0000      -0.762245       -20.7417
  45   2.0000      -0.744519       -20.2594
  46   2.0000      -0.731549       -19.9065
  47   2.0000      -0.719495       -19.5785
  48   2.0000      -0.675785       -18.3890
  49   2.0000      -0.664340       -18.0776
  50   2.0000      -0.634938       -17.2775
  51   2.0000      -0.625607       -17.0236
  52   2.0000      -0.619808       -16.8658
  53   2.0000      -0.595421       -16.2022
  54   2.0000      -0.586286       -15.9536
  55   2.0000      -0.583170       -15.8689
  56   2.0000      -0.570665       -15.5286
  57   2.0000      -0.563574       -15.3356
  58   2.0000      -0.555911       -15.1271
  59   2.0000      -0.545937       -14.8557
  60   2.0000      -0.541539       -14.7360
  61   2.0000      -0.537496       -14.6260
  62   2.0000      -0.530542       -14.4368
  63   2.0000      -0.527019       -14.3409
  64   2.0000      -0.521253       -14.1840
  65   2.0000      -0.501295       -13.6409
  66   2.0000      -0.496343       -13.5062
  67   2.0000      -0.475628       -12.9425
  68   2.0000      -0.473120       -12.8742
  69   2.0000      -0.464391       -12.6367
  70   2.0000      -0.460910       -12.5420
  71   2.0000      -0.458278       -12.4704
  72   2.0000      -0.447592       -12.1796
  73   2.0000      -0.441819       -12.0225
  74   2.0000      -0.432360       -11.7651
  75   2.0000      -0.421665       -11.4741
  76   2.0000      -0.412607       -11.2276
  77   2.0000      -0.382800       -10.4165
  78   2.0000      -0.363614        -9.8944
  79   2.0000      -0.329685        -8.9712
  80   2.0000      -0.324940        -8.8421
  81   2.0000      -0.321265        -8.7421
  82   2.0000      -0.314236        -8.5508
  83   2.0000      -0.267846        -7.2885
  84   2.0000      -0.247086        -6.7235
  85   0.0000       0.017408         0.4737
  86   0.0000       0.032741         0.8909
  87   0.0000       0.048226         1.3123
  88   0.0000       0.053200         1.4476
  89   0.0000       0.061899         1.6844

MULLIKEN ATOMIC CHARGES
-----------------------
   0 C :   -0.223765
   1 C :   -0.167794
   2 C :   -0.148097
   3 C :    0.304719
   4 C :   -0.332996
   5 C :   -0.159056
   6 C :    0.241786
   7 C :   -0.045253
   8 C :   -0.319854
   9 H :    0.172999
  10 C :    0.117495
  11 C :    0.216485
  12 C :   -0.396193
  13 H :    0.174952
  14 H :    0.184362
  15 H :    0.172751
  16 C :    0.144999
  17 C :   -0.264118
  18 C :   -0.282166
  19 C :   -0.124592
  20 C :   -0.118463
  21 C :   -0.154582
  22 H :    0.173024
  23 H :    0.173623
  24 H :    0.170373
  25 H :    0.171162
  26 H :    0.173672
  27 H :    0.172423
  28 N :    0.041000
  29 H :    0.189421
  30 S :   -0.024681
  31 C :   -0.328075
  32 C :   -0.159409
  33 H :    0.170069
  34 C :   -0.271060
  35 C :   -0.158302
  36 H :    0.172023
  37 H :    0.172238
  38 H :    0.168878
Sum of atomic charges:    0.0000000

LOEWDIN ATOMIC CHARGES
----------------------
   0 C :   -0.165349
   1 C :   -0.149870
   2 C :   -0.346162
   3 C :   -0.158187
   4 C :   -0.122786
   5 C :   -0.146417
   6 C :   -0.155943
   7 C :   -0.336328
   8 C :   -0.105693
   9 H :    0.162941
  10 C :   -0.115983
  11 C :   -0.106799
  12 C :   -0.087749
  13 H :    0.157338
  14 H :    0.165122
  15 H :    0.156676
  16 C :   -0.176862
  17 C :   -0.101749
  18 C :   -0.104479
  19 C :   -0.139376
  20 C :   -0.140399
  21 C :   -0.140532
  22 H :    0.156130
  23 H :    0.156201
  24 H :    0.162261
  25 H :    0.164097
  26 H :    0.155391
  27 H :    0.154220
  28 N :    0.270441
  29 H :    0.169412
  30 S :    0.670753
  31 C :   -0.112052
  32 C :   -0.149409
  33 H :    0.154480
  34 C :   -0.107662
  35 C :   -0.156593
  36 H :    0.153687
  37 H :    0.159041
  38 H :    0.158189

  Mayer bond orders larger than 0.100000
B(  0-C ,  1-C ) :   1.3993 B(  0-C ,  5-C ) :   1.4028 B(  0-C , 27-H ) :   0.9824
B(  1-C ,  2-C ) :   1.3695 B(  1-C , 13-H ) :   0.9731 B(  2-C ,  3-C ) :   1.2605
B(  2-C , 30-S ) :   1.1190 B(  3-C ,  4-C ) :   1.3425 B(  3-C , 28-N ) :   1.0917
B(  4-C ,  5-C ) :   1.4173 B(  4-C , 14-H ) :   0.9691 B(  5-C , 15-H ) :   0.9763
B(  6-C ,  7-C ) :   1.1601 B(  6-C , 12-C ) :   1.4446 B(  6-C , 28-N ) :   1.1226
B(  7-C ,  8-C ) :   1.4818 B(  7-C , 30-S ) :   1.1156 B(  8-C ,  9-H ) :   0.9856
B(  8-C , 10-C ) :   1.2140 B( 10-C , 11-C ) :   1.2829 B( 10-C , 34-C ) :   1.2518
B( 11-C , 12-C ) :   1.2057 B( 11-C , 31-C ) :   1.2245 B( 12-C , 29-H ) :   0.9678
B( 16-C , 17-C ) :   1.4825 B( 16-C , 18-C ) :   1.4243 B( 16-C , 28-N ) :   0.7526
B( 17-C , 19-C ) :   1.4278 B( 17-C , 24-H ) :   0.9825 B( 18-C , 20-C ) :   1.4219
B( 18-C , 25-H ) :   0.9840 B( 19-C , 21-C ) :   1.4060 B( 19-C , 22-H ) :   0.9758
B( 20-C , 21-C ) :   1.3916 B( 20-C , 23-H ) :   0.9733 B( 21-C , 26-H ) :   0.9741
B( 31-C , 32-C ) :   1.5512 B( 31-C , 38-H ) :   0.9912 B( 32-C , 33-H ) :   0.9799
B( 32-C , 35-C ) :   1.2532 B( 34-C , 35-C ) :   1.5335 B( 34-C , 37-H ) :   0.9870
B( 35-C , 36-H ) :   0.9781

MP2 TOTAL ENERGY:    -1299.237136660 Eh

-----------------------------------------------------------------------------
         ABSORPTION SPECTRUM VIA TRANSITION ELECTRIC DIPOLE MOMENTS
-----------------------------------------------------------------------------
State   Energy    Wavelength  fosc         T2        TX        TY        TZ
        (cm-1)      (nm)                 (au**2)    (au)      (au)      (au)
-----------------------------------------------------------------------------
   1   29376.0    340.4   0.028426232   0.31857   0.55746   0.04680  -0.07497
   2   29503.0    338.9   0.156837539   1.75009  -0.99721  -0.86122   0.11820
   3   34793.1    287.4   0.067349156   0.63726  -0.73174   0.29779   0.11464
   4   33258.5    300.7   0.091110349   0.90186   0.85222  -0.36631   0.20346
   5   36393.0    274.8   1.512198662  13.67937  -3.64567  -0.62008   0.06276
   6   36956.7    270.6   0.011205361   0.09982   0.30602  -0.07588   0.02021
   7   41263.8    242.3   0.016825533   0.13424   0.30535   0.17858  -0.09544
   8   41416.3    241.5   0.250694568   1.99273   1.31033  -0.52149   0.06189
   9   40535.9    246.7   0.032216800   0.26165  -0.47563   0.10918  -0.15332
  10   42133.4    237.3   0.088563801   0.69200  -0.09395  -0.81126   0.15819
  11   43443.8    230.2   0.460311696   3.48819  -1.33173  -1.29114  -0.21829
  12   48562.7    205.9   0.063558696   0.43087   0.52392   0.39332   0.04103
  13   43957.8    227.5   0.113716274   0.85165  -0.69446   0.60728   0.02414
  14   46459.6    215.2   0.363131847   2.57315  -0.81245   1.37950   0.10025
  15   46136.8    216.7   0.067326143   0.48041   0.11117   0.54702  -0.41088
  16   45194.1    221.3   0.142941248   1.04124  -1.00925  -0.06266   0.13689
  17   45569.9    219.4   0.031641697   0.22859   0.16674   0.43594  -0.10367
  18   46733.7    214.0   0.078979880   0.55637  -0.16576  -0.59679  -0.41562
  19   49965.1    200.1   0.213024179   1.40358   0.55187   1.01800  -0.25041
  20   51164.3    195.4   0.213234438   1.37204  -0.24957  -1.06416   0.42109
  21   50094.7    199.6   0.419962920   2.75991  -0.35466   1.37919  -0.85555
  22   51799.2    193.1   0.476245054   3.02679  -0.20290   0.84781   1.50560
  23   49947.7    200.2   0.079747954   0.52563   0.33723   0.64075   0.03666
  24   51936.7    192.5   0.286683802   1.81721   0.43114  -1.27085  -0.12752
  25   51099.9    195.7   0.011624126   0.07489   0.14555   0.12284   0.19651
  26   50939.0    196.3   0.028685109   0.18539   0.11622   0.17801  -0.37443
  27   52662.4    189.9   0.041813531   0.26139  -0.26369   0.42368   0.11115
  28   51325.7    194.8   0.026351039   0.16902  -0.24026  -0.32225  -0.08630
  29   50764.0    197.0   0.001067702   0.00692   0.07842  -0.00705  -0.02693
  30   52087.3    192.0   0.039704299   0.25095  -0.46225   0.07960  -0.17589

FINAL SINGLE POINT ENERGY     -1297.692252115682

DIPOLE MOMENT
-------------
                                X             Y             Z
Electronic contribution:     -0.20854      -8.86547       2.18626
Nuclear contribution   :     -0.19956      10.08607      -2.50481
                        -----------------------------------------
Total Dipole Moment    :     -0.40809       1.22060      -0.31856
                        -----------------------------------------
Magnitude (a.u.)       :      1.32585
Magnitude (Debye)      :      3.37005

Rotational constants in cm-1:     0.010608     0.006356     0.004225
Rotational constants in MHz :   318.005228   190.553560   126.647559

                             ****ORCA TERMINATED NORMALLY****
TOTAL RUN TIME: 0 days 5 hours 26 minutes 55 seconds 629 msec
