 Gaussian 09, Revision E.01,

 ----------------------------------------------------------------------
 #p B97D3/def2TZVP opt freq=noraman nosymm int=ultrafine scrf=(SMD,solv
 ent=n,n-DiMethylAcetamide)
 ----------------------------------------------------------------------

 -----
 Title
 -----
 Symbolic Z-matrix:
 Charge =  0 Multiplicity = 1

 SCF Done:  E(RB97D3) =  -1300.10296398     A.U. after   14 cycles
 SCF Done:  E(RB97D3) =  -1300.10337856     A.U. after    9 cycles
 SCF Done:  E(RB97D3) =  -1300.10339501     A.U. after    8 cycles
 SCF Done:  E(RB97D3) =  -1300.10339806     A.U. after    8 cycles
 SCF Done:  E(RB97D3) =  -1300.10339872     A.U. after    8 cycles
 SCF Done:  E(RB97D3) =  -1300.10339914     A.U. after    8 cycles
 SCF Done:  E(RB97D3) =  -1300.10339933     A.U. after    7 cycles
 Optimization completed.
    -- Stationary point found.

 1\1\GINC-CN016\FOpt\RB97D3\def2TZVP\C22H15N1S1\PNG4RJV\30-Mar-2021\0\\
 #p B97D3/def2TZVP opt freq=noraman nosymm int=ultrafine scrf=(SMD,solv
 ent=n,n-DiMethylAcetamide)\\Title\\0,1\C,-4.2055919705,-2.3736531077,-
 0.4851942815\C,-2.9709099317,-2.8830966312,-0.0832429151\C,-1.89609024
 85,-2.0282831761,0.174206444\C,-2.0207445572,-0.6354330904,-0.01357276
 04\C,-3.2709803807,-0.1395222957,-0.422939287\C,-4.3491544284,-0.99597
 89395,-0.6444638178\C,0.4096321393,-0.1669906465,0.1528289693\C,0.7728
 072191,-1.5397301373,0.3389319477\C,2.0860901365,-1.946454459,0.235096

 Normal termination of Gaussian 09 at Tue Mar 30 06:51:05 2021.

 --------------------------------------------------------------------
 #P Geom=AllCheck Guess=TCheck SCRF=Check GenChk RB97D3/def2TZVP Freq
 --------------------------------------------------------------------

 Structure from the checkpoint file:  "cp.chk"
 -----
 Title
 -----
 Charge =  0 Multiplicity = 1

 SCF Done:  E(RB97D3) =  -1300.10339933     A.U. after    1 cycles

  Exact polarizability: 699.003  43.936 493.320  -2.960 -24.285 285.436
 Approx polarizability: 881.171  59.501 660.801  -9.363 -43.651 377.768

                      1                      2                      3
                      A                      A                      A
 Frequencies --     25.6019                37.3146                48.8459
 Red. masses --      6.2501                 4.1413                 4.9180
 Frc consts  --      0.0024                 0.0034                 0.0069
 IR Inten    --      0.3410                 0.2546                 1.0823

                      4                      5                      6
                      A                      A                      A
 Frequencies --     66.7219                78.4117               113.6297
 Red. masses --      4.5505                 4.4541                 5.5630
 Frc consts  --      0.0119                 0.0161                 0.0423
 IR Inten    --      0.1088                 0.3299                 0.3772

                      7                      8                      9
                      A                      A                      A
 Frequencies --    135.5946               163.6183               221.6668
 Red. masses --      4.7357                 6.1262                 6.2242
 Frc consts  --      0.0513                 0.0966                 0.1802
 IR Inten    --      0.3042                 0.7613                 1.9431

                     10                     11                     12
                      A                      A                      A
 Frequencies --    243.7014               244.8309               269.9647
 Red. masses --      4.3116                 4.9778                 4.8046
 Frc consts  --      0.1509                 0.1758                 0.2063
 IR Inten    --      0.8459                 3.3563                 5.8027

                     13                     14                     15
                      A                      A                      A
 Frequencies --    280.9972               306.1622               335.4396
 Red. masses --      6.0826                 6.1247                 6.1724
 Frc consts  --      0.2830                 0.3383                 0.4092
 IR Inten    --      1.8338                 1.2472                 0.3224

                     16                     17                     18
                      A                      A                      A
 Frequencies --    401.7116               410.5750               415.9773
 Red. masses --      4.9126                 3.0041                 5.2082
 Frc consts  --      0.4671                 0.2984                 0.5310
 IR Inten    --      4.0173                 0.3129                 6.3406

                     19                     20                     21
                      A                      A                      A
 Frequencies --    429.6348               442.4256               465.3254
 Red. masses --      3.5451                 7.0319                 2.6856
 Frc consts  --      0.3855                 0.8110                 0.3426
 IR Inten    --      3.5047                 4.7231                31.0820

                     22                     23                     24
                      A                      A                      A
 Frequencies --    471.7079               498.1429               536.1917
 Red. masses --      5.3099                 5.1421                 4.7892
 Frc consts  --      0.6961                 0.7518                 0.8112
 IR Inten    --      3.5039                 3.5930                 8.4111

                     25                     26                     27
                      A                      A                      A
 Frequencies --    537.0867               549.5773               576.7194
 Red. masses --      4.3447                 4.1506                 5.1138
 Frc consts  --      0.7384                 0.7386                 1.0021
 IR Inten    --      2.1694                 1.7635                42.8261

                     28                     29                     30
                      A                      A                      A
 Frequencies --    600.0769               622.0345               629.9845
 Red. masses --      6.9548                 6.4724                 6.5378
 Frc consts  --      1.4755                 1.4755                 1.5288
 IR Inten    --     32.7712                 0.8389                 2.0030

                     31                     32                     33
                      A                      A                      A
 Frequencies --    652.7033               674.4236               685.8100
 Red. masses --      6.6531                 6.4073                 5.4548
 Frc consts  --      1.6700                 1.7171                 1.5116
 IR Inten    --     14.6103                 4.1290                 5.0731

                     34                     35                     36
                      A                      A                      A
 Frequencies --    698.0644               710.8144               721.8000
 Red. masses --      1.7538                 3.4725                 3.6739
 Frc consts  --      0.5035                 1.0337                 1.1277
 IR Inten    --     94.3433                 7.5478                 6.8734

                     37                     38                     39
                      A                      A                      A
 Frequencies --    731.7705               735.6576               757.0035
 Red. masses --      1.3739                 1.2575                 2.8023
 Frc consts  --      0.4335                 0.4010                 0.9461
 IR Inten    --    120.8331                83.9528                 2.6901

                     40                     41                     42
                      A                      A                      A
 Frequencies --    767.3847               793.8142               830.5081
 Red. masses --      3.0013                 4.1023                 1.3086
 Frc consts  --      1.0413                 1.5231                 0.5318
 IR Inten    --      6.8196                 0.6091                 5.7028

                     43                     44                     45
                      A                      A                      A
 Frequencies --    833.8371               836.3714               852.5299
 Red. masses --      1.2546                 1.4305                 4.3389
 Frc consts  --      0.5140                 0.5896                 1.8580
 IR Inten    --      0.0697                 1.2244                32.1714

                     46                     47                     48
                      A                      A                      A
 Frequencies --    861.7285               876.7409               910.5891
 Red. masses --      1.5105                 1.7126                 2.0708
 Frc consts  --      0.6609                 0.7756                 1.0116
 IR Inten    --     76.1994                 7.7583                 1.2902

                     49                     50                     51
                      A                      A                      A
 Frequencies --    913.1604               914.7516               931.5830
 Red. masses --      1.6600                 2.4799                 1.3729
 Frc consts  --      0.8155                 1.2226                 0.7020
 IR Inten    --      2.6545                 1.3722                 8.3054

                     52                     53                     54
                      A                      A                      A
 Frequencies --    939.3730               949.4443               955.9679
 Red. masses --      1.2538                 3.8503                 1.2688
 Frc consts  --      0.6519                 2.0450                 0.6832
 IR Inten    --      0.1855                13.7100                 0.0883

                     55                     56                     57
                      A                      A                      A
 Frequencies --    957.9269               979.4385              1003.2346
 Red. masses --      1.3896                 1.2883                 6.2236
 Frc consts  --      0.7513                 0.7282                 3.6906
 IR Inten    --      0.2825                 0.1942                 1.9768

                     58                     59                     60
                      A                      A                      A
 Frequencies --   1021.5310              1026.6384              1030.8250
 Red. masses --      2.4709                 2.3722                 3.2455
 Frc consts  --      1.5191                 1.4731                 2.0319
 IR Inten    --     10.6034                14.2208                40.8874

                     61                     62                     63
                      A                      A                      A
 Frequencies --   1049.8157              1068.3568              1074.9224
 Red. masses --      3.0048                 3.1282                 1.5185
 Frc consts  --      1.9511                 2.1037                 1.0338
 IR Inten    --     35.3959                15.3428                18.7946

                     64                     65                     66
                      A                      A                      A
 Frequencies --   1124.8348              1128.1999              1147.9381
 Red. masses --      1.6196                 1.5441                 1.1243
 Frc consts  --      1.2073                 1.1579                 0.8729
 IR Inten    --     59.1071                 9.7778                 4.3668

                     67                     68                     69
                      A                      A                      A
 Frequencies --   1152.5691              1156.8181              1162.3211
 Red. masses --      1.0770                 1.0905                 1.1370
 Frc consts  --      0.8429                 0.8598                 0.9050
 IR Inten    --      0.0568                 7.4534                 0.6431

                     70                     71                     72
                      A                      A                      A
 Frequencies --   1178.3553              1212.5846              1229.6235
 Red. masses --      2.0908                 2.1509                 1.7764
 Frc consts  --      1.7105                 1.8633                 1.5824
 IR Inten    --     22.6233                85.0621                52.1086

                     73                     74                     75
                      A                      A                      A
 Frequencies --   1246.3694              1265.9400              1273.4316
 Red. masses --      2.6445                 2.9901                 1.7478
 Frc consts  --      2.4204                 2.8233                 1.6699
 IR Inten    --    358.4400               200.8283                 1.6116

                     76                     77                     78
                      A                      A                      A
 Frequencies --   1299.4460              1307.2546              1327.5379
 Red. masses --      2.3376                 1.6575                 8.5690
 Frc consts  --      2.3256                 1.6689                 8.8976
 IR Inten    --    393.5430                 9.4902                 2.4494

                     79                     80                     81
                      A                      A                      A
 Frequencies --   1332.6024              1332.7503              1372.2412
 Red. masses --      4.0313                 2.7138                 5.6957
 Frc consts  --      4.2179                 2.8400                 6.3191
 IR Inten    --      3.0095               249.0397                 5.2062

                     82                     83                     84
                      A                      A                      A
 Frequencies --   1386.1005              1433.1437              1440.4093
 Red. masses --      5.8051                 2.2978                 2.5761
 Frc consts  --      6.5713                 2.7806                 3.1491
 IR Inten    --     65.1919               159.1756                67.8566

                     85                     86                     87
                      A                      A                      A
 Frequencies --   1443.2397              1449.2451              1476.8727
 Red. masses --      2.4756                 2.1988                 2.4848
 Frc consts  --      3.0381                 2.7209                 3.1932
 IR Inten    --    492.6087                 8.3615                93.8099

                     88                     89                     90
                      A                      A                      A
 Frequencies --   1491.8184              1501.4871              1558.9010
 Red. masses --      2.2906                 3.4513                 6.0793
 Frc consts  --      3.0036                 4.5844                 8.7044
 IR Inten    --     66.7557                42.3849                28.2732

                     91                     92                     93
                      A                      A                      A
 Frequencies --   1567.0149              1573.4073              1586.3426
 Red. masses --      5.8839                 6.2167                 5.7634
 Frc consts  --      8.5126                 9.0676                 8.5452
 IR Inten    --     22.5816                69.7436                77.2441

                     94                     95                     96
                      A                      A                      A
 Frequencies --   1588.4106              1599.3945              1611.7320
 Red. masses --      6.0103                 5.8679                 6.0123
 Frc consts  --      8.9345                 8.8439                 9.2018
 IR Inten    --      4.5499                 4.7105                28.9537

                     97                     98                     99
                      A                      A                      A
 Frequencies --   3113.8877              3118.2357              3119.9297
 Red. masses --      1.0854                 1.0881                 1.0896
 Frc consts  --      6.2006                 6.2337                 6.2491
 IR Inten    --      7.2531                 0.2768                10.2471

                    100                    101                    102
                      A                      A                      A
 Frequencies --   3123.4212              3123.8093              3129.2705
 Red. masses --      1.0866                 1.0855                 1.0929
 Frc consts  --      6.2459                 6.2407                 6.3055
 IR Inten    --      2.3328                 0.1907                53.1261

                    103                    104                    105
                      A                      A                      A
 Frequencies --   3131.2227              3131.6015              3139.6291
 Red. masses --      1.0893                 1.0881                 1.0917
 Frc consts  --      6.2926                 6.2870                 6.3402
 IR Inten    --     15.5180                 8.2613                33.2769

                    106                    107                    108
                      A                      A                      A
 Frequencies --   3141.4408              3146.4367              3147.7973
 Red. masses --      1.0970                 1.0946                 1.0956
 Frc consts  --      6.3783                 6.3846                 6.3962
 IR Inten    --     57.9525                28.1784                37.2942

                    109                    110                    111
                      A                      A                      A
 Frequencies --   3151.2663              3160.3630              3169.1288
 Red. masses --      1.0977                 1.0888                 1.0912
 Frc consts  --      6.4228                 6.4071                 6.4572
 IR Inten    --      6.2510                 4.3900                 6.3711

 - Thermochemistry -
 -------------------
 Temperature   298.150 Kelvin.  Pressure   1.00000 Atm.
 Atom     1 has atomic number  6 and mass  12.00000

 Molecular mass:   325.09252 amu.
 Principal axes and moments of inertia in atomic units:
                           1         2         3
     Eigenvalues --  5740.538789558.01490**********
           X            0.99955   0.02648   0.01443
           Y           -0.02673   0.99950   0.01687
           Z           -0.01398  -0.01725   0.99975
 This molecule is an asymmetric top.
 Rotational symmetry number  1.
 Warning -- assumption of classical behavior for rotation
           may cause significant error
 Rotational temperatures (Kelvin)      0.01509     0.00906     0.00604
 Rotational constants (GHZ):           0.31439     0.18882     0.12596
 Zero-point vibrational energy     783039.4 (Joules/Mol)
                                  187.15092 (Kcal/Mol)
 Warning -- explicit consideration of  28 degrees of freedom as
           vibrations may cause significant error
 Vibrational temperatures:     36.84    53.69    70.28    96.00   112.82
          (Kelvin)            163.49   195.09   235.41   318.93   350.63
                              352.26   388.42   404.29   440.50   482.62
                              577.97   590.73   598.50   618.15   636.55
                              669.50   678.68   716.72   771.46   772.75
                              790.72   829.77   863.38   894.97   906.41
                              939.09   970.34   986.73  1004.36  1022.70
                             1038.51  1052.85  1058.45  1089.16  1104.09
                             1142.12  1194.91  1199.70  1203.35  1226.60
                             1239.83  1261.43  1310.13  1313.83  1316.12
                             1340.34  1351.55  1366.04  1375.42  1378.24
                             1409.19  1443.43  1469.75  1477.10  1483.13
                             1510.45  1537.13  1546.57  1618.38  1623.23
                             1651.62  1658.29  1664.40  1672.32  1695.39
                             1744.64  1769.15  1793.25  1821.40  1832.18
                             1869.61  1880.85  1910.03  1917.32  1917.53
                             1974.35  1994.29  2061.97  2072.43  2076.50
                             2085.14  2124.89  2146.39  2160.30  2242.91
                             2254.58  2263.78  2282.39  2285.37  2301.17
                             2318.92  4480.18  4486.44  4488.88  4493.90
                             4494.46  4502.32  4505.13  4505.67  4517.22
                             4519.83  4527.01  4528.97  4533.96  4547.05
                             4559.66

 Zero-point correction=                           0.298244 (Hartree/Particle)
 Thermal correction to Energy=                    0.316379
 Thermal correction to Enthalpy=                  0.317323
 Thermal correction to Gibbs Free Energy=         0.251109
 Sum of electronic and zero-point Energies=          -1299.805155
 Sum of electronic and thermal Energies=             -1299.787021
 Sum of electronic and thermal Enthalpies=           -1299.786076
 Sum of electronic and thermal Free Energies=        -1299.852290

                     E (Thermal)             CV                S
                      KCal/Mol        Cal/Mol-Kelvin    Cal/Mol-Kelvin
 Total                  198.531             75.253            139.358
 Electronic               0.000              0.000              0.000
 Translational            0.889              2.981             43.232
 Rotational               0.889              2.981             35.018
 Vibrational            196.753             69.291             61.108
 Vibration     1          0.593              1.985              6.144
 Vibration     2          0.594              1.982              5.397
 Vibration     3          0.595              1.978              4.864
 Vibration     4          0.598              1.970              4.248
 Vibration     5          0.600              1.964              3.930
 Vibration     6          0.607              1.938              3.206
 Vibration     7          0.613              1.918              2.865
 Vibration     8          0.623              1.887              2.508
 Vibration     9          0.648              1.808              1.945
 Vibration    10          0.659              1.773              1.776
 Vibration    11          0.660              1.771              1.768
 Vibration    12          0.674              1.728              1.596
 Vibration    13          0.681              1.709              1.528
 Vibration    14          0.697              1.662              1.383
 Vibration    15          0.717              1.605              1.234
 Vibration    16          0.767              1.466              0.956
 Vibration    17          0.775              1.447              0.925
 Vibration    18          0.779              1.436              0.906
 Vibration    19          0.791              1.406              0.860
 Vibration    20          0.802              1.378              0.819
 Vibration    21          0.823              1.327              0.751
 Vibration    22          0.829              1.313              0.733
 Vibration    23          0.854              1.254              0.663
 Vibration    24          0.891              1.170              0.574
 Vibration    25          0.892              1.168              0.572
 Vibration    26          0.905              1.141              0.545
 Vibration    27          0.933              1.082              0.491
 Vibration    28          0.958              1.032              0.450

 Optimization completed.
    -- Stationary point found.

 1\1\GINC-CN016\Freq\RB97D3\def2TZVP\C22H15N1S1\PNG4RJV\30-Mar-2021\0\\
 #P Geom=AllCheck Guess=TCheck SCRF=Check GenChk RB97D3/def2TZVP Freq\\
 Title\\0,1\C,-4.2055919705,-2.3736531077,-0.4851942815\C,-2.9709099317
 ,-2.8830966312,-0.0832429151\C,-1.8960902485,-2.0282831761,0.174206444
 \C,-2.0207445572,-0.6354330904,-0.0135727604\C,-3.2709803807,-0.139522
 2957,-0.422939287\C,-4.3491544284,-0.9959789395,-0.6444638178\C,0.4096
 321393,-0.1669906465,0.1528289693\C,0.7728072191,-1.5397301373,0.33893
 19477\C,2.0860901365,-1.946454459,0.2350969183\H,2.333689593,-2.997654

 Normal termination of Gaussian 09 at Tue Mar 30 09:07:09 2021.
 Gaussian 09:  ES64L-G09RevE.01 30-Nov-2015

 ----------------------------------------------------------------------
 #p B97D3 chkbasis geom=allcheck Guess=Read int=ultrafine scrf=(SMD,sol
 vent=n,n-DiMethylAcetamide) td=(NStates=30)
 ----------------------------------------------------------------------

 Structure from the checkpoint file:  "cp.chk"
 -----
 Title
 -----
 Charge =  0 Multiplicity = 1

                         Standard orientation:
 ---------------------------------------------------------------------
 Center     Atomic      Atomic             Coordinates (Angstroms)
 Number     Number       Type             X           Y           Z
 ---------------------------------------------------------------------
      1          6           0       -4.118058   -2.510201   -0.626933
      2          6           0       -2.873899   -2.988387   -0.215905
      3          6           0       -1.828764   -2.105709    0.068344
      4          6           0       -1.992900   -0.714567   -0.100815
      5          6           0       -3.252101   -0.250261   -0.519661
      6          6           0       -4.301004   -1.135218   -0.768062
      7          6           0        0.419888   -0.176087    0.104971
      8          6           0        0.821832   -1.539961    0.275946
      9          6           0        2.148015   -1.905575    0.183835
     10          1           0        2.425453   -2.950745    0.303961
     11          6           0        3.168769   -0.943779   -0.021362
     12          6           0        2.783486    0.430636   -0.147663
     13          6           0        1.409954    0.775291   -0.093233
     14          1           0       -2.710976   -4.056324   -0.090263
     15          1           0       -3.415986    0.813343   -0.645140
     16          1           0       -5.262559   -0.737656   -1.082700
     17          6           0       -1.250532    1.591949    0.173337
     18          6           0       -1.497017    2.215279    1.395217
     19          6           0       -1.298306    2.317326   -1.018778
     20          6           0       -1.796121    3.578976    1.425797
     21          6           0       -1.596945    3.679382   -0.984051
     22          6           0       -1.845831    4.310900    0.237531
     23          1           0       -1.989455    4.067666    2.377380
     24          1           0       -1.635229    4.247237   -1.910200
     25          1           0       -1.453130    1.629720    2.309578
     26          1           0       -1.101623    1.812444   -1.960439
     27          1           0       -2.078360    5.372584    0.262429
     28          1           0       -4.928080   -3.205201   -0.829855
     29          7           0       -0.939932    0.184408    0.163546
     30          1           0        1.143710    1.819652   -0.208691
     31         16           0       -0.348278   -2.765016    0.766228
     32          6           0        3.795463    1.406832   -0.340694
     33          6           0        5.125231    1.040219   -0.410069
     34          1           0        5.889939    1.798820   -0.559913
     35          6           0        4.540910   -1.290353   -0.095574
     36          6           0        5.502504   -0.317377   -0.287565
     37          1           0        6.552899   -0.592391   -0.344699
     38          1           0        4.823236   -2.336689    0.002246
     39          1           0        3.504692    2.451053   -0.435841
 ---------------------------------------------------------------------

 SCF Done:  E(RB97D3) =  -1300.10341657     A.U. after    7 cycles

 Excitation energies and oscillator strengths:

 Excited State   1:      Singlet-A      2.8071 eV  441.68 nm  f=0.1115  <S**2>=0.000
      84 -> 87         0.12096
      85 -> 86         0.66359
      85 -> 87        -0.18888
 This state for optimization and/or second-order correction.
 Total Energy, E(TD-HF/TD-KS) =  -1300.00025680
 Copying the excited state density for this state as the 1-particle RhoCI density.

 Excited State   2:      Singlet-A      3.0579 eV  405.45 nm  f=0.0641  <S**2>=0.000
      84 -> 87         0.10186
      85 -> 86         0.16844
      85 -> 87         0.66284

 Excited State   3:      Singlet-A      3.2058 eV  386.75 nm  f=0.0021  <S**2>=0.000
      85 -> 88         0.63332
      85 -> 89        -0.30393

 Excited State   4:      Singlet-A      3.3085 eV  374.74 nm  f=0.0116  <S**2>=0.000
      85 -> 88         0.26807
      85 -> 89         0.59535
      85 -> 90         0.24111

 Excited State   5:      Singlet-A      3.5498 eV  349.27 nm  f=0.0507  <S**2>=0.000
      83 -> 86         0.14979
      84 -> 86         0.53938
      84 -> 87         0.16665
      85 -> 89         0.13113
      85 -> 90        -0.34059

 Excited State   6:      Singlet-A      3.5796 eV  346.37 nm  f=0.0305  <S**2>=0.000
      84 -> 86         0.37875
      84 -> 87        -0.28473
      84 -> 88         0.11368
      85 -> 89        -0.10018
      85 -> 90         0.45703

 Excited State   7:      Singlet-A      3.7252 eV  332.83 nm  f=0.2363  <S**2>=0.000
      84 -> 87         0.45774
      84 -> 88        -0.38801
      85 -> 89        -0.11563
      85 -> 90         0.28333

 Excited State   8:      Singlet-A      3.7902 eV  327.12 nm  f=0.0785  <S**2>=0.000
      84 -> 87        -0.19701
      84 -> 88        -0.46511
      84 -> 89         0.47430

 Excited State   9:      Singlet-A      3.9203 eV  316.26 nm  f=0.4051  <S**2>=0.000
      82 -> 86         0.16915
      84 -> 87         0.29192
      84 -> 88         0.32554
      84 -> 89         0.48423

 Excited State  10:      Singlet-A      4.0579 eV  305.54 nm  f=0.0060  <S**2>=0.000
      83 -> 86        -0.10476
      84 -> 90         0.67724

 Excited State  11:      Singlet-A      4.1317 eV  300.08 nm  f=0.0232  <S**2>=0.000
      82 -> 87         0.12172
      83 -> 86        -0.29653
      83 -> 87         0.10665
      85 -> 91         0.58097
      85 -> 92        -0.12487

 Excited State  12:      Singlet-A      4.2375 eV  292.59 nm  f=0.0326  <S**2>=0.000
      83 -> 86         0.48398
      84 -> 86        -0.10860
      85 -> 91         0.14947
      85 -> 92        -0.44428

 Excited State  13:      Singlet-A      4.2844 eV  289.39 nm  f=0.0556  <S**2>=0.000
      80 -> 86        -0.10054
      82 -> 86         0.11863
      82 -> 87         0.15111
      83 -> 86         0.32045
      85 -> 91         0.25082
      85 -> 92         0.50768

 Excited State  14:      Singlet-A      4.4152 eV  280.81 nm  f=0.0128  <S**2>=0.000
      81 -> 86         0.64590
      82 -> 86         0.26355

 Excited State  15:      Singlet-A      4.4738 eV  277.14 nm  f=0.0059  <S**2>=0.000
      83 -> 87        -0.20489
      84 -> 91         0.19277
      85 -> 93         0.62882

 Excited State  16:      Singlet-A      4.4869 eV  276.33 nm  f=0.0329  <S**2>=0.000
      81 -> 86         0.22688
      82 -> 86        -0.38234
      84 -> 91         0.46348
      85 -> 93        -0.22964

 Excited State  17:      Singlet-A      4.5354 eV  273.37 nm  f=0.0345  <S**2>=0.000
      80 -> 86         0.60919
      82 -> 86        -0.13691
      83 -> 87         0.14770
      84 -> 91        -0.21079

 Excited State  18:      Singlet-A      4.5611 eV  271.83 nm  f=0.3181  <S**2>=0.000
      80 -> 86        -0.25478
      82 -> 86        -0.22017
      83 -> 87         0.53843
      85 -> 93         0.16916

 Excited State  19:      Singlet-A      4.7151 eV  262.95 nm  f=0.0175  <S**2>=0.000
      83 -> 88         0.64397
      83 -> 89        -0.22065

 Excited State  20:      Singlet-A      4.7910 eV  258.79 nm  f=0.0031  <S**2>=0.000
      80 -> 87        -0.13635
      81 -> 87         0.58752
      81 -> 88         0.16321
      82 -> 87         0.26583

 Excited State  21:      Singlet-A      4.8041 eV  258.08 nm  f=0.0377  <S**2>=0.000
      81 -> 87        -0.15909
      83 -> 87        -0.10310
      83 -> 88         0.10626
      83 -> 89         0.54872
      83 -> 90         0.27549
      84 -> 91        -0.12104

 Excited State  22:      Singlet-A      4.8321 eV  256.58 nm  f=0.0023  <S**2>=0.000
      79 -> 86         0.32608
      80 -> 87         0.12255
      83 -> 90        -0.10595
      84 -> 92         0.58201

 Excited State  23:      Singlet-A      4.8628 eV  254.96 nm  f=0.1090  <S**2>=0.000
      80 -> 87         0.51989
      80 -> 89         0.11502
      81 -> 87         0.20520
      82 -> 86        -0.12289
      82 -> 87        -0.24993
      84 -> 91        -0.11876
      84 -> 92        -0.11442

 Excited State  24:      Singlet-A      4.9239 eV  251.80 nm  f=0.0333  <S**2>=0.000
      80 -> 87        -0.26721
      81 -> 87         0.10348
      82 -> 87        -0.28477
      82 -> 88         0.51747
      82 -> 90         0.12177
      84 -> 93         0.10379

 Excited State  25:      Singlet-A      4.9839 eV  248.77 nm  f=0.0153  <S**2>=0.000
      80 -> 87        -0.12550
      80 -> 88        -0.10513
      80 -> 89         0.10293
      81 -> 89        -0.12405
      82 -> 87        -0.15279
      82 -> 88        -0.29649
      82 -> 89         0.51844
      84 -> 93         0.21546

 Excited State  26:      Singlet-A      5.0211 eV  246.92 nm  f=0.0248  <S**2>=0.000
      82 -> 87         0.10734
      82 -> 89        -0.17542
      82 -> 90        -0.14736
      84 -> 93         0.63526

 Excited State  27:      Singlet-A      5.0946 eV  243.36 nm  f=0.1514  <S**2>=0.000
      78 -> 86         0.18543
      79 -> 86         0.13373
      80 -> 88         0.13401
      80 -> 89         0.10511
      81 -> 89        -0.10787
      82 -> 86         0.19401
      82 -> 87        -0.13995
      82 -> 88        -0.17050
      82 -> 89        -0.19249
      82 -> 90         0.32576
      83 -> 87         0.14661
      83 -> 90         0.20172
      84 -> 91         0.21014
      84 -> 93         0.10450

 Excited State  28:      Singlet-A      5.1110 eV  242.58 nm  f=0.0851  <S**2>=0.000
      78 -> 86         0.14006
      80 -> 87         0.11240
      80 -> 88        -0.29114
      81 -> 89         0.48015
      81 -> 90        -0.18265
      82 -> 86         0.12321
      82 -> 89         0.10565
      84 -> 91         0.13345

 Excited State  29:      Singlet-A      5.1660 eV  240.00 nm  f=0.0358  <S**2>=0.000
      78 -> 86         0.10901
      80 -> 87         0.12154
      80 -> 88        -0.18281
      80 -> 89        -0.21679
      80 -> 90         0.20445
      81 -> 88        -0.25467
      81 -> 89        -0.20618
      81 -> 90         0.31898
      83 -> 89         0.15221
      83 -> 90        -0.24541

 Excited State  30:      Singlet-A      5.2360 eV  236.79 nm  f=0.0220  <S**2>=0.000
      78 -> 86         0.18746
      80 -> 88         0.34871
      80 -> 90         0.10599
      81 -> 88         0.15261
      81 -> 89        -0.13007
      81 -> 90        -0.31063
      83 -> 89         0.15312
      83 -> 90        -0.27885
      83 -> 91        -0.13024

 The electronic state is 1-A.
 Alpha  occ. eigenvalues --  -88.02532 -14.04172  -9.95859  -9.95670  -9.94482
 Alpha  occ. eigenvalues --   -9.94302  -9.93865  -9.91396  -9.91217  -9.90850
 Alpha  occ. eigenvalues --   -9.90814  -9.90813  -9.90785  -9.90751  -9.90739
 Alpha  occ. eigenvalues --   -9.90659  -9.90297  -9.90236  -9.90161  -9.90080
 Alpha  occ. eigenvalues --   -9.90069  -9.90023  -9.89925  -9.89907  -7.72748
 Alpha  occ. eigenvalues --   -5.75925  -5.75509  -5.74888  -0.90223  -0.80288
 Alpha  occ. eigenvalues --   -0.79410  -0.77747  -0.76146  -0.72533  -0.70492
 Alpha  occ. eigenvalues --   -0.68937  -0.68365  -0.68270  -0.67401  -0.64457
 Alpha  occ. eigenvalues --   -0.62481  -0.58273  -0.57351  -0.55522  -0.55247
 Alpha  occ. eigenvalues --   -0.53883  -0.53032  -0.51893  -0.49276  -0.48302
 Alpha  occ. eigenvalues --   -0.45534  -0.44785  -0.44428  -0.42234  -0.41549
 Alpha  occ. eigenvalues --   -0.41435  -0.40303  -0.39781  -0.39204  -0.38568
 Alpha  occ. eigenvalues --   -0.38148  -0.37857  -0.37299  -0.36863  -0.36494
 Alpha  occ. eigenvalues --   -0.34964  -0.34774  -0.33257  -0.32595  -0.32078
 Alpha  occ. eigenvalues --   -0.31741  -0.31697  -0.30838  -0.30086  -0.29531
 Alpha  occ. eigenvalues --   -0.28708  -0.28307  -0.26436  -0.25362  -0.23511
 Alpha  occ. eigenvalues --   -0.23163  -0.22848  -0.21965  -0.18550  -0.16452
 Alpha virt. eigenvalues --   -0.06929  -0.05673  -0.04723  -0.04554  -0.03832
 Alpha virt. eigenvalues --   -0.02138  -0.01217  -0.00233   0.03392   0.04006
 Alpha virt. eigenvalues --    0.05204   0.05387   0.05976   0.06135   0.07009

 Mulliken charges:
               1
     1  C   -0.169782
     2  C   -0.178634
     3  C   -0.011819
     4  C    0.169594
     5  C   -0.237056
     6  C   -0.156307
     7  C    0.137384
     8  C    0.087431
     9  C   -0.323158
    10  H    0.117791
    11  C    0.151645
    12  C    0.173529
    13  C   -0.328640
    14  H    0.130995
    15  H    0.148945
    16  H    0.134279
    17  C    0.176883
    18  C   -0.218445
    19  C   -0.227048
    20  C   -0.101912
    21  C   -0.093387
    22  C   -0.119780
    23  H    0.135142
    24  H    0.136387
    25  H    0.128646
    26  H    0.124350
    27  H    0.137765
    28  H    0.133029
    29  N    0.105651
    30  H    0.149598
    31  S   -0.071981
    32  C   -0.266130
    33  C   -0.126637
    34  H    0.131105
    35  C   -0.231194
    36  C   -0.127365
    37  H    0.132188
    38  H    0.125761
    39  H    0.121177
 Sum of Mulliken charges =  -0.00000

 Dipole moment (field-independent basis, Debye):
    X=             -1.4591    Y=              3.1624    Z=             -0.6511  Tot=              3.5431
 Quadrupole moment (field-independent basis, Debye-Ang):
   XX=           -134.4170   YY=           -126.6825   ZZ=           -146.3485
   XY=             -4.6476   XZ=              1.1442   YZ=             -0.6557

 Normal termination of Gaussian 09 at Tue Mar 30 10:43:30 2021.
