 Gaussian 09, Revision E.01,

 ----------------------------------------------------------------------
 #p m06l/def2TZVP opt freq=noraman nosymm int=ultrafine scrf=(SMD,solve
 nt=n,n-DiMethylAcetamide)
 ----------------------------------------------------------------------

 -----
 Title
 -----
 Symbolic Z-matrix:
 Charge =  0 Multiplicity = 1

 SCF Done:  E(RM06L) =  -1300.54520110     A.U. after   16 cycles
 SCF Done:  E(RM06L) =  -1300.54836023     A.U. after   13 cycles
 SCF Done:  E(RM06L) =  -1300.54843289     A.U. after   11 cycles
 SCF Done:  E(RM06L) =  -1300.54845058     A.U. after   11 cycles
 SCF Done:  E(RM06L) =  -1300.54845787     A.U. after   11 cycles
 SCF Done:  E(RM06L) =  -1300.54846221     A.U. after   11 cycles
 SCF Done:  E(RM06L) =  -1300.54846504     A.U. after   11 cycles
 SCF Done:  E(RM06L) =  -1300.54846572     A.U. after    9 cycles
 SCF Done:  E(RM06L) =  -1300.54846579     A.U. after    7 cycles
 Optimization completed.
    -- Stationary point found.
 Normal termination of Gaussian 09 at Wed Feb 17 13:34:59 2021.

 -------------------------------------------------------------------
 #P Geom=AllCheck Guess=TCheck SCRF=Check GenChk RM06L/def2TZVP Freq
 -------------------------------------------------------------------

 Structure from the checkpoint file:  "cp.chk"
 -----
 Title
 -----
 Charge =  0 Multiplicity = 1

 SCF Done:  E(RM06L) =  -1300.54846579     A.U. after    1 cycles

  Exact polarizability: 669.382  42.683 474.902  -0.963 -20.244 277.843
 Approx polarizability: 808.425  54.352 610.468  -4.984 -35.390 341.902

                      1                      2                      3
                      A                      A                      A
 Frequencies --     22.3593                32.6011                52.6437
 Red. masses --      6.3117                 4.1663                 4.6898
 Frc consts  --      0.0019                 0.0026                 0.0077
 IR Inten    --      0.3460                 0.2418                 0.6660

                      4                      5                      6
                      A                      A                      A
 Frequencies --     67.9133                81.2171               115.3138
 Red. masses --      4.6552                 4.3895                 5.6328
 Frc consts  --      0.0127                 0.0171                 0.0441
 IR Inten    --      0.1080                 0.2858                 0.3871

                      7                      8                      9
                      A                      A                      A
 Frequencies --    140.5623               164.8244               226.2325
 Red. masses --      4.7829                 6.0483                 6.1913
 Frc consts  --      0.0557                 0.0968                 0.1867
 IR Inten    --      0.1900                 0.5362                 1.8472

                     10                     11                     12
                      A                      A                      A
 Frequencies --    250.5442               254.0305               276.1514
 Red. masses --      4.9140                 4.2833                 4.6582
 Frc consts  --      0.1817                 0.1629                 0.2093
 IR Inten    --      2.4995                 1.5297                 4.7394

                     13                     14                     15
                      A                      A                      A
 Frequencies --    289.6864               314.7630               338.7368
 Red. masses --      6.2286                 6.0624                 6.1776
 Frc consts  --      0.3080                 0.3539                 0.4176
 IR Inten    --      1.8497                 1.4048                 0.3706

                     16                     17                     18
                      A                      A                      A
 Frequencies --    410.7569               420.5762               423.7987
 Red. masses --      5.7382                 2.9911                 4.4297
 Frc consts  --      0.5704                 0.3117                 0.4688
 IR Inten    --      2.8615                 0.5675                 6.6589

                     19                     20                     21
                      A                      A                      A
 Frequencies --    442.9656               453.1091               479.3277
 Red. masses --      3.6074                 6.5355                 4.3409
 Frc consts  --      0.4170                 0.7906                 0.5876
 IR Inten    --      2.2792                 5.0206                 8.6106

                     22                     23                     24
                      A                      A                      A
 Frequencies --    483.3492               508.8461               546.6866
 Red. masses --      2.9926                 5.3276                 5.2465
 Frc consts  --      0.4119                 0.8127                 0.9238
 IR Inten    --     21.0347                 2.1905                 5.6096

                     25                     26                     27
                      A                      A                      A
 Frequencies --    554.9635               566.9448               590.1420
 Red. masses --      4.0162                 3.9785                 4.8870
 Frc consts  --      0.7288                 0.7534                 1.0028
 IR Inten    --      2.3885                 1.3606                45.0152

                     28                     29                     30
                      A                      A                      A
 Frequencies --    611.8141               632.5916               639.7194
 Red. masses --      6.8532                 6.4336                 6.4799
 Frc consts  --      1.5114                 1.5169                 1.5624
 IR Inten    --     33.6130                 0.6486                 2.0108

                     31                     32                     33
                      A                      A                      A
 Frequencies --    665.7265               684.2682               708.9313
 Red. masses --      6.6493                 6.3654                 5.4764
 Frc consts  --      1.7363                 1.7560                 1.6216
 IR Inten    --     15.4940                 3.9160                 4.9885

                     34                     35                     36
                      A                      A                      A
 Frequencies --    719.9382               730.3349               740.8966
 Red. masses --      1.7787                 3.4354                 2.9958
 Frc consts  --      0.5432                 1.0796                 0.9689
 IR Inten    --     80.4004                 6.5134                14.1959

                     37                     38                     39
                      A                      A                      A
 Frequencies --    757.5907               764.9639               786.6710
 Red. masses --      1.4847                 1.2572                 3.0419
 Frc consts  --      0.5020                 0.4334                 1.1091
 IR Inten    --    102.0423                76.4159                 7.5827

                     40                     41                     42
                      A                      A                      A
 Frequencies --    790.0789               814.9293               859.8547
 Red. masses --      2.7815                 3.9313                 1.3328
 Frc consts  --      1.0230                 1.5383                 0.5806
 IR Inten    --      1.1879                 0.3821                14.3705

                     43                     44                     45
                      A                      A                      A
 Frequencies --    861.9736               862.4095               872.6598
 Red. masses --      1.3274                 1.3643                 4.1399
 Frc consts  --      0.5811                 0.5978                 1.8575
 IR Inten    --      0.7461                 0.9157                30.3886

                     46                     47                     48
                      A                      A                      A
 Frequencies --    890.2051               909.3923               931.9113
 Red. masses --      1.5229                 1.6699                 5.5722
 Frc consts  --      0.7110                 0.8137                 2.8512
 IR Inten    --     64.2475                11.6999                 0.2731

                     49                     50                     51
                      A                      A                      A
 Frequencies --    938.0594               948.8102               970.5029
 Red. masses --      1.7701                 1.3691                 3.6814
 Frc consts  --      0.9177                 0.7262                 2.0430
 IR Inten    --      0.5272                 4.1099                11.0334

                     52                     53                     54
                      A                      A                      A
 Frequencies --    976.2885               987.8024               998.2130
 Red. masses --      1.3766                 1.2776                 1.3777
 Frc consts  --      0.7731                 0.7345                 0.8088
 IR Inten    --      7.6198                 0.3065                 0.0125

                     55                     56                     57
                      A                      A                      A
 Frequencies --   1004.6884              1021.7168              1023.9753
 Red. masses --      1.2870                 1.2941                 6.3056
 Frc consts  --      0.7654                 0.7959                 3.8955
 IR Inten    --      0.0287                 0.0109                 3.1580

                     58                     59                     60
                      A                      A                      A
 Frequencies --   1049.5803              1052.2064              1057.5689
 Red. masses --      2.4115                 2.2819                 3.2330
 Frc consts  --      1.5652                 1.4885                 2.1305
 IR Inten    --      8.2544                13.1823                45.2646

                     61                     62                     63
                      A                      A                      A
 Frequencies --   1076.0156              1093.0689              1099.6430
 Red. masses --      3.3533                 2.6864                 1.4769
 Frc consts  --      2.2875                 1.8911                 1.0522
 IR Inten    --     36.1937                12.8652                16.4834

                     64                     65                     66
                      A                      A                      A
 Frequencies --   1151.6334              1153.1911              1167.4395
 Red. masses --      1.5391                 1.5110                 1.1147
 Frc consts  --      1.2027                 1.1839                 0.8951
 IR Inten    --     52.2214                11.0753                 4.7547

                     67                     68                     69
                      A                      A                      A
 Frequencies --   1172.7677              1178.0797              1184.5030
 Red. masses --      1.0841                 1.1005                 1.1438
 Frc consts  --      0.8785                 0.8999                 0.9455
 IR Inten    --      0.1774                 6.7887                 1.5269

                     70                     71                     72
                      A                      A                      A
 Frequencies --   1201.5832              1239.2463              1255.1847
 Red. masses --      1.9411                 2.0837                 1.6406
 Frc consts  --      1.6513                 1.8854                 1.5229
 IR Inten    --     21.5611                79.7865                16.9615

                     73                     74                     75
                      A                      A                      A
 Frequencies --   1277.3072              1295.6138              1298.8327
 Red. masses --      2.2414                 1.8908                 2.8741
 Frc consts  --      2.1546                 1.8700                 2.8567
 IR Inten    --    271.3139                52.7419               200.6938

                     76                     77                     78
                      A                      A                      A
 Frequencies --   1329.6894              1332.4805              1365.5334
 Red. masses --      1.7112                 2.1100                 3.2817
 Frc consts  --      1.7826                 2.2073                 3.6054
 IR Inten    --    111.3222               339.0363               269.5386

                     79                     80                     81
                      A                      A                      A
 Frequencies --   1367.1397              1368.0581              1413.0332
 Red. masses --      6.0819                 5.4386                 5.4073
 Frc consts  --      6.6975                 5.9972                 6.3611
 IR Inten    --     30.7942                 7.0883                 8.1299

                     82                     83                     84
                      A                      A                      A
 Frequencies --   1434.1191              1467.6115              1477.6103
 Red. masses --      5.7787                 2.3833                 2.8391
 Frc consts  --      7.0024                 3.0245                 3.6522
 IR Inten    --     22.8808               150.7022                 9.5167

                     85                     86                     87
                      A                      A                      A
 Frequencies --   1481.8913              1483.3501              1515.9033
 Red. masses --      2.7193                 2.2694                 2.5927
 Frc consts  --      3.5184                 2.9420                 3.5103
 IR Inten    --    601.7418                16.0718                90.4046

                     88                     89                     90
                      A                      A                      A
 Frequencies --   1528.3017              1548.0137              1609.9714
 Red. masses --      2.3871                 3.8007                 6.2566
 Frc consts  --      3.2850                 5.3661                 9.5549
 IR Inten    --     66.1780                56.9413                30.6006

                     91                     92                     93
                      A                      A                      A
 Frequencies --   1617.8261              1623.1786              1635.8427
 Red. masses --      6.1550                 6.6548                 6.0811
 Frc consts  --      9.4916                10.3303                 9.5877
 IR Inten    --     26.2574                54.4924                88.1737

                     94                     95                     96
                      A                      A                      A
 Frequencies --   1636.8090              1649.2786              1666.5430
 Red. masses --      6.1315                 6.0932                 6.2932
 Frc consts  --      9.6787                 9.7653                10.2981
 IR Inten    --      5.5245                 5.7475                32.6878

                     97                     98                     99
                      A                      A                      A
 Frequencies --   3174.8892              3178.9997              3179.2985
 Red. masses --      1.0855                 1.0906                 1.0882
 Frc consts  --      6.4470                 6.4940                 6.4804
 IR Inten    --      9.4703                 9.5229                 0.5842

                    100                    101                    102
                      A                      A                      A
 Frequencies --   3183.3689              3183.5430              3189.0671
 Red. masses --      1.0853                 1.0872                 1.0881
 Frc consts  --      6.4798                 6.4920                 6.5200
 IR Inten    --      2.0073                 3.4563                 0.5896

                    103                    104                    105
                      A                      A                      A
 Frequencies --   3191.1724              3192.2885              3195.4504
 Red. masses --      1.0935                 1.0891                 1.0917
 Frc consts  --      6.5610                 6.5391                 6.5680
 IR Inten    --     39.9235                10.8032                14.5616

                    106                    107                    108
                      A                      A                      A
 Frequencies --   3202.3322              3203.6787              3207.9714
 Red. masses --      1.0959                 1.0977                 1.0894
 Frc consts  --      6.6212                 6.6380                 6.6055
 IR Inten    --     25.9036                40.6073                 4.2594

                    109                    110                    111
                      A                      A                      A
 Frequencies --   3209.9233              3210.1214              3220.7750
 Red. masses --      1.0955                 1.0988                 1.0930
 Frc consts  --      6.6506                 6.6714                 6.6805
 IR Inten    --     26.9270                10.8815                 6.6753

 - Thermochemistry -
 -------------------
 Temperature   298.150 Kelvin.  Pressure   1.00000 Atm.
 Atom     1 has atomic number  6 and mass  12.00000

 Molecular mass:   325.09252 amu.
 Principal axes and moments of inertia in atomic units:
                           1         2         3
     Eigenvalues --  5668.716219462.88933**********
           X            0.99975   0.01985   0.01056
           Y           -0.01998   0.99973   0.01217
           Z           -0.01031  -0.01238   0.99987
 This molecule is an asymmetric top.
 Rotational symmetry number  1.
 Warning -- assumption of classical behavior for rotation
           may cause significant error
 Rotational temperatures (Kelvin)      0.01528     0.00915     0.00608
 Rotational constants (GHZ):           0.31837     0.19072     0.12677
 Zero-point vibrational energy     802063.2 (Joules/Mol)
                                  191.69770 (Kcal/Mol)
 Warning -- explicit consideration of  28 degrees of freedom as
           vibrations may cause significant error
 Vibrational temperatures:     32.17    46.91    75.74    97.71   116.85
          (Kelvin)            165.91   202.24   237.15   325.50   360.48
                              365.49   397.32   416.79   452.87   487.37
                              590.99   605.11   609.75   637.33   651.92
                              689.64   695.43   732.12   786.56   798.47
                              815.71   849.08   880.26   910.16   920.41
                              957.83   984.51  1019.99  1035.83  1050.79
                             1065.98  1090.00  1100.61  1131.84  1136.75
                             1172.50  1237.14  1240.19  1240.81  1255.56
                             1280.80  1308.41  1340.81  1349.66  1365.12
                             1396.34  1404.66  1421.23  1436.20  1445.52
                             1470.02  1473.27  1510.11  1513.89  1521.60
                             1548.14  1572.68  1582.14  1656.94  1659.18
                             1679.68  1687.35  1694.99  1704.23  1728.81
                             1783.00  1805.93  1837.76  1864.10  1868.73
                             1913.12  1917.14  1964.70  1967.01  1968.33
                             2033.04  2063.37  2111.56  2125.95  2132.11
                             2134.21  2181.04  2198.88  2227.24  2316.39
                             2327.69  2335.39  2353.61  2355.00  2372.94
                             2397.78  4567.95  4573.87  4574.30  4580.15
                             4580.40  4588.35  4591.38  4592.99  4597.53
                             4607.44  4609.37  4615.55  4618.36  4618.64
                             4633.97

 Zero-point correction=                           0.305490 (Hartree/Particle)
 Thermal correction to Energy=                    0.323185
 Thermal correction to Enthalpy=                  0.324129
 Thermal correction to Gibbs Free Energy=         0.258505
 Sum of electronic and zero-point Energies=          -1300.242976
 Sum of electronic and thermal Energies=             -1300.225281
 Sum of electronic and thermal Enthalpies=           -1300.224337
 Sum of electronic and thermal Free Energies=        -1300.289961

                     E (Thermal)             CV                S
                      KCal/Mol        Cal/Mol-Kelvin    Cal/Mol-Kelvin
 Total                  202.802             73.109            138.118
 Electronic               0.000              0.000              0.000
 Translational            0.889              2.981             43.232
 Rotational               0.889              2.981             34.989
 Vibrational            201.024             67.148             59.897
 Vibration     1          0.593              1.985              6.413
 Vibration     2          0.594              1.983              5.665
 Vibration     3          0.596              1.977              4.716
 Vibration     4          0.598              1.970              4.213
 Vibration     5          0.600              1.962              3.861
 Vibration     6          0.608              1.937              3.177
 Vibration     7          0.615              1.913              2.796
 Vibration     8          0.623              1.886              2.494
 Vibration     9          0.650              1.801              1.909
 Vibration    10          0.663              1.762              1.727
 Vibration    11          0.665              1.756              1.702
 Vibration    12          0.678              1.718              1.557
 Vibration    13          0.686              1.693              1.476
 Vibration    14          0.702              1.645              1.337
 Vibration    15          0.719              1.598              1.218
 Vibration    16          0.775              1.447              0.924
 Vibration    17          0.783              1.426              0.890
 Vibration    18          0.786              1.418              0.879
 Vibration    19          0.803              1.376              0.817
 Vibration    20          0.812              1.354              0.786
 Vibration    21          0.836              1.296              0.712
 Vibration    22          0.840              1.287              0.701
 Vibration    23          0.864              1.230              0.636
 Vibration    24          0.902              1.147              0.551
 Vibration    25          0.910              1.129              0.534
 Vibration    26          0.923              1.103              0.510
 Vibration    27          0.947              1.053              0.467
 Vibration    28          0.971              1.007              0.430

 Optimization completed.
    -- Stationary point found.
 Normal termination of Gaussian 09 at Wed Feb 17 16:33:49 2021.
 Gaussian 09:  ES64L-G09RevE.01 30-Nov-2015

 ----------------------------------------------------------------------
 #p m06l chkbasis geom=allcheck Guess=Read int=ultrafine scrf=(SMD,solv
 ent=n,n-DiMethylAcetamide) td=(NStates=30)
 ----------------------------------------------------------------------

 Structure from the checkpoint file:  "cp.chk"
 -----
 Title
 -----
 Charge =  0 Multiplicity = 1

                         Standard orientation:
 ---------------------------------------------------------------------
 Center     Atomic      Atomic             Coordinates (Angstroms)
 Number     Number       Type             X           Y           Z
 ---------------------------------------------------------------------
      1          6           0       -4.141645   -2.463003   -0.561223
      2          6           0       -2.897085   -2.951546   -0.197687
      3          6           0       -1.839130   -2.089031    0.059769
      4          6           0       -1.995280   -0.702331   -0.082830
      5          6           0       -3.257108   -0.227548   -0.453520
      6          6           0       -4.314556   -1.094287   -0.679660
      7          6           0        0.417004   -0.183246    0.098520
      8          6           0        0.812205   -1.543583    0.245794
      9          6           0        2.131310   -1.905582    0.161754
     10          1           0        2.403027   -2.949636    0.268661
     11          6           0        3.152501   -0.951783   -0.022135
     12          6           0        2.773998    0.415345   -0.134102
     13          6           0        1.407836    0.759827   -0.081433
     14          1           0       -2.739001   -4.017809   -0.088799
     15          1           0       -3.417284    0.835560   -0.559464
     16          1           0       -5.277466   -0.685156   -0.957463
     17          6           0       -1.231446    1.589883    0.163165
     18          6           0       -1.442308    2.229895    1.374610
     19          6           0       -1.298561    2.299332   -1.029623
     20          6           0       -1.723743    3.588871    1.393418
     21          6           0       -1.580559    3.655941   -1.005354
     22          6           0       -1.792836    4.301688    0.205603
     23          1           0       -1.888925    4.089630    2.338915
     24          1           0       -1.634006    4.210327   -1.933724
     25          1           0       -1.384017    1.659560    2.293399
     26          1           0       -1.129202    1.782469   -1.966657
     27          1           0       -2.012341    5.361680    0.222050
     28          1           0       -4.960067   -3.146112   -0.745079
     29          7           0       -0.934733    0.184583    0.160553
     30          1           0        1.148722    1.804533   -0.183238
     31         16           0       -0.351503   -2.780667    0.680724
     32          6           0        3.784419    1.384791   -0.308559
     33          6           0        5.105104    1.018527   -0.372836
     34          1           0        5.869119    1.773936   -0.508674
     35          6           0        4.516573   -1.298545   -0.090422
     36          6           0        5.475967   -0.332795   -0.263649
     37          1           0        6.521517   -0.609051   -0.316536
     38          1           0        4.793580   -2.342908   -0.003275
     39          1           0        3.497578    2.426653   -0.393168
 ---------------------------------------------------------------------

 SCF Done:  E(RM06L) =  -1300.54848291     A.U. after    7 cycles

 Excitation energies and oscillator strengths:

 Excited State   1:      Singlet-A      3.0117 eV  411.68 nm  f=0.1495  <S**2>=0.000
      84 -> 87         0.12721
      85 -> 86         0.66962
      85 -> 87        -0.16493
 This state for optimization and/or second-order correction.
 Total Energy, E(TD-HF/TD-KS) =  -1300.43780613
 Copying the excited state density for this state as the 1-particle RhoCI density.

 Excited State   2:      Singlet-A      3.2837 eV  377.58 nm  f=0.0617  <S**2>=0.000
      85 -> 86         0.14631
      85 -> 87         0.67482

 Excited State   3:      Singlet-A      3.4829 eV  355.98 nm  f=0.0024  <S**2>=0.000
      85 -> 88         0.60749
      85 -> 89        -0.35346

 Excited State   4:      Singlet-A      3.5587 eV  348.40 nm  f=0.0073  <S**2>=0.000
      85 -> 88         0.31465
      85 -> 89         0.58689
      85 -> 90         0.21070

 Excited State   5:      Singlet-A      3.8108 eV  325.35 nm  f=0.0777  <S**2>=0.000
      83 -> 86         0.13104
      84 -> 86         0.59089
      84 -> 87         0.11636
      85 -> 88         0.10932
      85 -> 89         0.10431
      85 -> 90        -0.27385

 Excited State   6:      Singlet-A      3.8386 eV  322.99 nm  f=0.0124  <S**2>=0.000
      84 -> 86         0.30902
      84 -> 87        -0.25265
      85 -> 90         0.53901

 Excited State   7:      Singlet-A      4.0190 eV  308.49 nm  f=0.3588  <S**2>=0.000
      84 -> 87         0.53824
      84 -> 88        -0.31199
      85 -> 90         0.24511

 Excited State   8:      Singlet-A      4.1257 eV  300.52 nm  f=0.0591  <S**2>=0.000
      84 -> 87        -0.13244
      84 -> 88        -0.46728
      84 -> 89         0.50594

 Excited State   9:      Singlet-A      4.2235 eV  293.56 nm  f=0.4054  <S**2>=0.000
      82 -> 86         0.17695
      84 -> 87         0.24560
      84 -> 88         0.39417
      84 -> 89         0.46407

 Excited State  10:      Singlet-A      4.3798 eV  283.08 nm  f=0.0037  <S**2>=0.000
      84 -> 90         0.68147

 Excited State  11:      Singlet-A      4.4456 eV  278.89 nm  f=0.0245  <S**2>=0.000
      82 -> 87         0.10925
      83 -> 86        -0.32918
      83 -> 87         0.10730
      85 -> 91         0.57687

 Excited State  12:      Singlet-A      4.5581 eV  272.01 nm  f=0.0622  <S**2>=0.000
      82 -> 87         0.11883
      83 -> 86         0.55383
      84 -> 86        -0.10285
      85 -> 91         0.24958
      85 -> 92        -0.27594

 Excited State  13:      Singlet-A      4.6263 eV  268.00 nm  f=0.0353  <S**2>=0.000
      82 -> 87         0.12049
      83 -> 86         0.17338
      85 -> 91         0.18145
      85 -> 92         0.62261

 Excited State  14:      Singlet-A      4.7208 eV  262.64 nm  f=0.0161  <S**2>=0.000
      81 -> 86         0.63418
      82 -> 86         0.29399

 Excited State  15:      Singlet-A      4.7991 eV  258.35 nm  f=0.1949  <S**2>=0.000
      81 -> 86        -0.27247
      82 -> 86         0.45012
      84 -> 91        -0.41515

 Excited State  16:      Singlet-A      4.8318 eV  256.60 nm  f=0.0007  <S**2>=0.000
      83 -> 87         0.15849
      85 -> 93         0.67987

 Excited State  17:      Singlet-A      4.8571 eV  255.26 nm  f=0.0016  <S**2>=0.000
      80 -> 86         0.67254
      84 -> 91         0.15687

 Excited State  18:      Singlet-A      4.9076 eV  252.63 nm  f=0.2614  <S**2>=0.000
      82 -> 86        -0.10690
      83 -> 87         0.56556
      84 -> 91        -0.30872
      85 -> 93        -0.15087

 Excited State  19:      Singlet-A      5.1018 eV  243.02 nm  f=0.0271  <S**2>=0.000
      81 -> 87        -0.29789
      82 -> 87        -0.11738
      83 -> 88         0.54374
      83 -> 89        -0.24869

 Excited State  20:      Singlet-A      5.1345 eV  241.47 nm  f=0.0027  <S**2>=0.000
      80 -> 87         0.11887
      81 -> 87         0.52216
      81 -> 88         0.14582
      82 -> 87         0.26032
      83 -> 88         0.30609

 Excited State  21:      Singlet-A      5.1757 eV  239.55 nm  f=0.0352  <S**2>=0.000
      83 -> 87        -0.10799
      83 -> 88         0.12208
      83 -> 89         0.58166
      83 -> 90         0.22759
      84 -> 91        -0.13747

 Excited State  22:      Singlet-A      5.2138 eV  237.80 nm  f=0.0235  <S**2>=0.000
      79 -> 86         0.28384
      80 -> 87        -0.33081
      81 -> 87         0.11778
      84 -> 91        -0.12201
      84 -> 92         0.46644

 Excited State  23:      Singlet-A      5.2329 eV  236.93 nm  f=0.0829  <S**2>=0.000
      79 -> 86         0.21662
      80 -> 87         0.43269
      81 -> 87        -0.18568
      81 -> 89        -0.10200
      82 -> 87         0.21294
      84 -> 92         0.32988

 Excited State  24:      Singlet-A      5.2911 eV  234.33 nm  f=0.0622  <S**2>=0.000
      80 -> 87         0.29996
      81 -> 87         0.12927
      82 -> 87        -0.33400
      82 -> 88         0.46074
      82 -> 89         0.11292
      82 -> 90         0.11133

 Excited State  25:      Singlet-A      5.3731 eV  230.75 nm  f=0.0196  <S**2>=0.000
      81 -> 89        -0.25236
      82 -> 87        -0.13691
      82 -> 88        -0.32026
      82 -> 89         0.53026

 Excited State  26:      Singlet-A      5.4136 eV  229.03 nm  f=0.0243  <S**2>=0.000
      80 -> 88         0.40972
      81 -> 88         0.17354
      81 -> 89         0.40153
      82 -> 89         0.24504
      82 -> 90         0.10911
      84 -> 93         0.15476

 Excited State  27:      Singlet-A      5.4330 eV  228.21 nm  f=0.0261  <S**2>=0.000
      80 -> 88        -0.15385
      81 -> 89        -0.12093
      82 -> 86         0.10962
      82 -> 87        -0.12883
      82 -> 90         0.25603
      83 -> 90         0.11868
      84 -> 91         0.13667
      84 -> 93         0.51732

 Excited State  28:      Singlet-A      5.4585 eV  227.14 nm  f=0.2015  <S**2>=0.000
      78 -> 86        -0.17253
      79 -> 86        -0.12726
      82 -> 86        -0.18550
      82 -> 88         0.14979
      82 -> 89         0.13668
      82 -> 90        -0.24905
      83 -> 87        -0.11417
      83 -> 90        -0.16893
      84 -> 91        -0.19167
      84 -> 93         0.42038

 Excited State  29:      Singlet-A      5.5255 eV  224.39 nm  f=0.0217  <S**2>=0.000
      80 -> 88         0.20624
      80 -> 89         0.10937
      80 -> 90        -0.12499
      81 -> 88        -0.35190
      81 -> 89        -0.15495
      81 -> 90         0.37612
      82 -> 87         0.11788
      82 -> 90         0.11051
      83 -> 88         0.10534
      83 -> 89         0.10063
      83 -> 90        -0.22932

 Excited State  30:      Singlet-A      5.5680 eV  222.67 nm  f=0.0579  <S**2>=0.000
      78 -> 86        -0.18750
      80 -> 87         0.10678
      80 -> 88         0.19573
      80 -> 90         0.18988
      81 -> 90         0.36082
      82 -> 87        -0.10428
      82 -> 88        -0.14479
      82 -> 89        -0.12077
      83 -> 88        -0.14365
      83 -> 89        -0.14533
      83 -> 90         0.27984
      84 -> 91        -0.10191

 The electronic state is 1-A.
 Alpha  occ. eigenvalues --  -88.54138 -14.21975 -10.10554 -10.10357 -10.09119
 Alpha  occ. eigenvalues --  -10.08839 -10.08381 -10.05828 -10.05625 -10.05372
 Alpha  occ. eigenvalues --  -10.05366 -10.05310 -10.05305 -10.05304 -10.05293
 Alpha  occ. eigenvalues --  -10.05177 -10.04819 -10.04760 -10.04623 -10.04560
 Alpha  occ. eigenvalues --  -10.04530 -10.04478 -10.04412 -10.04398  -7.90325
 Alpha  occ. eigenvalues --   -5.81476  -5.81049  -5.80429  -0.94786  -0.84412
 Alpha  occ. eigenvalues --   -0.83449  -0.81756  -0.79984  -0.76108  -0.74027
 Alpha  occ. eigenvalues --   -0.72343  -0.71866  -0.71701  -0.70789  -0.67683
 Alpha  occ. eigenvalues --   -0.65399  -0.60672  -0.59704  -0.57921  -0.57710
 Alpha  occ. eigenvalues --   -0.56088  -0.55279  -0.54070  -0.50859  -0.49803
 Alpha  occ. eigenvalues --   -0.47028  -0.46376  -0.45863  -0.43754  -0.42924
 Alpha  occ. eigenvalues --   -0.42789  -0.41575  -0.41008  -0.40374  -0.39701
 Alpha  occ. eigenvalues --   -0.39266  -0.39038  -0.38597  -0.37944  -0.37532
 Alpha  occ. eigenvalues --   -0.36156  -0.35902  -0.34437  -0.33482  -0.33004
 Alpha  occ. eigenvalues --   -0.32816  -0.32532  -0.31734  -0.30772  -0.30265
 Alpha  occ. eigenvalues --   -0.29611  -0.29138  -0.27416  -0.26211  -0.24222
 Alpha  occ. eigenvalues --   -0.23804  -0.23564  -0.22698  -0.19049  -0.16748
 Alpha virt. eigenvalues --   -0.06431  -0.05025  -0.03997  -0.03816  -0.03122
 Alpha virt. eigenvalues --   -0.01183  -0.00142   0.00929   0.04995   0.05680
 Alpha virt. eigenvalues --    0.06624   0.07123   0.07831   0.08587   0.09118

 Mulliken charges:
               1
     1  C   -0.153629
     2  C   -0.071301
     3  C   -0.130869
     4  C    0.459515
     5  C   -0.280726
     6  C   -0.109947
     7  C    0.355985
     8  C   -0.018430
     9  C   -0.098623
    10  H    0.092769
    11  C   -0.076703
    12  C   -0.055184
    13  C   -0.178784
    14  H    0.099550
    15  H    0.138990
    16  H    0.093369
    17  C    0.234715
    18  C   -0.239851
    19  C   -0.372506
    20  C    0.034016
    21  C    0.021788
    22  C   -0.093088
    23  H    0.094047
    24  H    0.094748
    25  H    0.093681
    26  H    0.114878
    27  H    0.097656
    28  H    0.092074
    29  N   -0.179511
    30  H    0.148607
    31  S   -0.131396
    32  C   -0.151742
    33  C   -0.089625
    34  H    0.088222
    35  C   -0.080792
    36  C   -0.089375
    37  H    0.089996
    38  H    0.079029
    39  H    0.078449
 Sum of Mulliken charges =  -0.00000

 Dipole moment (field-independent basis, Debye):
    X=             -1.4412    Y=              2.9950    Z=             -0.5267  Tot=              3.3652
 Quadrupole moment (field-independent basis, Debye-Ang):
   XX=           -134.7108   YY=           -127.6780   ZZ=           -145.2040
   XY=             -4.2573   XZ=              1.0547   YZ=             -0.2937

 Normal termination of Gaussian 09 at Wed Feb 17 19:17:58 2021.
