                         Program Version 5.0.2 -  RELEASE  -
|  1> %maxcore 3200
|  2> %pal
|  3>  nprocs= 8
|  4> end
|  5> ! RI-wB2PLYP def2-TZVP def2/J def2-TZVP/C RIJCOSX CPCM TightSCF
|  6> %TDDFT DCORR 1
|  7>    NROOTS   30
|  8>
|  9>    TDA      FALSE
| 10> END
| 11>
| 12> %CPCM
| 13>    SMD          TRUE
| 14>    SMDsolvent   "ACETONITRILE"
| 15> END
| 16>
| 17>
| 18> * xyz 0 1
| 19> C                   0.51206600   -3.37733400   -1.08785000
| 20> C                   1.22884200   -2.24509400   -0.80828200
| 21> C                   0.56165000   -1.02126100   -0.62618200
| 22> C                  -0.86012500   -0.97150600   -0.72114200
| 23> C                  -1.55487400   -2.16935100   -1.02289900
| 24> C                  -0.88833900   -3.34503000   -1.20246900
| 25> C                  -1.53090900    0.24740000   -0.52851900
| 26> C                  -0.78141900    1.40992600   -0.28087600
| 27> C                   0.63912100    1.33324000   -0.19816900
| 28> C                   1.38499600    2.49658800    0.06127700
| 29> H                   2.46163100    2.44273000    0.12000400
| 30> C                   0.74379800    3.69248600    0.24122900
| 31> C                  -0.65728900    3.78443900    0.18150400
| 32> C                  -1.39859100    2.66788800   -0.07049500
| 33> H                   1.03930600   -4.31217200   -1.22804700
| 34> H                   2.30474700   -2.28755300   -0.73063500
| 35> H                  -2.63192200   -2.12927900   -1.10706600
| 36> H                  -1.43132400   -4.25120600   -1.43393000
| 37> H                   1.33083600    4.57974000    0.44021300
| 38> H                  -1.14245800    4.73770200    0.34109200
| 39> H                  -2.47777800    2.72265700   -0.10929600
| 40> N                   1.26196200    0.12497200   -0.36242300
| 41> C                  -3.00776800    0.31074400   -0.62103700
| 42> C                  -3.82181400   -0.15021500    0.42765100
| 43> C                  -3.56027400    0.83683500   -1.79011500
| 44> C                  -5.20240200   -0.06342300    0.23014100
| 45> C                  -4.93460200    0.89491100   -1.95198700
| 46> C                  -5.76094300    0.43989300   -0.93537400
| 47> H                  -5.35402100    1.29720800   -2.86561400
| 48> H                  -2.90505900    1.19394500   -2.57652000
| 49> C                   2.70265600    0.05760100   -0.25217100
| 50> C                   3.28025100   -0.19015900    0.97867200
| 51> C                   3.48695300    0.24302400   -1.38238600
| 52> C                   4.66028500   -0.25514900    1.09451600
| 53> H                   2.65201400   -0.33305300    1.84897100
| 54> C                   4.86021200    0.18008400   -1.27363300
| 55> H                   3.01789800    0.43581500   -2.33896500
| 56> C                   5.45675800   -0.06886300   -0.03470800
| 57> H                   5.10417100   -0.44952000    2.05997400
| 58> H                   5.49135800    0.32230000   -2.14088200
| 59> O                   6.80413200   -0.11088500   -0.02720000
| 60> C                   7.44922400   -0.35785200    1.21347900
| 61> H                   8.51558400   -0.34820700    1.00662500
| 62> H                   7.21769000    0.41868800    1.94580100
| 63> H                   7.17066500   -1.33185700    1.62181200
| 64> H                  -6.83742600    0.48487900   -1.04899900
| 65> H                  -5.85834500   -0.39893200    1.02651800
| 66> F                  -4.15577500   -0.52196500    2.87376400
| 67> F                  -2.00974900   -0.14579500    2.17298200
| 68> F                  -3.02919000   -2.14709500    1.73288700
| 69> B                  -3.24534100   -0.74537200    1.81315300
| 70> *
| 71>
| 72>
| 73>                          ****END OF INPUT****

CARTESIAN COORDINATES (ANGSTROEM)
---------------------------------
  C      0.512066   -3.377334   -1.087850
  C      1.228842   -2.245094   -0.808282
  C      0.561650   -1.021261   -0.626182
  C     -0.860125   -0.971506   -0.721142
  C     -1.554874   -2.169351   -1.022899
  C     -0.888339   -3.345030   -1.202469
  C     -1.530909    0.247400   -0.528519
  C     -0.781419    1.409926   -0.280876
  C      0.639121    1.333240   -0.198169
  C      1.384996    2.496588    0.061277
  H      2.461631    2.442730    0.120004
  C      0.743798    3.692486    0.241229
  C     -0.657289    3.784439    0.181504
  C     -1.398591    2.667888   -0.070495
  H      1.039306   -4.312172   -1.228047
  H      2.304747   -2.287553   -0.730635
  H     -2.631922   -2.129279   -1.107066
  H     -1.431324   -4.251206   -1.433930
  H      1.330836    4.579740    0.440213
  H     -1.142458    4.737702    0.341092
  H     -2.477778    2.722657   -0.109296
  N      1.261962    0.124972   -0.362423
  C     -3.007768    0.310744   -0.621037
  C     -3.821814   -0.150215    0.427651
  C     -3.560274    0.836835   -1.790115
  C     -5.202402   -0.063423    0.230141
  C     -4.934602    0.894911   -1.951987
  C     -5.760943    0.439893   -0.935374
  H     -5.354021    1.297208   -2.865614
  H     -2.905059    1.193945   -2.576520
  C      2.702656    0.057601   -0.252171
  C      3.280251   -0.190159    0.978672
  C      3.486953    0.243024   -1.382386
  C      4.660285   -0.255149    1.094516
  H      2.652014   -0.333053    1.848971
  C      4.860212    0.180084   -1.273633
  H      3.017898    0.435815   -2.338965
  C      5.456758   -0.068863   -0.034708
  H      5.104171   -0.449520    2.059974
  H      5.491358    0.322300   -2.140882
  O      6.804132   -0.110885   -0.027200
  C      7.449224   -0.357852    1.213479
  H      8.515584   -0.348207    1.006625
  H      7.217690    0.418688    1.945801
  H      7.170665   -1.331857    1.621812
  H     -6.837426    0.484879   -1.048999
  H     -5.858345   -0.398932    1.026518
  F     -4.155775   -0.521965    2.873764
  F     -2.009749   -0.145795    2.172982
  F     -3.029190   -2.147095    1.732887
  B     -3.245341   -0.745372    1.813153

 Total Charge           Charge          ....    0
 Multiplicity           Mult            ....    1
 Number of Electrons    NEL             ....  222
 Basis Dimension        Dim             .... 1106

ORBITAL ENERGIES
----------------

  NO   OCC          E(Eh)            E(eV)
   0   2.0000     -25.370212      -690.3586
   1   2.0000     -25.368886      -690.3225
   2   2.0000     -25.367552      -690.2862
   3   2.0000     -19.830689      -539.6205
   4   2.0000     -15.006707      -408.3533
   5   2.0000     -10.777657      -293.2749
   6   2.0000     -10.777526      -293.2714
   7   2.0000     -10.762988      -292.8758
   8   2.0000     -10.762429      -292.8606
   9   2.0000     -10.734985      -292.1138
  10   2.0000     -10.725385      -291.8526
  11   2.0000     -10.724925      -291.8401
  12   2.0000     -10.724707      -291.8341
  13   2.0000     -10.713967      -291.5419
  14   2.0000     -10.713951      -291.5414
  15   2.0000     -10.709314      -291.4152
  16   2.0000     -10.708912      -291.4043
  17   2.0000     -10.704480      -291.2837
  18   2.0000     -10.703767      -291.2643
  19   2.0000     -10.703311      -291.2519
  20   2.0000     -10.701879      -291.2129
  21   2.0000     -10.701033      -291.1899
  22   2.0000     -10.697195      -291.0855
  23   2.0000     -10.695893      -291.0500
  24   2.0000     -10.692908      -290.9688
  25   2.0000     -10.691796      -290.9386
  26   2.0000     -10.690318      -290.8984
  27   2.0000     -10.685369      -290.7637
  28   2.0000     -10.684375      -290.7366
  29   2.0000     -10.680650      -290.6353
  30   2.0000     -10.666757      -290.2572
  31   2.0000      -7.223873      -196.5716
  32   2.0000      -1.416413       -38.5425
  33   2.0000      -1.370948       -37.3054
  34   2.0000      -1.368535       -37.2397
  35   2.0000      -1.300233       -35.3811
  36   2.0000      -1.246141       -33.9092
  37   2.0000      -1.108303       -30.1585
  38   2.0000      -1.093839       -29.7649
  39   2.0000      -1.074871       -29.2487
  40   2.0000      -1.062447       -28.9106
  41   2.0000      -1.030842       -28.0506
  42   2.0000      -0.983068       -26.7506
  43   2.0000      -0.969262       -26.3749
  44   2.0000      -0.964527       -26.2461
  45   2.0000      -0.959189       -26.1008
  46   2.0000      -0.945787       -25.7362
  47   2.0000      -0.936840       -25.4927
  48   2.0000      -0.930877       -25.3305
  49   2.0000      -0.883881       -24.0516
  50   2.0000      -0.860656       -23.4196
  51   2.0000      -0.836182       -22.7537
  52   2.0000      -0.823495       -22.4084
  53   2.0000      -0.798795       -21.7363
  54   2.0000      -0.783299       -21.3147
  55   2.0000      -0.775206       -21.0944
  56   2.0000      -0.772056       -21.0087
  57   2.0000      -0.746652       -20.3174
  58   2.0000      -0.731589       -19.9076
  59   2.0000      -0.726105       -19.7583
  60   2.0000      -0.707718       -19.2580
  61   2.0000      -0.707048       -19.2397
  62   2.0000      -0.682522       -18.5724
  63   2.0000      -0.670396       -18.2424
  64   2.0000      -0.659745       -17.9526
  65   2.0000      -0.646138       -17.5823
  66   2.0000      -0.640035       -17.4162
  67   2.0000      -0.636834       -17.3291
  68   2.0000      -0.631575       -17.1860
  69   2.0000      -0.629293       -17.1239
  70   2.0000      -0.624445       -16.9920
  71   2.0000      -0.620799       -16.8928
  72   2.0000      -0.607820       -16.5396
  73   2.0000      -0.603893       -16.4328
  74   2.0000      -0.596054       -16.2195
  75   2.0000      -0.595513       -16.2047
  76   2.0000      -0.589631       -16.0447
  77   2.0000      -0.586164       -15.9503
  78   2.0000      -0.581687       -15.8285
  79   2.0000      -0.578414       -15.7395
  80   2.0000      -0.573924       -15.6173
  81   2.0000      -0.559725       -15.2309
  82   2.0000      -0.557258       -15.1638
  83   2.0000      -0.552431       -15.0324
  84   2.0000      -0.549935       -14.9645
  85   2.0000      -0.539714       -14.6864
  86   2.0000      -0.528697       -14.3866
  87   2.0000      -0.526714       -14.3326
  88   2.0000      -0.524255       -14.2657
  89   2.0000      -0.520781       -14.1712
  90   2.0000      -0.517478       -14.0813
  91   2.0000      -0.513475       -13.9724
  92   2.0000      -0.508846       -13.8464
  93   2.0000      -0.503701       -13.7064
  94   2.0000      -0.502054       -13.6616
  95   2.0000      -0.494163       -13.4469
  96   2.0000      -0.488265       -13.2864
  97   2.0000      -0.486638       -13.2421
  98   2.0000      -0.475917       -12.9504
  99   2.0000      -0.461616       -12.5612
 100   2.0000      -0.459866       -12.5136
 101   2.0000      -0.458421       -12.4743
 102   2.0000      -0.431830       -11.7507
 103   2.0000      -0.415919       -11.3177
 104   2.0000      -0.382165       -10.3992
 105   2.0000      -0.362913        -9.8754
 106   2.0000      -0.354904        -9.6574
 107   2.0000      -0.348408        -9.4807
 108   2.0000      -0.343388        -9.3441
 109   2.0000      -0.332210        -9.0399
 110   2.0000      -0.321153        -8.7390
 111   0.0000      -0.028758        -0.7825
 112   0.0000       0.045780         1.2457
 113   0.0000       0.065257         1.7757
 114   0.0000       0.079145         2.1536
 115   0.0000       0.084016         2.2862

MULLIKEN ATOMIC CHARGES
-----------------------
   0 C :   -0.120058
   1 C :   -0.242035
   2 C :    0.160751
   3 C :    0.146957
   4 C :   -0.255484
   5 C :   -0.175167
   6 C :    0.314385
   7 C :    0.073958
   8 C :    0.202470
   9 C :   -0.255217
  10 H :    0.207670
  11 C :   -0.108722
  12 C :   -0.196052
  13 C :   -0.223336
  14 H :    0.195447
  15 H :    0.207640
  16 H :    0.205840
  17 H :    0.188831
  18 H :    0.196173
  19 H :    0.189015
  20 H :    0.210919
  21 N :    0.125054
  22 C :   -0.159934
  23 C :   -0.128668
  24 C :   -0.287258
  25 C :   -0.208934
  26 C :   -0.159301
  27 C :   -0.196604
  28 H :    0.178741
  29 H :    0.178255
  30 C :   -0.045631
  31 C :   -0.233739
  32 C :   -0.202413
  33 C :   -0.237905
  34 H :    0.192635
  35 C :   -0.209222
  36 H :    0.188987
  37 C :    0.350502
  38 H :    0.195852
  39 H :    0.176453
  40 O :   -0.312168
  41 C :   -0.257792
  42 H :    0.169655
  43 H :    0.157410
  44 H :    0.156979
  45 H :    0.176793
  46 H :    0.167955
  47 F :   -0.443518
  48 F :   -0.439904
  49 F :   -0.439639
  50 B :    0.623376
Sum of atomic charges:    0.0000000

LOEWDIN ATOMIC CHARGES
----------------------
   0 C :   -0.083162
   1 C :   -0.106383
   2 C :   -0.057822
   3 C :   -0.056850
   4 C :   -0.054384
   5 C :   -0.135256
   6 C :    0.075932
   7 C :   -0.059251
   8 C :   -0.059040
   9 C :   -0.104687
  10 H :    0.172503
  11 C :   -0.084243
  12 C :   -0.133316
  13 C :   -0.060157
  14 H :    0.166591
  15 H :    0.172345
  16 H :    0.174850
  17 H :    0.161341
  18 H :    0.166579
  19 H :    0.161508
  20 H :    0.173503
  21 N :    0.357464
  22 C :   -0.078750
  23 C :   -0.027439
  24 C :   -0.101332
  25 C :   -0.109055
  26 C :   -0.149786
  27 C :   -0.144880
  28 H :    0.155088
  29 H :    0.163122
  30 C :   -0.178616
  31 C :   -0.088248
  32 C :   -0.091932
  33 C :   -0.129452
  34 H :    0.170130
  35 C :   -0.113453
  36 H :    0.169493
  37 C :   -0.240750
  38 H :    0.165253
  39 H :    0.161782
  40 O :    0.213910
  41 C :   -0.308642
  42 H :    0.120101
  43 H :    0.116426
  44 H :    0.116354
  45 H :    0.154295
  46 H :    0.158695
  47 F :    0.126231
  48 F :    0.131388
  49 F :    0.119267
  50 B :   -1.267264

  Mayer bond orders larger than 0.100000
B(  0-C ,  1-C ) :   1.5455 B(  0-C ,  5-C ) :   1.2225 B(  0-C , 14-H ) :   0.9645
B(  1-C ,  2-C ) :   1.2343 B(  1-C , 15-H ) :   0.9594 B(  2-C ,  3-C ) :   1.2752
B(  2-C , 21-N ) :   1.2278 B(  3-C ,  4-C ) :   1.1470 B(  3-C ,  6-C ) :   1.1694
B(  4-C ,  5-C ) :   1.5996 B(  4-C , 16-H ) :   0.9563 B(  5-C , 17-H ) :   0.9753
B(  6-C ,  7-C ) :   1.1910 B(  6-C , 22-C ) :   0.6646 B(  7-C ,  8-C ) :   1.2644
B(  7-C , 13-C ) :   1.1684 B(  8-C ,  9-C ) :   1.2270 B(  8-C , 21-N ) :   1.2267
B(  9-C , 10-H ) :   0.9591 B(  9-C , 11-C ) :   1.5501 B( 11-C , 12-C ) :   1.2229
B( 11-C , 18-H ) :   0.9630 B( 12-C , 13-C ) :   1.6093 B( 12-C , 19-H ) :   0.9744
B( 13-C , 20-H ) :   0.9491 B( 21-N , 30-C ) :   0.7015 B( 22-C , 23-C ) :   1.3133
B( 22-C , 24-C ) :   1.3964 B( 23-C , 25-C ) :   1.4191 B( 23-C , 50-B ) :   0.9497
B( 24-C , 26-C ) :   1.4499 B( 24-C , 29-H ) :   0.9827 B( 25-C , 27-C ) :   1.3908
B( 25-C , 46-H ) :   0.9729 B( 26-C , 27-C ) :   1.3876 B( 26-C , 28-H ) :   0.9791
B( 27-C , 45-H ) :   0.9759 B( 30-C , 31-C ) :   1.5015 B( 30-C , 32-C ) :   1.4462
B( 31-C , 33-C ) :   1.3734 B( 31-C , 34-H ) :   0.9636 B( 32-C , 35-C ) :   1.4585
B( 32-C , 36-H ) :   0.9802 B( 33-C , 37-C ) :   1.3125 B( 33-C , 38-H ) :   0.9595
B( 35-C , 37-C ) :   1.3297 B( 35-C , 39-H ) :   0.9803 B( 37-C , 40-O ) :   1.1364
B( 40-O , 41-C ) :   0.8842 B( 41-C , 42-H ) :   0.9719 B( 41-C , 43-H ) :   0.9697
B( 41-C , 44-H ) :   0.9697 B( 47-F , 50-B ) :   0.9107 B( 48-F , 50-B ) :   0.8732
B( 49-F , 50-B ) :   0.9053

MP2 TOTAL ENERGY:    -1454.666650500 Eh

-----------------------------------------------------------------------------
         ABSORPTION SPECTRUM VIA TRANSITION ELECTRIC DIPOLE MOMENTS
-----------------------------------------------------------------------------
State   Energy    Wavelength  fosc         T2        TX        TY        TZ
        (cm-1)      (nm)                 (au**2)    (au)      (au)      (au)
-----------------------------------------------------------------------------
   1   26793.6    373.2   0.263191832   3.23382  -1.79418   0.04107  -0.11427
   2   31451.5    317.9   0.346501695   3.62693   0.03526   1.87121   0.35249
   3   33832.7    295.6   0.025563255   0.24875   0.49799  -0.02426  -0.01256
   4   35826.6    279.1   0.111379161   1.02347   0.00698  -0.99770  -0.16737
   5   35205.3    284.0   0.000358922   0.00336  -0.03163  -0.04776   0.00863
   6   37432.1    267.2   0.035327321   0.31070   0.10961   0.44262   0.32058
   7   40879.6    244.6   0.034563949   0.27835   0.01118  -0.10204   0.51751
   8   42846.7    233.4   1.012853070   7.78225  -0.03306   2.73709   0.53803
   9   42986.4    232.6   0.337059603   2.58137  -0.26336  -1.56665  -0.24008
  10   47391.2    211.0   0.189970254   1.31966   1.11705  -0.06565   0.25992
  11   48498.2    206.2   0.019795053   0.13437  -0.33764  -0.06509   0.12702
  12   47759.4    209.4   0.116371429   0.80216   0.89368  -0.05449   0.02316
  13   44510.4    224.7   0.040291043   0.29800   0.02032   0.54277   0.05470
  14   48363.4    206.8   0.203874547   1.38778  -1.17278   0.03945  -0.10397
  15   48195.3    207.5   0.060261678   0.41163  -0.62333  -0.07471   0.13234
  16   48527.1    206.1   0.005755670   0.03905   0.06193  -0.08835   0.16555
  17   48704.5    205.3   0.019972307   0.13500   0.08052  -0.13673   0.33139
  18   52515.8    190.4   0.923245211   5.78766  -2.40147   0.06404  -0.12848
  19   53473.2    187.0   1.482800935   9.12898   3.01323  -0.13277   0.17824
  20   53526.2    186.8   0.454709345   2.79668   0.00608   0.70071  -1.51844
  21   53950.3    185.4   0.418588975   2.55429   0.03892  -0.30721   1.56793
  22   52090.3    192.0   0.099351269   0.62790   0.39558  -0.20227   0.65613
  23   52659.5    189.9   0.005160319   0.03226  -0.12998  -0.05516  -0.11101
  24   53989.6    185.2   0.010435850   0.06363   0.00225   0.20907   0.14114
  25   54661.4    182.9   0.076111331   0.45840   0.00960   0.58231   0.34529
  26   52547.3    190.3   0.054651017   0.34239  -0.09113  -0.19511   0.54408
  27   54854.7    182.3   0.002395048   0.01437  -0.02241  -0.11386  -0.03014
  28   55417.3    180.4   0.000905654   0.00538   0.04375  -0.05208   0.02745
  29   54909.9    182.1   0.071349088   0.42777  -0.07882   0.62107  -0.18930
  30   55899.5    178.9   0.004450448   0.02621  -0.09145   0.10579   0.08158

FINAL SINGLE POINT ENERGY     -1452.967050171924

DIPOLE MOMENT
-------------
                                X             Y             Z
Electronic contribution:    -22.25548      -4.23817       9.08909
Nuclear contribution   :     28.63218       5.99629     -12.94564
                        -----------------------------------------
Total Dipole Moment    :      6.37669       1.75812      -3.85654
                        -----------------------------------------
Magnitude (a.u.)       :      7.65677
Magnitude (Debye)      :     19.46197

Rotational constants in cm-1:     0.009186     0.002783     0.002554
Rotational constants in MHz :   275.390295    83.442991    76.554550

                             ****ORCA TERMINATED NORMALLY****
TOTAL RUN TIME: 0 days 2 hours 7 minutes 54 seconds 218 msec
