                         Program Version 5.0.2 -  RELEASE  -
|  1> %maxcore 20000
|  2> %pal
|  3>  nprocs= 4
|  4> end
|  5> ! RI-B2GP-PLYP   def2-TZVP def2/J def2-TZVP/C RIJCOSX CPCM TightSCF
|  6> %TDDFT
|  7>    NROOTS   30
|  8>    dcorr 4
|  9>    TDA      FALSE
| 10> END
| 11>
| 12> %CPCM
| 13>    SMD          TRUE
| 14>    SMDsolvent   "ACETONITRILE"
| 15> END
| 16>
| 17>
| 18> * xyz 0 1
| 19> C                   0.51206600   -3.37733400   -1.08785000
| 20> C                   1.22884200   -2.24509400   -0.80828200
| 21> C                   0.56165000   -1.02126100   -0.62618200
| 22> C                  -0.86012500   -0.97150600   -0.72114200
| 23> C                  -1.55487400   -2.16935100   -1.02289900
| 24> C                  -0.88833900   -3.34503000   -1.20246900
| 25> C                  -1.53090900    0.24740000   -0.52851900
| 26> C                  -0.78141900    1.40992600   -0.28087600
| 27> C                   0.63912100    1.33324000   -0.19816900
| 28> C                   1.38499600    2.49658800    0.06127700
| 29> H                   2.46163100    2.44273000    0.12000400
| 30> C                   0.74379800    3.69248600    0.24122900
| 31> C                  -0.65728900    3.78443900    0.18150400
| 32> C                  -1.39859100    2.66788800   -0.07049500
| 33> H                   1.03930600   -4.31217200   -1.22804700
| 34> H                   2.30474700   -2.28755300   -0.73063500
| 35> H                  -2.63192200   -2.12927900   -1.10706600
| 36> H                  -1.43132400   -4.25120600   -1.43393000
| 37> H                   1.33083600    4.57974000    0.44021300
| 38> H                  -1.14245800    4.73770200    0.34109200
| 39> H                  -2.47777800    2.72265700   -0.10929600
| 40> N                   1.26196200    0.12497200   -0.36242300
| 41> C                  -3.00776800    0.31074400   -0.62103700
| 42> C                  -3.82181400   -0.15021500    0.42765100
| 43> C                  -3.56027400    0.83683500   -1.79011500
| 44> C                  -5.20240200   -0.06342300    0.23014100
| 45> C                  -4.93460200    0.89491100   -1.95198700
| 46> C                  -5.76094300    0.43989300   -0.93537400
| 47> H                  -5.35402100    1.29720800   -2.86561400
| 48> H                  -2.90505900    1.19394500   -2.57652000
| 49> C                   2.70265600    0.05760100   -0.25217100
| 50> C                   3.28025100   -0.19015900    0.97867200
| 51> C                   3.48695300    0.24302400   -1.38238600
| 52> C                   4.66028500   -0.25514900    1.09451600
| 53> H                   2.65201400   -0.33305300    1.84897100
| 54> C                   4.86021200    0.18008400   -1.27363300
| 55> H                   3.01789800    0.43581500   -2.33896500
| 56> C                   5.45675800   -0.06886300   -0.03470800
| 57> H                   5.10417100   -0.44952000    2.05997400
| 58> H                   5.49135800    0.32230000   -2.14088200
| 59> O                   6.80413200   -0.11088500   -0.02720000
| 60> C                   7.44922400   -0.35785200    1.21347900
| 61> H                   8.51558400   -0.34820700    1.00662500
| 62> H                   7.21769000    0.41868800    1.94580100
| 63> H                   7.17066500   -1.33185700    1.62181200
| 64> H                  -6.83742600    0.48487900   -1.04899900
| 65> H                  -5.85834500   -0.39893200    1.02651800
| 66> F                  -4.15577500   -0.52196500    2.87376400
| 67> F                  -2.00974900   -0.14579500    2.17298200
| 68> F                  -3.02919000   -2.14709500    1.73288700
| 69> B                  -3.24534100   -0.74537200    1.81315300
| 70> *
| 71>
| 72>
| 73>                          ****END OF INPUT****

CARTESIAN COORDINATES (ANGSTROEM)
---------------------------------
  C      0.512066   -3.377334   -1.087850
  C      1.228842   -2.245094   -0.808282
  C      0.561650   -1.021261   -0.626182
  C     -0.860125   -0.971506   -0.721142
  C     -1.554874   -2.169351   -1.022899
  C     -0.888339   -3.345030   -1.202469
  C     -1.530909    0.247400   -0.528519
  C     -0.781419    1.409926   -0.280876
  C      0.639121    1.333240   -0.198169
  C      1.384996    2.496588    0.061277
  H      2.461631    2.442730    0.120004
  C      0.743798    3.692486    0.241229
  C     -0.657289    3.784439    0.181504
  C     -1.398591    2.667888   -0.070495
  H      1.039306   -4.312172   -1.228047
  H      2.304747   -2.287553   -0.730635
  H     -2.631922   -2.129279   -1.107066
  H     -1.431324   -4.251206   -1.433930
  H      1.330836    4.579740    0.440213
  H     -1.142458    4.737702    0.341092
  H     -2.477778    2.722657   -0.109296
  N      1.261962    0.124972   -0.362423
  C     -3.007768    0.310744   -0.621037
  C     -3.821814   -0.150215    0.427651
  C     -3.560274    0.836835   -1.790115
  C     -5.202402   -0.063423    0.230141
  C     -4.934602    0.894911   -1.951987
  C     -5.760943    0.439893   -0.935374
  H     -5.354021    1.297208   -2.865614
  H     -2.905059    1.193945   -2.576520
  C      2.702656    0.057601   -0.252171
  C      3.280251   -0.190159    0.978672
  C      3.486953    0.243024   -1.382386
  C      4.660285   -0.255149    1.094516
  H      2.652014   -0.333053    1.848971
  C      4.860212    0.180084   -1.273633
  H      3.017898    0.435815   -2.338965
  C      5.456758   -0.068863   -0.034708
  H      5.104171   -0.449520    2.059974
  H      5.491358    0.322300   -2.140882
  O      6.804132   -0.110885   -0.027200
  C      7.449224   -0.357852    1.213479
  H      8.515584   -0.348207    1.006625
  H      7.217690    0.418688    1.945801
  H      7.170665   -1.331857    1.621812
  H     -6.837426    0.484879   -1.048999
  H     -5.858345   -0.398932    1.026518
  F     -4.155775   -0.521965    2.873764
  F     -2.009749   -0.145795    2.172982
  F     -3.029190   -2.147095    1.732887
  B     -3.245341   -0.745372    1.813153

 Total Charge           Charge          ....    0
 Multiplicity           Mult            ....    1
 Number of Electrons    NEL             ....  222
 Basis Dimension        Dim             .... 1106

ORBITAL ENERGIES
----------------

  NO   OCC          E(Eh)            E(eV)
   0   2.0000     -25.536985      -694.8967
   1   2.0000     -25.536009      -694.8701
   2   2.0000     -25.534531      -694.8299
   3   2.0000     -19.973151      -543.4971
   4   2.0000     -15.121920      -411.4884
   5   2.0000     -10.865219      -295.6576
   6   2.0000     -10.865141      -295.6555
   7   2.0000     -10.851219      -295.2767
   8   2.0000     -10.848967      -295.2154
   9   2.0000     -10.823274      -294.5163
  10   2.0000     -10.815679      -294.3096
  11   2.0000     -10.813154      -294.2409
  12   2.0000     -10.812911      -294.2343
  13   2.0000     -10.802433      -293.9491
  14   2.0000     -10.802381      -293.9477
  15   2.0000     -10.797644      -293.8188
  16   2.0000     -10.797199      -293.8067
  17   2.0000     -10.792796      -293.6869
  18   2.0000     -10.792157      -293.6695
  19   2.0000     -10.790992      -293.6378
  20   2.0000     -10.790494      -293.6243
  21   2.0000     -10.789637      -293.6010
  22   2.0000     -10.786181      -293.5069
  23   2.0000     -10.784855      -293.4708
  24   2.0000     -10.781447      -293.3781
  25   2.0000     -10.780412      -293.3499
  26   2.0000     -10.778683      -293.3029
  27   2.0000     -10.774029      -293.1762
  28   2.0000     -10.772953      -293.1469
  29   2.0000     -10.769083      -293.0416
  30   2.0000     -10.754014      -292.6316
  31   2.0000      -7.284781      -198.2290
  32   2.0000      -1.396739       -38.0072
  33   2.0000      -1.352184       -36.7948
  34   2.0000      -1.349827       -36.7307
  35   2.0000      -1.272401       -34.6238
  36   2.0000      -1.212088       -32.9826
  37   2.0000      -1.070668       -29.1344
  38   2.0000      -1.056197       -28.7406
  39   2.0000      -1.037332       -28.2272
  40   2.0000      -1.024920       -27.8895
  41   2.0000      -0.992605       -27.0101
  42   2.0000      -0.944487       -25.7008
  43   2.0000      -0.930431       -25.3183
  44   2.0000      -0.926368       -25.2077
  45   2.0000      -0.920995       -25.0616
  46   2.0000      -0.907818       -24.7030
  47   2.0000      -0.898465       -24.4485
  48   2.0000      -0.892435       -24.2844
  49   2.0000      -0.844154       -22.9706
  50   2.0000      -0.821136       -22.3443
  51   2.0000      -0.795751       -21.6535
  52   2.0000      -0.782577       -21.2950
  53   2.0000      -0.758253       -20.6331
  54   2.0000      -0.743229       -20.2243
  55   2.0000      -0.734678       -19.9916
  56   2.0000      -0.731774       -19.9126
  57   2.0000      -0.705966       -19.2103
  58   2.0000      -0.687728       -18.7140
  59   2.0000      -0.685522       -18.6540
  60   2.0000      -0.666640       -18.1402
  61   2.0000      -0.663868       -18.0648
  62   2.0000      -0.640248       -17.4220
  63   2.0000      -0.627710       -17.0809
  64   2.0000      -0.615888       -16.7592
  65   2.0000      -0.606027       -16.4908
  66   2.0000      -0.599043       -16.3008
  67   2.0000      -0.596171       -16.2226
  68   2.0000      -0.590407       -16.0658
  69   2.0000      -0.587724       -15.9928
  70   2.0000      -0.582377       -15.8473
  71   2.0000      -0.577509       -15.7148
  72   2.0000      -0.565763       -15.3952
  73   2.0000      -0.560054       -15.2398
  74   2.0000      -0.555491       -15.1157
  75   2.0000      -0.553709       -15.0672
  76   2.0000      -0.546363       -14.8673
  77   2.0000      -0.545628       -14.8473
  78   2.0000      -0.540393       -14.7048
  79   2.0000      -0.537818       -14.6348
  80   2.0000      -0.532981       -14.5032
  81   2.0000      -0.520442       -14.1620
  82   2.0000      -0.518152       -14.0996
  83   2.0000      -0.511823       -13.9274
  84   2.0000      -0.508450       -13.8356
  85   2.0000      -0.499654       -13.5963
  86   2.0000      -0.488800       -13.3009
  87   2.0000      -0.487497       -13.2655
  88   2.0000      -0.485956       -13.2235
  89   2.0000      -0.474834       -12.9209
  90   2.0000      -0.474054       -12.8997
  91   2.0000      -0.471762       -12.8373
  92   2.0000      -0.468887       -12.7591
  93   2.0000      -0.463259       -12.6059
  94   2.0000      -0.460139       -12.5210
  95   2.0000      -0.454731       -12.3739
  96   2.0000      -0.448610       -12.2073
  97   2.0000      -0.441696       -12.0192
  98   2.0000      -0.432323       -11.7641
  99   2.0000      -0.421872       -11.4797
 100   2.0000      -0.419960       -11.4277
 101   2.0000      -0.416071       -11.3219
 102   2.0000      -0.388827       -10.5805
 103   2.0000      -0.374747       -10.1974
 104   2.0000      -0.338565        -9.2128
 105   2.0000      -0.320415        -8.7189
 106   2.0000      -0.314964        -8.5706
 107   2.0000      -0.306258        -8.3337
 108   2.0000      -0.301401        -8.2015
 109   2.0000      -0.291703        -7.9376
 110   2.0000      -0.281998        -7.6736
 111   0.0000      -0.050301        -1.3688
 112   0.0000       0.022851         0.6218
 113   0.0000       0.041082         1.1179
 114   0.0000       0.054459         1.4819
 115   0.0000       0.059145         1.6094

MULLIKEN ATOMIC CHARGES
-----------------------
   0 C :   -0.099423
   1 C :   -0.242589
   2 C :    0.155763
   3 C :    0.130274
   4 C :   -0.246739
   5 C :   -0.157707
   6 C :    0.422152
   7 C :    0.059456
   8 C :    0.209173
   9 C :   -0.261568
  10 H :    0.186068
  11 C :   -0.082911
  12 C :   -0.182267
  13 C :   -0.223033
  14 H :    0.177358
  15 H :    0.186117
  16 H :    0.182122
  17 H :    0.171139
  18 H :    0.178245
  19 H :    0.171342
  20 H :    0.190556
  21 N :    0.134993
  22 C :   -0.096116
  23 C :   -0.176655
  24 C :   -0.323387
  25 C :   -0.203548
  26 C :   -0.139631
  27 C :   -0.185642
  28 H :    0.160717
  29 H :    0.158064
  30 C :    0.070959
  31 C :   -0.248853
  32 C :   -0.218280
  33 C :   -0.239528
  34 H :    0.173346
  35 C :   -0.206631
  36 H :    0.169234
  37 C :    0.387407
  38 H :    0.175247
  39 H :    0.156127
  40 O :   -0.343175
  41 C :   -0.192809
  42 H :    0.154294
  43 H :    0.139955
  44 H :    0.139497
  45 H :    0.158468
  46 H :    0.152732
  47 F :   -0.472446
  48 F :   -0.469954
  49 F :   -0.468909
  50 B :    0.730997
Sum of atomic charges:   -0.0000000

LOEWDIN ATOMIC CHARGES
----------------------
   0 C :   -0.080712
   1 C :   -0.103048
   2 C :   -0.056234
   3 C :   -0.054357
   4 C :   -0.050728
   5 C :   -0.131424
   6 C :    0.077154
   7 C :   -0.056482
   8 C :   -0.057306
   9 C :   -0.101337
  10 H :    0.168749
  11 C :   -0.081714
  12 C :   -0.129595
  13 C :   -0.057316
  14 H :    0.162434
  15 H :    0.168584
  16 H :    0.170950
  17 H :    0.157404
  18 H :    0.162439
  19 H :    0.157592
  20 H :    0.169609
  21 N :    0.353312
  22 C :   -0.075483
  23 C :   -0.025594
  24 C :   -0.098612
  25 C :   -0.106415
  26 C :   -0.147078
  27 C :   -0.142279
  28 H :    0.150992
  29 H :    0.158725
  30 C :   -0.172392
  31 C :   -0.085244
  32 C :   -0.088733
  33 C :   -0.126133
  34 H :    0.165777
  35 C :   -0.110391
  36 H :    0.165155
  37 C :   -0.235071
  38 H :    0.161445
  39 H :    0.157669
  40 O :    0.206022
  41 C :   -0.293804
  42 H :    0.115771
  43 H :    0.112219
  44 H :    0.112146
  45 H :    0.150139
  46 H :    0.154811
  47 F :    0.113623
  48 F :    0.118370
  49 F :    0.106483
  50 B :   -1.230093

  Mayer bond orders larger than 0.100000
B(  0-C ,  1-C ) :   1.5264 B(  0-C ,  5-C ) :   1.2216 B(  0-C , 14-H ) :   0.9724
B(  1-C ,  2-C ) :   1.2602 B(  1-C , 15-H ) :   0.9711 B(  2-C ,  3-C ) :   1.2655
B(  2-C , 21-N ) :   1.2271 B(  3-C ,  4-C ) :   1.1690 B(  3-C ,  6-C ) :   1.1551
B(  4-C ,  5-C ) :   1.5840 B(  4-C , 16-H ) :   0.9655 B(  5-C , 17-H ) :   0.9847
B(  6-C ,  7-C ) :   1.1739 B(  6-C , 22-C ) :   0.5892 B(  7-C ,  8-C ) :   1.2537
B(  7-C , 13-C ) :   1.1735 B(  8-C ,  9-C ) :   1.2496 B(  8-C , 21-N ) :   1.2267
B(  9-C , 10-H ) :   0.9708 B(  9-C , 11-C ) :   1.5317 B( 11-C , 12-C ) :   1.2225
B( 11-C , 18-H ) :   0.9707 B( 12-C , 13-C ) :   1.5946 B( 12-C , 19-H ) :   0.9838
B( 13-C , 20-H ) :   0.9631 B( 21-N , 30-C ) :   0.6957 B( 22-C , 23-C ) :   1.3372
B( 22-C , 24-C ) :   1.3932 B( 23-C , 25-C ) :   1.4332 B( 23-C , 50-B ) :   0.9267
B( 24-C , 26-C ) :   1.4489 B( 24-C , 29-H ) :   0.9960 B( 25-C , 27-C ) :   1.3839
B( 25-C , 46-H ) :   0.9816 B( 26-C , 27-C ) :   1.3847 B( 26-C , 28-H ) :   0.9860
B( 27-C , 45-H ) :   0.9828 B( 30-C , 31-C ) :   1.5132 B( 30-C , 32-C ) :   1.4570
B( 31-C , 33-C ) :   1.3768 B( 31-C , 34-H ) :   0.9742 B( 32-C , 35-C ) :   1.4578
B( 32-C , 36-H ) :   0.9909 B( 33-C , 37-C ) :   1.3174 B( 33-C , 38-H ) :   0.9729
B( 35-C , 37-C ) :   1.3245 B( 35-C , 39-H ) :   0.9948 B( 37-C , 40-O ) :   1.1152
B( 40-O , 41-C ) :   0.8805 B( 41-C , 42-H ) :   0.9743 B( 41-C , 43-H ) :   0.9729
B( 41-C , 44-H ) :   0.9729 B( 47-F , 50-B ) :   0.8664 B( 48-F , 50-B ) :   0.8352
B( 49-F , 50-B ) :   0.8653

MP2 TOTAL ENERGY:    -1455.905536463 Eh

-----------------------------------------------------------------------------
         ABSORPTION SPECTRUM VIA TRANSITION ELECTRIC DIPOLE MOMENTS
-----------------------------------------------------------------------------
State   Energy    Wavelength  fosc         T2        TX        TY        TZ
        (cm-1)      (nm)                 (au**2)    (au)      (au)      (au)
-----------------------------------------------------------------------------
   1   24390.3    410.0   0.221194855   2.98561  -1.72385   0.04325  -0.10985
   2   30090.6    332.3   0.337305736   3.69036  -0.02704  -1.88902  -0.34820
   3   28876.2    346.3   0.016502662   0.18814  -0.43341  -0.01630   0.00607
   4   27934.3    358.0   0.004557709   0.05371   0.07097  -0.22036  -0.01098
   5   30267.6    330.4   0.008912656   0.09694   0.07281  -0.30188   0.02250
   6   32414.3    308.5   0.054278205   0.55127   0.10301   0.68225   0.27422
   7   39296.8    254.5   0.035744464   0.29945   0.00695  -0.19622   0.51079
   8   37311.6    268.0   0.537886119   4.74594  -0.05662  -2.13021  -0.45271
   9   38692.8    258.4   0.649982775   5.53028   0.01501   2.30738   0.45394
  10   41387.0    241.6   0.099537101   0.79176  -0.23816  -0.85607  -0.04687
  11   46106.5    216.9   0.223610595   1.59664  -1.24787   0.05767  -0.19011
  12   46324.6    215.9   0.008861983   0.06298   0.15659   0.05225  -0.18902
  13   46425.0    215.4   0.059656500   0.42304  -0.64555   0.06240  -0.04905
  14   44405.7    225.2   0.025321601   0.18773  -0.00482   0.42871  -0.06252
  15   46169.5    216.6   0.113979429   0.81273  -0.89988  -0.00907  -0.05346
  16   44268.3    225.9   0.040396046   0.30041  -0.53937  -0.04118   0.08828
  17   44323.7    225.6   0.022018884   0.16354   0.26031  -0.09393   0.29489
  18   43789.6    228.4   0.028863096   0.21699   0.41242   0.01315  -0.21618
  19   49416.4    202.4   0.902294490   6.01108   2.44379  -0.09645   0.17228
  20   47517.8    210.4   0.188264648   1.30433   0.04028   0.36429  -1.08167
  21   51541.2    194.0   1.408334110   8.99554  -2.98921   0.11669  -0.21576
  22   45695.3    218.8   0.028440653   0.20490  -0.44949  -0.03159   0.04317
  23   48541.6    206.0   0.004372300   0.02965  -0.05483  -0.10122  -0.12806
  24   49277.7    202.9   0.037743829   0.25216   0.12715   0.25840  -0.41136
  25   50737.8    197.1   0.172819675   1.12134  -0.41576   0.40613  -0.88518
  26   52413.5    190.8   0.510223271   3.20474   0.01048  -0.37967   1.74942
  27   49574.7    201.7   0.025465179   0.16911   0.15197  -0.37127  -0.09038
  28   48982.7    204.2   0.069421467   0.46658   0.68025   0.03168  -0.05321
  29   50616.6    197.6   0.000249022   0.00162  -0.03773  -0.00860   0.01106
  30   52491.8    190.5   0.109159892   0.68462  -0.05555  -0.82379   0.05381

FINAL SINGLE POINT ENERGY     -1453.594990517585

DIPOLE MOMENT
-------------
                                X             Y             Z
Electronic contribution:    -22.25188      -4.24344       9.09757
Nuclear contribution   :     28.63218       5.99629     -12.94564
                        -----------------------------------------
Total Dipole Moment    :      6.38029       1.75285      -3.84807
                        -----------------------------------------
Magnitude (a.u.)       :      7.65429
Magnitude (Debye)      :     19.45567

Rotational constants in cm-1:     0.009186     0.002783     0.002554
Rotational constants in MHz :   275.390295    83.442991    76.554550

                             ****ORCA TERMINATED NORMALLY****
TOTAL RUN TIME: 0 days 15 hours 20 minutes 28 seconds 209 msec
