                         Program Version 5.0.2 -  RELEASE  -
|  1> %maxcore 12800
|  2> %pal
|  3>  nprocs= 8
|  4> end
|  5> ! RI-DSD-BLYP D3BJ def2-TZVP def2/J def2-TZVP/C RIJCOSX CPCM TightSCF
|  6> %TDDFT DCORR 4
|  7>    NROOTS   30
|  8>
|  9>    TDA      FALSE
| 10> END
| 11>
| 12> %CPCM
| 13>    SMD          TRUE
| 14>    SMDsolvent   "ACETONITRILE"
| 15> END
| 16>
| 17>
| 18> * xyz 0 1
| 19> C                   0.51206600   -3.37733400   -1.08785000
| 20> C                   1.22884200   -2.24509400   -0.80828200
| 21> C                   0.56165000   -1.02126100   -0.62618200
| 22> C                  -0.86012500   -0.97150600   -0.72114200
| 23> C                  -1.55487400   -2.16935100   -1.02289900
| 24> C                  -0.88833900   -3.34503000   -1.20246900
| 25> C                  -1.53090900    0.24740000   -0.52851900
| 26> C                  -0.78141900    1.40992600   -0.28087600
| 27> C                   0.63912100    1.33324000   -0.19816900
| 28> C                   1.38499600    2.49658800    0.06127700
| 29> H                   2.46163100    2.44273000    0.12000400
| 30> C                   0.74379800    3.69248600    0.24122900
| 31> C                  -0.65728900    3.78443900    0.18150400
| 32> C                  -1.39859100    2.66788800   -0.07049500
| 33> H                   1.03930600   -4.31217200   -1.22804700
| 34> H                   2.30474700   -2.28755300   -0.73063500
| 35> H                  -2.63192200   -2.12927900   -1.10706600
| 36> H                  -1.43132400   -4.25120600   -1.43393000
| 37> H                   1.33083600    4.57974000    0.44021300
| 38> H                  -1.14245800    4.73770200    0.34109200
| 39> H                  -2.47777800    2.72265700   -0.10929600
| 40> N                   1.26196200    0.12497200   -0.36242300
| 41> C                  -3.00776800    0.31074400   -0.62103700
| 42> C                  -3.82181400   -0.15021500    0.42765100
| 43> C                  -3.56027400    0.83683500   -1.79011500
| 44> C                  -5.20240200   -0.06342300    0.23014100
| 45> C                  -4.93460200    0.89491100   -1.95198700
| 46> C                  -5.76094300    0.43989300   -0.93537400
| 47> H                  -5.35402100    1.29720800   -2.86561400
| 48> H                  -2.90505900    1.19394500   -2.57652000
| 49> C                   2.70265600    0.05760100   -0.25217100
| 50> C                   3.28025100   -0.19015900    0.97867200
| 51> C                   3.48695300    0.24302400   -1.38238600
| 52> C                   4.66028500   -0.25514900    1.09451600
| 53> H                   2.65201400   -0.33305300    1.84897100
| 54> C                   4.86021200    0.18008400   -1.27363300
| 55> H                   3.01789800    0.43581500   -2.33896500
| 56> C                   5.45675800   -0.06886300   -0.03470800
| 57> H                   5.10417100   -0.44952000    2.05997400
| 58> H                   5.49135800    0.32230000   -2.14088200
| 59> O                   6.80413200   -0.11088500   -0.02720000
| 60> C                   7.44922400   -0.35785200    1.21347900
| 61> H                   8.51558400   -0.34820700    1.00662500
| 62> H                   7.21769000    0.41868800    1.94580100
| 63> H                   7.17066500   -1.33185700    1.62181200
| 64> H                  -6.83742600    0.48487900   -1.04899900
| 65> H                  -5.85834500   -0.39893200    1.02651800
| 66> F                  -4.15577500   -0.52196500    2.87376400
| 67> F                  -2.00974900   -0.14579500    2.17298200
| 68> F                  -3.02919000   -2.14709500    1.73288700
| 69> B                  -3.24534100   -0.74537200    1.81315300
| 70> *
| 71>
| 72>
| 73>                          ****END OF INPUT****

CARTESIAN COORDINATES (ANGSTROEM)
---------------------------------
  C      0.512066   -3.377334   -1.087850
  C      1.228842   -2.245094   -0.808282
  C      0.561650   -1.021261   -0.626182
  C     -0.860125   -0.971506   -0.721142
  C     -1.554874   -2.169351   -1.022899
  C     -0.888339   -3.345030   -1.202469
  C     -1.530909    0.247400   -0.528519
  C     -0.781419    1.409926   -0.280876
  C      0.639121    1.333240   -0.198169
  C      1.384996    2.496588    0.061277
  H      2.461631    2.442730    0.120004
  C      0.743798    3.692486    0.241229
  C     -0.657289    3.784439    0.181504
  C     -1.398591    2.667888   -0.070495
  H      1.039306   -4.312172   -1.228047
  H      2.304747   -2.287553   -0.730635
  H     -2.631922   -2.129279   -1.107066
  H     -1.431324   -4.251206   -1.433930
  H      1.330836    4.579740    0.440213
  H     -1.142458    4.737702    0.341092
  H     -2.477778    2.722657   -0.109296
  N      1.261962    0.124972   -0.362423
  C     -3.007768    0.310744   -0.621037
  C     -3.821814   -0.150215    0.427651
  C     -3.560274    0.836835   -1.790115
  C     -5.202402   -0.063423    0.230141
  C     -4.934602    0.894911   -1.951987
  C     -5.760943    0.439893   -0.935374
  H     -5.354021    1.297208   -2.865614
  H     -2.905059    1.193945   -2.576520
  C      2.702656    0.057601   -0.252171
  C      3.280251   -0.190159    0.978672
  C      3.486953    0.243024   -1.382386
  C      4.660285   -0.255149    1.094516
  H      2.652014   -0.333053    1.848971
  C      4.860212    0.180084   -1.273633
  H      3.017898    0.435815   -2.338965
  C      5.456758   -0.068863   -0.034708
  H      5.104171   -0.449520    2.059974
  H      5.491358    0.322300   -2.140882
  O      6.804132   -0.110885   -0.027200
  C      7.449224   -0.357852    1.213479
  H      8.515584   -0.348207    1.006625
  H      7.217690    0.418688    1.945801
  H      7.170665   -1.331857    1.621812
  H     -6.837426    0.484879   -1.048999
  H     -5.858345   -0.398932    1.026518
  F     -4.155775   -0.521965    2.873764
  F     -2.009749   -0.145795    2.172982
  F     -3.029190   -2.147095    1.732887
  B     -3.245341   -0.745372    1.813153

 Total Charge           Charge          ....    0
 Multiplicity           Mult            ....    1
 Number of Electrons    NEL             ....  222
 Basis Dimension        Dim             .... 1106

ORBITAL ENERGIES
----------------

  NO   OCC          E(Eh)            E(eV)
   0   2.0000     -25.615290      -697.0275
   1   2.0000     -25.614325      -697.0012
   2   2.0000     -25.612821      -696.9603
   3   2.0000     -20.042217      -545.3764
   4   2.0000     -15.181822      -413.1184
   5   2.0000     -10.916682      -297.0580
   6   2.0000     -10.916585      -297.0554
   7   2.0000     -10.902411      -296.6697
   8   2.0000     -10.900790      -296.6256
   9   2.0000     -10.873958      -295.8954
  10   2.0000     -10.866689      -295.6976
  11   2.0000     -10.863659      -295.6152
  12   2.0000     -10.863423      -295.6088
  13   2.0000     -10.853683      -295.3437
  14   2.0000     -10.853649      -295.3428
  15   2.0000     -10.848794      -295.2107
  16   2.0000     -10.848363      -295.1990
  17   2.0000     -10.843788      -295.0745
  18   2.0000     -10.843140      -295.0568
  19   2.0000     -10.841930      -295.0239
  20   2.0000     -10.841058      -295.0002
  21   2.0000     -10.840186      -294.9765
  22   2.0000     -10.836797      -294.8843
  23   2.0000     -10.835448      -294.8475
  24   2.0000     -10.832146      -294.7577
  25   2.0000     -10.831113      -294.7296
  26   2.0000     -10.829723      -294.6917
  27   2.0000     -10.825021      -294.5638
  28   2.0000     -10.823944      -294.5345
  29   2.0000     -10.820023      -294.4278
  30   2.0000     -10.804829      -294.0143
  31   2.0000      -7.325800      -199.3452
  32   2.0000      -1.415230       -38.5104
  33   2.0000      -1.370511       -37.2935
  34   2.0000      -1.368133       -37.2288
  35   2.0000      -1.288007       -35.0485
  36   2.0000      -1.226568       -33.3766
  37   2.0000      -1.084244       -29.5038
  38   2.0000      -1.069523       -29.1032
  39   2.0000      -1.050609       -28.5885
  40   2.0000      -1.038100       -28.2481
  41   2.0000      -1.005377       -27.3577
  42   2.0000      -0.956467       -26.0268
  43   2.0000      -0.942227       -25.6393
  44   2.0000      -0.938352       -25.5339
  45   2.0000      -0.932981       -25.3877
  46   2.0000      -0.919794       -25.0289
  47   2.0000      -0.910526       -24.7767
  48   2.0000      -0.903944       -24.5976
  49   2.0000      -0.854780       -23.2597
  50   2.0000      -0.831661       -22.6306
  51   2.0000      -0.805588       -21.9212
  52   2.0000      -0.792400       -21.5623
  53   2.0000      -0.767899       -20.8956
  54   2.0000      -0.752748       -20.4833
  55   2.0000      -0.744424       -20.2568
  56   2.0000      -0.741290       -20.1715
  57   2.0000      -0.715008       -19.4564
  58   2.0000      -0.695811       -18.9340
  59   2.0000      -0.694342       -18.8940
  60   2.0000      -0.676396       -18.4057
  61   2.0000      -0.671672       -18.2771
  62   2.0000      -0.648051       -17.6344
  63   2.0000      -0.635769       -17.3001
  64   2.0000      -0.623424       -16.9642
  65   2.0000      -0.613774       -16.7016
  66   2.0000      -0.608209       -16.5502
  67   2.0000      -0.605519       -16.4770
  68   2.0000      -0.598482       -16.2855
  69   2.0000      -0.595302       -16.1990
  70   2.0000      -0.589598       -16.0438
  71   2.0000      -0.585296       -15.9267
  72   2.0000      -0.573801       -15.6139
  73   2.0000      -0.567382       -15.4392
  74   2.0000      -0.562710       -15.3121
  75   2.0000      -0.560776       -15.2595
  76   2.0000      -0.553425       -15.0595
  77   2.0000      -0.552654       -15.0385
  78   2.0000      -0.547314       -14.8932
  79   2.0000      -0.545186       -14.8353
  80   2.0000      -0.539812       -14.6890
  81   2.0000      -0.529591       -14.4109
  82   2.0000      -0.527312       -14.3489
  83   2.0000      -0.518808       -14.1175
  84   2.0000      -0.515099       -14.0166
  85   2.0000      -0.505989       -13.7687
  86   2.0000      -0.497745       -13.5443
  87   2.0000      -0.494947       -13.4682
  88   2.0000      -0.494012       -13.4428
  89   2.0000      -0.481297       -13.0968
  90   2.0000      -0.480840       -13.0843
  91   2.0000      -0.480526       -13.0758
  92   2.0000      -0.474234       -12.9046
  93   2.0000      -0.469505       -12.7759
  94   2.0000      -0.466179       -12.6854
  95   2.0000      -0.460850       -12.5404
  96   2.0000      -0.454704       -12.3731
  97   2.0000      -0.447159       -12.1678
  98   2.0000      -0.437907       -11.9161
  99   2.0000      -0.427684       -11.6379
 100   2.0000      -0.425561       -11.5801
 101   2.0000      -0.421840       -11.4788
 102   2.0000      -0.393785       -10.7154
 103   2.0000      -0.379550       -10.3281
 104   2.0000      -0.341401        -9.2900
 105   2.0000      -0.323097        -8.7919
 106   2.0000      -0.317002        -8.6261
 107   2.0000      -0.308981        -8.4078
 108   2.0000      -0.304003        -8.2723
 109   2.0000      -0.294684        -8.0188
 110   2.0000      -0.284148        -7.7321
 111   0.0000      -0.042827        -1.1654
 112   0.0000       0.030729         0.8362
 113   0.0000       0.049194         1.3386
 114   0.0000       0.062552         1.7021
 115   0.0000       0.067506         1.8369

MULLIKEN ATOMIC CHARGES
-----------------------
   0 C :   -0.095363
   1 C :   -0.250504
   2 C :    0.162945
   3 C :    0.127883
   4 C :   -0.248260
   5 C :   -0.159811
   6 C :    0.434950
   7 C :    0.056426
   8 C :    0.218275
   9 C :   -0.270405
  10 H :    0.185411
  11 C :   -0.078156
  12 C :   -0.184978
  13 C :   -0.225074
  14 H :    0.177343
  15 H :    0.185534
  16 H :    0.181621
  17 H :    0.170977
  18 H :    0.178236
  19 H :    0.171180
  20 H :    0.190409
  21 N :    0.133168
  22 C :   -0.089904
  23 C :   -0.182946
  24 C :   -0.329828
  25 C :   -0.203977
  26 C :   -0.139522
  27 C :   -0.186472
  28 H :    0.160645
  29 H :    0.158236
  30 C :    0.080911
  31 C :   -0.251576
  32 C :   -0.220940
  33 C :   -0.241440
  34 H :    0.173280
  35 C :   -0.208829
  36 H :    0.169242
  37 C :    0.392188
  38 H :    0.174822
  39 H :    0.155867
  40 O :   -0.347994
  41 C :   -0.187049
  42 H :    0.153239
  43 H :    0.138485
  44 H :    0.138007
  45 H :    0.158476
  46 H :    0.153137
  47 F :   -0.476282
  48 F :   -0.473737
  49 F :   -0.472645
  50 B :    0.744797
Sum of atomic charges:    0.0000000

LOEWDIN ATOMIC CHARGES
----------------------
   0 C :   -0.079301
   1 C :   -0.103897
   2 C :   -0.054767
   3 C :   -0.055179
   4 C :   -0.049695
   5 C :   -0.132182
   6 C :    0.079478
   7 C :   -0.057254
   8 C :   -0.055877
   9 C :   -0.102136
  10 H :    0.168305
  11 C :   -0.080355
  12 C :   -0.130310
  13 C :   -0.056454
  14 H :    0.162129
  15 H :    0.168137
  16 H :    0.170648
  17 H :    0.156916
  18 H :    0.162129
  19 H :    0.157109
  20 H :    0.169306
  21 N :    0.351623
  22 C :   -0.075150
  23 C :   -0.025382
  24 C :   -0.098110
  25 C :   -0.106144
  26 C :   -0.146818
  27 C :   -0.141757
  28 H :    0.150617
  29 H :    0.158387
  30 C :   -0.172031
  31 C :   -0.084391
  32 C :   -0.087885
  33 C :   -0.126310
  34 H :    0.165398
  35 C :   -0.110596
  36 H :    0.164767
  37 C :   -0.233493
  38 H :    0.161032
  39 H :    0.157223
  40 O :    0.203403
  41 C :   -0.291350
  42 H :    0.115132
  43 H :    0.111630
  44 H :    0.111555
  45 H :    0.149790
  46 H :    0.154493
  47 F :    0.111213
  48 F :    0.115824
  49 F :    0.103991
  50 B :   -1.223411

  Mayer bond orders larger than 0.100000
B(  0-C ,  1-C ) :   1.5281 B(  0-C ,  5-C ) :   1.2201 B(  0-C , 14-H ) :   0.9732
B(  1-C ,  2-C ) :   1.2618 B(  1-C , 15-H ) :   0.9733 B(  2-C ,  3-C ) :   1.2647
B(  2-C , 21-N ) :   1.2275 B(  3-C ,  4-C ) :   1.1683 B(  3-C ,  6-C ) :   1.1554
B(  4-C ,  5-C ) :   1.5872 B(  4-C , 16-H ) :   0.9670 B(  5-C , 17-H ) :   0.9860
B(  6-C ,  7-C ) :   1.1744 B(  6-C , 22-C ) :   0.5795 B(  7-C ,  8-C ) :   1.2527
B(  7-C , 13-C ) :   1.1712 B(  8-C ,  9-C ) :   1.2503 B(  8-C , 21-N ) :   1.2271
B(  9-C , 10-H ) :   0.9731 B(  9-C , 11-C ) :   1.5334 B( 11-C , 12-C ) :   1.2210
B( 11-C , 18-H ) :   0.9715 B( 12-C , 13-C ) :   1.5977 B( 12-C , 19-H ) :   0.9851
B( 13-C , 20-H ) :   0.9651 B( 21-N , 30-C ) :   0.6962 B( 22-C , 23-C ) :   1.3416
B( 22-C , 24-C ) :   1.3960 B( 23-C , 25-C ) :   1.4373 B( 23-C , 50-B ) :   0.9255
B( 24-C , 26-C ) :   1.4507 B( 24-C , 29-H ) :   0.9967 B( 25-C , 27-C ) :   1.3840
B( 25-C , 46-H ) :   0.9827 B( 26-C , 27-C ) :   1.3854 B( 26-C , 28-H ) :   0.9871
B( 27-C , 45-H ) :   0.9838 B( 30-C , 31-C ) :   1.5169 B( 30-C , 32-C ) :   1.4595
B( 31-C , 33-C ) :   1.3785 B( 31-C , 34-H ) :   0.9750 B( 32-C , 35-C ) :   1.4598
B( 32-C , 36-H ) :   0.9914 B( 33-C , 37-C ) :   1.3212 B( 33-C , 38-H ) :   0.9748
B( 35-C , 37-C ) :   1.3256 B( 35-C , 39-H ) :   0.9961 B( 37-C , 40-O ) :   1.1121
B( 40-O , 41-C ) :   0.8785 B( 41-C , 42-H ) :   0.9752 B( 41-C , 43-H ) :   0.9740
B( 41-C , 44-H ) :   0.9741 B( 47-F , 50-B ) :   0.8610 B( 48-F , 50-B ) :   0.8302
B( 49-F , 50-B ) :   0.8604

MP2 TOTAL ENERGY:    -1455.541345682 Eh

-----------------------------------------------------------------------------
         ABSORPTION SPECTRUM VIA TRANSITION ELECTRIC DIPOLE MOMENTS
-----------------------------------------------------------------------------
State   Energy    Wavelength  fosc         T2        TX        TY        TZ
        (cm-1)      (nm)                 (au**2)    (au)      (au)      (au)
-----------------------------------------------------------------------------
   1   18531.5    539.6   0.171701639   3.05028   1.74239  -0.04317   0.11181
   2   25228.0    396.4   0.286064197   3.73298   0.03065   1.89931   0.35310
   3   20202.2    495.0   0.012625075   0.20574   0.45334   0.01321  -0.00648
   4   22553.0    443.4   0.020546142   0.29992  -0.08125   0.54003   0.04096
   5   13688.2    730.6   0.000606852   0.01460  -0.00419  -0.12053   0.00702
   6   21865.9    457.3   0.032117467   0.48356   0.11487   0.62316   0.28641
   7   32139.4    311.1   0.028480458   0.29173  -0.01288   0.13342  -0.52323
   8   30224.6    330.9   0.748204104   8.14956   0.05836   2.79828   0.56196
   9   33891.3    295.1   0.007821720   0.07598   0.22746   0.13251  -0.08175
  10   25571.1    391.1   0.222474332   2.86422   0.09385   1.66802   0.27039
  11   46219.6    216.4   0.173019764   1.23238   1.09049  -0.04687   0.20253
  12   48151.0    207.7   0.006510276   0.04451   0.11325   0.07307  -0.16232
  13   41766.9    239.4   0.105761018   0.83362   0.91064  -0.05878   0.03013
  14   36118.7    276.9   0.014674125   0.13375   0.02784  -0.35510   0.08292
  15   39164.8    255.3   0.077705244   0.65318   0.80640   0.02079   0.04957
  16   36111.0    276.9   0.056051781   0.51101  -0.71291  -0.02840   0.04428
  17   31522.7    317.2   0.017271503   0.18038   0.06727  -0.14020   0.39522
  18   43516.2    229.8   0.812705853   6.14834  -2.47197   0.09316  -0.17031
  19   30746.2    325.2   0.088979693   0.95274  -0.93516  -0.00552   0.27962
  20   40389.5    247.6   0.251734439   2.05187   0.13287  -0.51852   1.32866
  21   45619.5    219.2   1.193386827   8.61204  -2.91978   0.11213  -0.27270
  22   35258.5    283.6   0.014867925   0.13882   0.37238   0.01228   0.00146
  23   37970.1    263.4   0.007840553   0.06798  -0.08135  -0.07818  -0.23505
  24   37904.7    263.8   0.030671770   0.26639  -0.02083  -0.00760  -0.51566
  25   41733.9    239.6   0.137929640   1.08804  -0.22448  -0.18145   1.00236
  26   40642.0    246.1   0.303524340   2.45864   0.21053  -0.42232   1.49531
  27   38651.9    258.7   0.039325756   0.33495   0.14762  -0.55254   0.08864
  28   39308.9    254.4   0.007623441   0.06385   0.23761  -0.08578  -0.00567
  29   37407.1    267.3   0.026696670   0.23495   0.43149  -0.22053   0.01167
  30   41302.6    242.1   0.079337337   0.63238   0.26414   0.74758  -0.06108

Dispersion correction           -0.051104900
FINAL SINGLE POINT ENERGY     -1452.890790416695

DIPOLE MOMENT
-------------
                                X             Y             Z
Electronic contribution:    -22.27531      -4.24200       9.09639
Nuclear contribution   :     28.63218       5.99629     -12.94564
                        -----------------------------------------
Total Dipole Moment    :      6.35687       1.75429      -3.84925
                        -----------------------------------------
Magnitude (a.u.)       :      7.63570
Magnitude (Debye)      :     19.40842

Rotational constants in cm-1:     0.009186     0.002783     0.002554
Rotational constants in MHz :   275.390295    83.442991    76.554550

                             ****ORCA TERMINATED NORMALLY****
TOTAL RUN TIME: 0 days 2 hours 4 minutes 30 seconds 570 msec
