                         Program Version 5.0.2 -  RELEASE  -
|  1> %maxcore 38400
|  2> %pal
|  3>  nprocs= 4
|  4> end
|  5> !STEOM-DLPNO-CCSD DEF2-TZVP DEF2-TZVP/C def2/J TightSCF TightPNO CPCM
|  6> %MDCI
|  7>    Dorootwise true
|  8>    OTHRESH 0.005
|  9>    VTHRESH 0.005
| 10>    TCutPNOSingles 1e-11
| 11>    DTol 1e-5
| 12>    NROOTS  25
| 13>    DOSOLV  TRUE
| 14>    MAXITER 500
| 15> END
| 16> %CPCM
| 17>    SMD          TRUE
| 18>    SMDsolvent   "ACETONITRILE"
| 19> END
| 20>
| 21>
| 22> * xyz 0 1
| 23> C                   0.51206600   -3.37733400   -1.08785000
| 24> C                   1.22884200   -2.24509400   -0.80828200
| 25> C                   0.56165000   -1.02126100   -0.62618200
| 26> C                  -0.86012500   -0.97150600   -0.72114200
| 27> C                  -1.55487400   -2.16935100   -1.02289900
| 28> C                  -0.88833900   -3.34503000   -1.20246900
| 29> C                  -1.53090900    0.24740000   -0.52851900
| 30> C                  -0.78141900    1.40992600   -0.28087600
| 31> C                   0.63912100    1.33324000   -0.19816900
| 32> C                   1.38499600    2.49658800    0.06127700
| 33> H                   2.46163100    2.44273000    0.12000400
| 34> C                   0.74379800    3.69248600    0.24122900
| 35> C                  -0.65728900    3.78443900    0.18150400
| 36> C                  -1.39859100    2.66788800   -0.07049500
| 37> H                   1.03930600   -4.31217200   -1.22804700
| 38> H                   2.30474700   -2.28755300   -0.73063500
| 39> H                  -2.63192200   -2.12927900   -1.10706600
| 40> H                  -1.43132400   -4.25120600   -1.43393000
| 41> H                   1.33083600    4.57974000    0.44021300
| 42> H                  -1.14245800    4.73770200    0.34109200
| 43> H                  -2.47777800    2.72265700   -0.10929600
| 44> N                   1.26196200    0.12497200   -0.36242300
| 45> C                  -3.00776800    0.31074400   -0.62103700
| 46> C                  -3.82181400   -0.15021500    0.42765100
| 47> C                  -3.56027400    0.83683500   -1.79011500
| 48> C                  -5.20240200   -0.06342300    0.23014100
| 49> C                  -4.93460200    0.89491100   -1.95198700
| 50> C                  -5.76094300    0.43989300   -0.93537400
| 51> H                  -5.35402100    1.29720800   -2.86561400
| 52> H                  -2.90505900    1.19394500   -2.57652000
| 53> C                   2.70265600    0.05760100   -0.25217100
| 54> C                   3.28025100   -0.19015900    0.97867200
| 55> C                   3.48695300    0.24302400   -1.38238600
| 56> C                   4.66028500   -0.25514900    1.09451600
| 57> H                   2.65201400   -0.33305300    1.84897100
| 58> C                   4.86021200    0.18008400   -1.27363300
| 59> H                   3.01789800    0.43581500   -2.33896500
| 60> C                   5.45675800   -0.06886300   -0.03470800
| 61> H                   5.10417100   -0.44952000    2.05997400
| 62> H                   5.49135800    0.32230000   -2.14088200
| 63> O                   6.80413200   -0.11088500   -0.02720000
| 64> C                   7.44922400   -0.35785200    1.21347900
| 65> H                   8.51558400   -0.34820700    1.00662500
| 66> H                   7.21769000    0.41868800    1.94580100
| 67> H                   7.17066500   -1.33185700    1.62181200
| 68> H                  -6.83742600    0.48487900   -1.04899900
| 69> H                  -5.85834500   -0.39893200    1.02651800
| 70> F                  -4.15577500   -0.52196500    2.87376400
| 71> F                  -2.00974900   -0.14579500    2.17298200
| 72> F                  -3.02919000   -2.14709500    1.73288700
| 73> B                  -3.24534100   -0.74537200    1.81315300
| 74> *
| 75>
| 76>
| 77>                          ****END OF INPUT****

CARTESIAN COORDINATES (ANGSTROEM)
---------------------------------
  C      0.512066   -3.377334   -1.087850
  C      1.228842   -2.245094   -0.808282
  C      0.561650   -1.021261   -0.626182
  C     -0.860125   -0.971506   -0.721142
  C     -1.554874   -2.169351   -1.022899
  C     -0.888339   -3.345030   -1.202469
  C     -1.530909    0.247400   -0.528519
  C     -0.781419    1.409926   -0.280876
  C      0.639121    1.333240   -0.198169
  C      1.384996    2.496588    0.061277
  H      2.461631    2.442730    0.120004
  C      0.743798    3.692486    0.241229
  C     -0.657289    3.784439    0.181504
  C     -1.398591    2.667888   -0.070495
  H      1.039306   -4.312172   -1.228047
  H      2.304747   -2.287553   -0.730635
  H     -2.631922   -2.129279   -1.107066
  H     -1.431324   -4.251206   -1.433930
  H      1.330836    4.579740    0.440213
  H     -1.142458    4.737702    0.341092
  H     -2.477778    2.722657   -0.109296
  N      1.261962    0.124972   -0.362423
  C     -3.007768    0.310744   -0.621037
  C     -3.821814   -0.150215    0.427651
  C     -3.560274    0.836835   -1.790115
  C     -5.202402   -0.063423    0.230141
  C     -4.934602    0.894911   -1.951987
  C     -5.760943    0.439893   -0.935374
  H     -5.354021    1.297208   -2.865614
  H     -2.905059    1.193945   -2.576520
  C      2.702656    0.057601   -0.252171
  C      3.280251   -0.190159    0.978672
  C      3.486953    0.243024   -1.382386
  C      4.660285   -0.255149    1.094516
  H      2.652014   -0.333053    1.848971
  C      4.860212    0.180084   -1.273633
  H      3.017898    0.435815   -2.338965
  C      5.456758   -0.068863   -0.034708
  H      5.104171   -0.449520    2.059974
  H      5.491358    0.322300   -2.140882
  O      6.804132   -0.110885   -0.027200
  C      7.449224   -0.357852    1.213479
  H      8.515584   -0.348207    1.006625
  H      7.217690    0.418688    1.945801
  H      7.170665   -1.331857    1.621812
  H     -6.837426    0.484879   -1.048999
  H     -5.858345   -0.398932    1.026518
  F     -4.155775   -0.521965    2.873764
  F     -2.009749   -0.145795    2.172982
  F     -3.029190   -2.147095    1.732887
  B     -3.245341   -0.745372    1.813153

 Total Charge           Charge          ....    0
 Multiplicity           Mult            ....    1
 Number of Electrons    NEL             ....  222
 Basis Dimension        Dim             .... 1106

ORBITAL ENERGIES
----------------

  NO   OCC          E(Eh)            E(eV)
   0   2.0000     -26.231682      -713.8004
   1   2.0000     -26.230598      -713.7709
   2   2.0000     -26.228981      -713.7269
   3   2.0000     -20.586706      -560.1928
   4   2.0000     -15.654406      -425.9781
   5   2.0000     -11.324739      -308.1618
   6   2.0000     -11.324475      -308.1546
   7   2.0000     -11.311781      -307.8092
   8   2.0000     -11.308036      -307.7073
   9   2.0000     -11.275222      -306.8144
  10   2.0000     -11.270237      -306.6787
  11   2.0000     -11.263377      -306.4921
  12   2.0000     -11.263191      -306.4870
  13   2.0000     -11.260092      -306.4027
  14   2.0000     -11.259949      -306.3988
  15   2.0000     -11.254415      -306.2482
  16   2.0000     -11.254146      -306.2409
  17   2.0000     -11.247829      -306.0690
  18   2.0000     -11.247084      -306.0487
  19   2.0000     -11.245666      -306.0101
  20   2.0000     -11.241127      -305.8866
  21   2.0000     -11.240140      -305.8598
  22   2.0000     -11.237181      -305.7792
  23   2.0000     -11.235667      -305.7380
  24   2.0000     -11.234135      -305.6964
  25   2.0000     -11.233509      -305.6793
  26   2.0000     -11.232473      -305.6511
  27   2.0000     -11.228946      -305.5551
  28   2.0000     -11.227664      -305.5203
  29   2.0000     -11.223481      -305.4064
  30   2.0000     -11.207891      -304.9822
  31   2.0000      -7.652465      -208.2342
  32   2.0000      -1.568111       -42.6705
  33   2.0000      -1.522219       -41.4217
  34   2.0000      -1.519660       -41.3521
  35   2.0000      -1.417867       -38.5821
  36   2.0000      -1.346849       -36.6496
  37   2.0000      -1.197382       -32.5824
  38   2.0000      -1.180635       -32.1267
  39   2.0000      -1.161506       -31.6062
  40   2.0000      -1.148058       -31.2403
  41   2.0000      -1.112235       -30.2654
  42   2.0000      -1.057271       -28.7698
  43   2.0000      -1.041733       -28.3470
  44   2.0000      -1.039133       -28.2762
  45   2.0000      -1.033735       -28.1294
  46   2.0000      -1.020568       -27.7711
  47   2.0000      -1.011968       -27.5371
  48   2.0000      -1.001192       -27.2438
  49   2.0000      -0.945211       -25.7205
  50   2.0000      -0.921173       -25.0664
  51   2.0000      -0.889947       -24.2167
  52   2.0000      -0.876518       -23.8513
  53   2.0000      -0.850611       -23.1463
  54   2.0000      -0.834520       -22.7084
  55   2.0000      -0.828371       -22.5411
  56   2.0000      -0.822971       -22.3942
  57   2.0000      -0.793133       -21.5822
  58   2.0000      -0.771559       -20.9952
  59   2.0000      -0.766246       -20.8506
  60   2.0000      -0.760793       -20.7022
  61   2.0000      -0.740009       -20.1367
  62   2.0000      -0.717138       -19.5143
  63   2.0000      -0.706853       -19.2344
  64   2.0000      -0.690470       -18.7887
  65   2.0000      -0.689465       -18.7613
  66   2.0000      -0.687955       -18.7202
  67   2.0000      -0.681327       -18.5398
  68   2.0000      -0.671682       -18.2774
  69   2.0000      -0.661377       -17.9970
  70   2.0000      -0.654616       -17.8130
  71   2.0000      -0.653402       -17.7800
  72   2.0000      -0.643606       -17.5134
  73   2.0000      -0.633700       -17.2439
  74   2.0000      -0.626598       -17.0506
  75   2.0000      -0.624076       -16.9820
  76   2.0000      -0.618307       -16.8250
  77   2.0000      -0.615757       -16.7556
  78   2.0000      -0.613083       -16.6828
  79   2.0000      -0.609705       -16.5909
  80   2.0000      -0.607513       -16.5313
  81   2.0000      -0.604576       -16.4513
  82   2.0000      -0.600336       -16.3360
  83   2.0000      -0.581968       -15.8362
  84   2.0000      -0.578077       -15.7303
  85   2.0000      -0.576507       -15.6876
  86   2.0000      -0.570892       -15.5348
  87   2.0000      -0.563767       -15.3409
  88   2.0000      -0.563053       -15.3214
  89   2.0000      -0.552555       -15.0358
  90   2.0000      -0.543057       -14.7773
  91   2.0000      -0.533677       -14.5221
  92   2.0000      -0.526057       -14.3148
  93   2.0000      -0.521439       -14.1891
  94   2.0000      -0.520783       -14.1712
  95   2.0000      -0.516535       -14.0556
  96   2.0000      -0.510223       -13.8839
  97   2.0000      -0.497077       -13.5261
  98   2.0000      -0.491205       -13.3664
  99   2.0000      -0.481262       -13.0958
 100   2.0000      -0.475103       -12.9282
 101   2.0000      -0.474764       -12.9190
 102   2.0000      -0.446334       -12.1454
 103   2.0000      -0.418574       -11.3900
 104   2.0000      -0.370959       -10.0943
 105   2.0000      -0.351422        -9.5627
 106   2.0000      -0.341335        -9.2882
 107   2.0000      -0.337626        -9.1873
 108   2.0000      -0.331499        -9.0206
 109   2.0000      -0.325386        -8.8542
 110   2.0000      -0.309435        -8.4201
 111   0.0000       0.008331         0.2267
 112   0.0000       0.083859         2.2819
 113   0.0000       0.103819         2.8251
 114   0.0000       0.116814         3.1787
 115   0.0000       0.123917         3.3720

E(0)                                       ...  -1448.704796787
E(0)                                       ...  -1448.704796787
E(CORR)(strong-pairs)                      ...     -5.340205640
E(CORR)(weak-pairs)                        ...     -0.012583853
E(CORR)(corrected)                         ...     -5.352789493
E(TOT)                                     ...  -1454.057586280

MULLIKEN ATOMIC CHARGES
-----------------------
   0 C :   -0.106698
   1 C :   -0.245741
   2 C :    0.122739
   3 C :    0.152901
   4 C :   -0.276029
   5 C :   -0.145070
   6 C :    0.407460
   7 C :    0.080775
   8 C :    0.181056
   9 C :   -0.266860
  10 H :    0.188928
  11 C :   -0.088455
  12 C :   -0.165474
  13 C :   -0.256447
  14 H :    0.185065
  15 H :    0.188923
  16 H :    0.185179
  17 H :    0.178830
  18 H :    0.185965
  19 H :    0.179377
  20 H :    0.195032
  21 N :    0.200447
  22 C :   -0.097982
  23 C :   -0.173286
  24 C :   -0.347731
  25 C :   -0.205349
  26 C :   -0.135921
  27 C :   -0.195634
  28 H :    0.169845
  29 H :    0.162383
  30 C :    0.055286
  31 C :   -0.269887
  32 C :   -0.242369
  33 C :   -0.210801
  34 H :    0.179339
  35 C :   -0.201005
  36 H :    0.176767
  37 C :    0.326939
  38 H :    0.184156
  39 H :    0.162461
  40 O :   -0.273547
  41 C :   -0.272104
  42 H :    0.171775
  43 H :    0.157103
  44 H :    0.156905
  45 H :    0.167577
  46 H :    0.158714
  47 F :   -0.430371
  48 F :   -0.429524
  49 F :   -0.427875
  50 B :    0.602236
Sum of atomic charges:   -0.0000003

LOEWDIN ATOMIC CHARGES
----------------------
   0 C :   -0.094062
   1 C :   -0.098908
   2 C :   -0.068972
   3 C :   -0.047941
   4 C :   -0.062403
   5 C :   -0.127001
   6 C :    0.052913
   7 C :   -0.050246
   8 C :   -0.069899
   9 C :   -0.097696
  10 H :    0.173343
  11 C :   -0.094730
  12 C :   -0.125394
  13 C :   -0.067354
  14 H :    0.167261
  15 H :    0.173207
  16 H :    0.175504
  17 H :    0.162914
  18 H :    0.167285
  19 H :    0.163097
  20 H :    0.174443
  21 N :    0.380284
  22 C :   -0.080166
  23 C :   -0.035008
  24 C :   -0.105081
  25 C :   -0.111755
  26 C :   -0.150605
  27 C :   -0.148452
  28 H :    0.156226
  29 H :    0.163387
  30 C :   -0.171679
  31 C :   -0.095937
  32 C :   -0.099634
  33 C :   -0.127169
  34 H :    0.170918
  35 C :   -0.111527
  36 H :    0.170426
  37 C :   -0.252525
  38 H :    0.166935
  39 H :    0.163147
  40 O :    0.237067
  41 C :   -0.319578
  42 H :    0.121603
  43 H :    0.117628
  44 H :    0.117574
  45 H :    0.155320
  46 H :    0.159550
  47 F :    0.137998
  48 F :    0.143638
  49 F :    0.131259
  50 B :   -1.289206

  Mayer bond orders larger than 0.100000
B(  0-C ,  1-C ) :   1.4174 B(  0-C ,  5-C ) :   1.1099 B(  0-C , 14-H ) :   0.9224
B(  1-C ,  2-C ) :   1.1572 B(  1-C , 15-H ) :   0.9246 B(  2-C ,  3-C ) :   1.1874
B(  2-C , 21-N ) :   1.1814 B(  3-C ,  4-C ) :   1.1025 B(  3-C ,  6-C ) :   1.1231
B(  4-C ,  5-C ) :   1.4449 B(  4-C , 16-H ) :   0.9206 B(  5-C , 17-H ) :   0.9365
B(  6-C ,  7-C ) :   1.1358 B(  6-C , 22-C ) :   0.5558 B(  6-C , 23-C ) :  -0.1040
B(  7-C ,  8-C ) :   1.1797 B(  7-C , 13-C ) :   1.1001 B(  8-C ,  9-C ) :   1.1466
B(  8-C , 21-N ) :   1.1801 B(  9-C , 10-H ) :   0.9243 B(  9-C , 11-C ) :   1.4197
B( 11-C , 12-C ) :   1.1128 B( 11-C , 18-H ) :   0.9212 B( 12-C , 13-C ) :   1.4556
B( 12-C , 19-H ) :   0.9343 B( 13-C , 20-H ) :   0.9201 B( 21-N , 30-C ) :   0.6593
B( 22-C , 23-C ) :   1.2566 B( 22-C , 24-C ) :   1.3096 B( 23-C , 25-C ) :   1.3296
B( 23-C , 50-B ) :   0.8892 B( 24-C , 26-C ) :   1.3303 B( 24-C , 29-H ) :   0.9482
B( 25-C , 27-C ) :   1.2663 B( 25-C , 46-H ) :   0.9326 B( 26-C , 27-C ) :   1.2705
B( 26-C , 28-H ) :   0.9355 B( 27-C , 45-H ) :   0.9340 B( 30-C , 31-C ) :   1.4211
B( 30-C , 32-C ) :   1.3499 B( 31-C , 33-C ) :   1.2681 B( 31-C , 34-H ) :   0.9272
B( 32-C , 35-C ) :   1.3467 B( 32-C , 36-H ) :   0.9434 B( 33-C , 37-C ) :   1.2133
B( 33-C , 38-H ) :   0.9204 B( 35-C , 37-C ) :   1.2218 B( 35-C , 39-H ) :   0.9449
B( 37-C , 40-O ) :   1.0996 B( 40-O , 41-C ) :   0.8377 B( 41-C , 42-H ) :   0.9212
B( 41-C , 43-H ) :   0.9177 B( 41-C , 44-H ) :   0.9178 B( 47-F , 50-B ) :   0.8772
B( 48-F , 50-B ) :   0.8372 B( 49-F , 50-B ) :   0.8733

-----------------------------------------------------------------------------
         ABSORPTION SPECTRUM VIA TRANSITION ELECTRIC DIPOLE MOMENTS
-----------------------------------------------------------------------------
State   Energy  Wavelength   fosc         T2         TX        TY        TZ
        (cm-1)    (nm)                  (au**2)     (au)      (au)      (au)
-----------------------------------------------------------------------------
   1   24033.7    416.1   0.178033104   2.43869   1.55857   0.03719   0.09020
   2   27876.5    358.7   0.123653049   1.46030   0.02746   1.18738   0.22280
   3   26659.3    375.1   0.009550049   0.11793   0.34314   0.01206   0.00485
   4   25698.8    389.1   0.000571336   0.00732   0.02034   0.08057   0.01662
   5   30582.3    327.0   0.030255838   0.32570   0.08263   0.56360   0.03330
   6   33348.7    299.9   0.059851071   0.59084   0.06290   0.73331   0.22152
   7   36750.7    272.1   0.012884838   0.11542   0.02025   0.06451   0.33241
   8   38626.0    258.9   0.003159027   0.02692   0.07127   0.12267   0.07714
   9   37128.0    269.3   0.294770226   2.61371   0.06685   1.58490   0.31191
  10   41479.4    241.1   0.866477942   6.87703   0.09758   2.57168   0.50384
  11   42939.5    232.9   0.000911420   0.00699   0.03365   0.06462   0.01221
  12   43270.3    231.1   0.016343648   0.12435   0.31853   0.05123   0.05042
  13   45730.7    218.7   0.223075414   1.60590   1.26506   0.00501   0.07355
  14   46347.5    215.8   0.168505930   1.19692   0.04908   1.08505   0.12910
  15   47077.9    212.4   0.219634671   1.53589   1.19368   0.11083   0.31311
  16   42727.8    234.0   0.003361398   0.02590   0.12582   0.00937   0.09761
  17   49143.9    203.5   0.014040105   0.09405   0.29692   0.04561   0.05491
  18   45994.6    217.4   0.018927646   0.13548   0.17124   0.01180   0.27683
  19   49164.2    203.4   0.031555852   0.21130   0.45361   0.00556   0.07386
  20   51286.6    195.0   0.654529296   4.20146   2.04758   0.08180   0.03786
  21   48740.5    205.2   0.034303204   0.23170   0.02270   0.45643   0.14322
  22   54106.5    184.8   0.923783910   5.62077   2.18199   0.10223   0.34051
  23   54289.0    184.2   0.555939475   3.37125   1.22561   0.21457   0.72429
  24   58093.9    172.1   0.008600493   0.04874   0.01009   0.21293   0.05702
  25   58818.8    170.0   0.017358861   0.09716   0.02487   0.00112   0.30957

FINAL SINGLE POINT ENERGY     -1453.948080768420

DIPOLE MOMENT
-------------
                                X             Y             Z
Electronic contribution:    -22.02431      -4.26241       9.13334
Nuclear contribution   :     28.63218       5.99629     -12.94564
                        -----------------------------------------
Total Dipole Moment    :      6.60787       1.73389      -3.81230
                        -----------------------------------------
Magnitude (a.u.)       :      7.82329
Magnitude (Debye)      :     19.88523

Rotational constants in cm-1:     0.009186     0.002783     0.002554
Rotational constants in MHz :   275.390295    83.442991    76.554550

                             ****ORCA TERMINATED NORMALLY****
TOTAL RUN TIME: 2 days 2 hours 47 minutes 57 seconds 98 msec
