                         Program Version 5.0.2 -  RELEASE  -
|  1> %maxcore 20000
|  2> %pal
|  3>  nprocs= 4
|  4> end
|  5> ! RI-wPBEPP86   def2-TZVP def2/J def2-TZVP/C RIJCOSX CPCM TightSCF
|  6> %TDDFT
|  7>    NROOTS   30
|  8>    dcorr 1
|  9>    TDA      FALSE
| 10> END
| 11>
| 12> %CPCM
| 13>    SMD          TRUE
| 14>    SMDsolvent   "ACETONITRILE"
| 15> END
| 16>
| 17>
| 18> * xyz 0 1
| 19> C                   0.51206600   -3.37733400   -1.08785000
| 20> C                   1.22884200   -2.24509400   -0.80828200
| 21> C                   0.56165000   -1.02126100   -0.62618200
| 22> C                  -0.86012500   -0.97150600   -0.72114200
| 23> C                  -1.55487400   -2.16935100   -1.02289900
| 24> C                  -0.88833900   -3.34503000   -1.20246900
| 25> C                  -1.53090900    0.24740000   -0.52851900
| 26> C                  -0.78141900    1.40992600   -0.28087600
| 27> C                   0.63912100    1.33324000   -0.19816900
| 28> C                   1.38499600    2.49658800    0.06127700
| 29> H                   2.46163100    2.44273000    0.12000400
| 30> C                   0.74379800    3.69248600    0.24122900
| 31> C                  -0.65728900    3.78443900    0.18150400
| 32> C                  -1.39859100    2.66788800   -0.07049500
| 33> H                   1.03930600   -4.31217200   -1.22804700
| 34> H                   2.30474700   -2.28755300   -0.73063500
| 35> H                  -2.63192200   -2.12927900   -1.10706600
| 36> H                  -1.43132400   -4.25120600   -1.43393000
| 37> H                   1.33083600    4.57974000    0.44021300
| 38> H                  -1.14245800    4.73770200    0.34109200
| 39> H                  -2.47777800    2.72265700   -0.10929600
| 40> N                   1.26196200    0.12497200   -0.36242300
| 41> C                  -3.00776800    0.31074400   -0.62103700
| 42> C                  -3.82181400   -0.15021500    0.42765100
| 43> C                  -3.56027400    0.83683500   -1.79011500
| 44> C                  -5.20240200   -0.06342300    0.23014100
| 45> C                  -4.93460200    0.89491100   -1.95198700
| 46> C                  -5.76094300    0.43989300   -0.93537400
| 47> H                  -5.35402100    1.29720800   -2.86561400
| 48> H                  -2.90505900    1.19394500   -2.57652000
| 49> C                   2.70265600    0.05760100   -0.25217100
| 50> C                   3.28025100   -0.19015900    0.97867200
| 51> C                   3.48695300    0.24302400   -1.38238600
| 52> C                   4.66028500   -0.25514900    1.09451600
| 53> H                   2.65201400   -0.33305300    1.84897100
| 54> C                   4.86021200    0.18008400   -1.27363300
| 55> H                   3.01789800    0.43581500   -2.33896500
| 56> C                   5.45675800   -0.06886300   -0.03470800
| 57> H                   5.10417100   -0.44952000    2.05997400
| 58> H                   5.49135800    0.32230000   -2.14088200
| 59> O                   6.80413200   -0.11088500   -0.02720000
| 60> C                   7.44922400   -0.35785200    1.21347900
| 61> H                   8.51558400   -0.34820700    1.00662500
| 62> H                   7.21769000    0.41868800    1.94580100
| 63> H                   7.17066500   -1.33185700    1.62181200
| 64> H                  -6.83742600    0.48487900   -1.04899900
| 65> H                  -5.85834500   -0.39893200    1.02651800
| 66> F                  -4.15577500   -0.52196500    2.87376400
| 67> F                  -2.00974900   -0.14579500    2.17298200
| 68> F                  -3.02919000   -2.14709500    1.73288700
| 69> B                  -3.24534100   -0.74537200    1.81315300
| 70> *
| 71>
| 72>
| 73>                          ****END OF INPUT****

CARTESIAN COORDINATES (ANGSTROEM)
---------------------------------
  C      0.512066   -3.377334   -1.087850
  C      1.228842   -2.245094   -0.808282
  C      0.561650   -1.021261   -0.626182
  C     -0.860125   -0.971506   -0.721142
  C     -1.554874   -2.169351   -1.022899
  C     -0.888339   -3.345030   -1.202469
  C     -1.530909    0.247400   -0.528519
  C     -0.781419    1.409926   -0.280876
  C      0.639121    1.333240   -0.198169
  C      1.384996    2.496588    0.061277
  H      2.461631    2.442730    0.120004
  C      0.743798    3.692486    0.241229
  C     -0.657289    3.784439    0.181504
  C     -1.398591    2.667888   -0.070495
  H      1.039306   -4.312172   -1.228047
  H      2.304747   -2.287553   -0.730635
  H     -2.631922   -2.129279   -1.107066
  H     -1.431324   -4.251206   -1.433930
  H      1.330836    4.579740    0.440213
  H     -1.142458    4.737702    0.341092
  H     -2.477778    2.722657   -0.109296
  N      1.261962    0.124972   -0.362423
  C     -3.007768    0.310744   -0.621037
  C     -3.821814   -0.150215    0.427651
  C     -3.560274    0.836835   -1.790115
  C     -5.202402   -0.063423    0.230141
  C     -4.934602    0.894911   -1.951987
  C     -5.760943    0.439893   -0.935374
  H     -5.354021    1.297208   -2.865614
  H     -2.905059    1.193945   -2.576520
  C      2.702656    0.057601   -0.252171
  C      3.280251   -0.190159    0.978672
  C      3.486953    0.243024   -1.382386
  C      4.660285   -0.255149    1.094516
  H      2.652014   -0.333053    1.848971
  C      4.860212    0.180084   -1.273633
  H      3.017898    0.435815   -2.338965
  C      5.456758   -0.068863   -0.034708
  H      5.104171   -0.449520    2.059974
  H      5.491358    0.322300   -2.140882
  O      6.804132   -0.110885   -0.027200
  C      7.449224   -0.357852    1.213479
  H      8.515584   -0.348207    1.006625
  H      7.217690    0.418688    1.945801
  H      7.170665   -1.331857    1.621812
  H     -6.837426    0.484879   -1.048999
  H     -5.858345   -0.398932    1.026518
  F     -4.155775   -0.521965    2.873764
  F     -2.009749   -0.145795    2.172982
  F     -3.029190   -2.147095    1.732887
  B     -3.245341   -0.745372    1.813153

 Total Charge           Charge          ....    0
 Multiplicity           Mult            ....    1
 Number of Electrons    NEL             ....  222
 Basis Dimension        Dim             .... 1106

ORBITAL ENERGIES
----------------

  NO   OCC          E(Eh)            E(eV)
   0   2.0000     -25.666333      -698.4164
   1   2.0000     -25.664911      -698.3777
   2   2.0000     -25.663524      -698.3400
   3   2.0000     -20.092831      -546.7537
   4   2.0000     -15.231352      -414.4662
   5   2.0000     -10.959177      -298.2144
   6   2.0000     -10.959046      -298.2108
   7   2.0000     -10.944752      -297.8218
   8   2.0000     -10.943299      -297.7823
   9   2.0000     -10.915964      -297.0385
  10   2.0000     -10.905759      -296.7608
  11   2.0000     -10.905552      -296.7552
  12   2.0000     -10.902473      -296.6714
  13   2.0000     -10.894462      -296.4534
  14   2.0000     -10.894459      -296.4533
  15   2.0000     -10.889917      -296.3297
  16   2.0000     -10.889554      -296.3198
  17   2.0000     -10.884730      -296.1886
  18   2.0000     -10.884724      -296.1884
  19   2.0000     -10.883966      -296.1678
  20   2.0000     -10.881717      -296.1066
  21   2.0000     -10.880872      -296.0836
  22   2.0000     -10.876931      -295.9763
  23   2.0000     -10.875644      -295.9413
  24   2.0000     -10.872646      -295.8597
  25   2.0000     -10.871427      -295.8266
  26   2.0000     -10.870797      -295.8094
  27   2.0000     -10.865505      -295.6654
  28   2.0000     -10.864410      -295.6356
  29   2.0000     -10.860885      -295.5397
  30   2.0000     -10.847707      -295.1811
  31   2.0000      -7.356765      -200.1877
  32   2.0000      -1.465843       -39.8876
  33   2.0000      -1.420539       -38.6548
  34   2.0000      -1.418091       -38.5882
  35   2.0000      -1.339335       -36.4452
  36   2.0000      -1.279723       -34.8230
  37   2.0000      -1.136421       -30.9236
  38   2.0000      -1.121271       -30.5113
  39   2.0000      -1.102142       -29.9908
  40   2.0000      -1.089410       -29.6444
  41   2.0000      -1.056318       -28.7439
  42   2.0000      -1.006490       -27.3880
  43   2.0000      -0.992126       -26.9971
  44   2.0000      -0.987884       -26.8817
  45   2.0000      -0.982242       -26.7282
  46   2.0000      -0.969016       -26.3683
  47   2.0000      -0.959925       -26.1209
  48   2.0000      -0.952870       -25.9289
  49   2.0000      -0.902665       -24.5628
  50   2.0000      -0.879763       -23.9396
  51   2.0000      -0.853809       -23.2333
  52   2.0000      -0.840589       -22.8736
  53   2.0000      -0.814834       -22.1728
  54   2.0000      -0.799306       -21.7502
  55   2.0000      -0.791658       -21.5421
  56   2.0000      -0.788128       -21.4461
  57   2.0000      -0.761425       -20.7194
  58   2.0000      -0.743488       -20.2313
  59   2.0000      -0.740370       -20.1465
  60   2.0000      -0.723625       -19.6908
  61   2.0000      -0.718334       -19.5469
  62   2.0000      -0.693873       -18.8813
  63   2.0000      -0.681896       -18.5553
  64   2.0000      -0.669768       -18.2253
  65   2.0000      -0.657609       -17.8945
  66   2.0000      -0.654042       -17.7974
  67   2.0000      -0.651291       -17.7225
  68   2.0000      -0.643009       -17.4972
  69   2.0000      -0.639581       -17.4039
  70   2.0000      -0.633983       -17.2515
  71   2.0000      -0.630299       -17.1513
  72   2.0000      -0.618360       -16.8264
  73   2.0000      -0.613324       -16.6894
  74   2.0000      -0.604971       -16.4621
  75   2.0000      -0.603961       -16.4346
  76   2.0000      -0.598697       -16.2914
  77   2.0000      -0.594826       -16.1860
  78   2.0000      -0.590299       -16.0629
  79   2.0000      -0.588043       -16.0015
  80   2.0000      -0.581776       -15.8309
  81   2.0000      -0.573731       -15.6120
  82   2.0000      -0.571443       -15.5497
  83   2.0000      -0.560982       -15.2651
  84   2.0000      -0.557858       -15.1801
  85   2.0000      -0.547569       -14.9001
  86   2.0000      -0.541643       -14.7389
  87   2.0000      -0.538364       -14.6496
  88   2.0000      -0.534475       -14.5438
  89   2.0000      -0.525151       -14.2901
  90   2.0000      -0.524741       -14.2789
  91   2.0000      -0.522366       -14.2143
  92   2.0000      -0.521274       -14.1846
  93   2.0000      -0.510125       -13.8812
  94   2.0000      -0.508037       -13.8244
  95   2.0000      -0.500803       -13.6275
  96   2.0000      -0.494901       -13.4669
  97   2.0000      -0.491888       -13.3850
  98   2.0000      -0.481567       -13.1041
  99   2.0000      -0.467932       -12.7331
 100   2.0000      -0.466046       -12.6818
 101   2.0000      -0.464482       -12.6392
 102   2.0000      -0.436358       -11.8739
 103   2.0000      -0.421369       -11.4660
 104   2.0000      -0.384476       -10.4621
 105   2.0000      -0.365115        -9.9353
 106   2.0000      -0.357649        -9.7321
 107   2.0000      -0.351031        -9.5520
 108   2.0000      -0.345886        -9.4120
 109   2.0000      -0.335644        -9.1333
 110   2.0000      -0.324080        -8.8187
 111   0.0000      -0.035753        -0.9729
 112   0.0000       0.039197         1.0666
 113   0.0000       0.059069         1.6073
 114   0.0000       0.072426         1.9708
 115   0.0000       0.078258         2.1295

MULLIKEN ATOMIC CHARGES
-----------------------
   0 C :   -0.111886
   1 C :   -0.278278
   2 C :    0.192485
   3 C :    0.141712
   4 C :   -0.275767
   5 C :   -0.178699
   6 C :    0.347624
   7 C :    0.058422
   8 C :    0.241831
   9 C :   -0.295849
  10 H :    0.213020
  11 C :   -0.095626
  12 C :   -0.206573
  13 C :   -0.234603
  14 H :    0.198856
  15 H :    0.213420
  16 H :    0.213597
  17 H :    0.193984
  18 H :    0.199813
  19 H :    0.193974
  20 H :    0.218693
  21 N :    0.162704
  22 C :   -0.166554
  23 C :   -0.146770
  24 C :   -0.323726
  25 C :   -0.223990
  26 C :   -0.160114
  27 C :   -0.206975
  28 H :    0.185458
  29 H :    0.186994
  30 C :   -0.052394
  31 C :   -0.251967
  32 C :   -0.217460
  33 C :   -0.257395
  34 H :    0.198173
  35 C :   -0.229562
  36 H :    0.194680
  37 C :    0.387728
  38 H :    0.205160
  39 H :    0.183870
  40 O :   -0.321210
  41 C :   -0.270001
  42 H :    0.175165
  43 H :    0.161584
  44 H :    0.161126
  45 H :    0.183233
  46 H :    0.177649
  47 F :   -0.451874
  48 F :   -0.445685
  49 F :   -0.446106
  50 B :    0.658110
Sum of atomic charges:    0.0000000

LOEWDIN ATOMIC CHARGES
----------------------
   0 C :   -0.081947
   1 C :   -0.108460
   2 C :   -0.058575
   3 C :   -0.059571
   4 C :   -0.054469
   5 C :   -0.136131
   6 C :    0.075922
   7 C :   -0.061990
   8 C :   -0.059756
   9 C :   -0.106756
  10 H :    0.173998
  11 C :   -0.083057
  12 C :   -0.134310
  13 C :   -0.060463
  14 H :    0.168605
  15 H :    0.173845
  16 H :    0.176490
  17 H :    0.163377
  18 H :    0.168590
  19 H :    0.163527
  20 H :    0.175087
  21 N :    0.353758
  22 C :   -0.082104
  23 C :   -0.028955
  24 C :   -0.102258
  25 C :   -0.109360
  26 C :   -0.150169
  27 C :   -0.145262
  28 H :    0.157253
  29 H :    0.165381
  30 C :   -0.182805
  31 C :   -0.088772
  32 C :   -0.092553
  33 C :   -0.130321
  34 H :    0.172354
  35 C :   -0.113626
  36 H :    0.171688
  37 C :   -0.240343
  38 H :    0.167038
  39 H :    0.164000
  40 O :    0.208351
  41 C :   -0.307028
  42 H :    0.120833
  43 H :    0.117111
  44 H :    0.117041
  45 H :    0.156403
  46 H :    0.160945
  47 F :    0.116427
  48 F :    0.121408
  49 F :    0.109402
  50 B :   -1.239794

  Mayer bond orders larger than 0.100000
B(  0-C ,  1-C ) :   1.5343 B(  0-C ,  5-C ) :   1.2144 B(  0-C , 14-H ) :   0.9660
B(  1-C ,  2-C ) :   1.2385 B(  1-C , 15-H ) :   0.9610 B(  2-C ,  3-C ) :   1.2682
B(  2-C , 21-N ) :   1.2317 B(  3-C ,  4-C ) :   1.1470 B(  3-C ,  6-C ) :   1.1799
B(  4-C ,  5-C ) :   1.5904 B(  4-C , 16-H ) :   0.9543 B(  5-C , 17-H ) :   0.9770
B(  6-C ,  7-C ) :   1.2020 B(  6-C , 22-C ) :   0.6183 B(  7-C ,  8-C ) :   1.2574
B(  7-C , 13-C ) :   1.1652 B(  8-C ,  9-C ) :   1.2287 B(  8-C , 21-N ) :   1.2310
B(  9-C , 10-H ) :   0.9613 B(  9-C , 11-C ) :   1.5395 B( 11-C , 12-C ) :   1.2150
B( 11-C , 18-H ) :   0.9638 B( 12-C , 13-C ) :   1.5984 B( 12-C , 19-H ) :   0.9766
B( 13-C , 20-H ) :   0.9486 B( 21-N , 30-C ) :   0.7249 B( 22-C , 23-C ) :   1.3356
B( 22-C , 24-C ) :   1.4183 B( 23-C , 25-C ) :   1.4349 B( 23-C , 50-B ) :   0.9432
B( 24-C , 26-C ) :   1.4426 B( 24-C , 29-H ) :   0.9816 B( 25-C , 27-C ) :   1.3852
B( 25-C , 46-H ) :   0.9730 B( 26-C , 27-C ) :   1.3812 B( 26-C , 28-H ) :   0.9795
B( 27-C , 45-H ) :   0.9765 B( 30-C , 31-C ) :   1.5330 B( 30-C , 32-C ) :   1.4719
B( 31-C , 33-C ) :   1.3963 B( 31-C , 34-H ) :   0.9641 B( 32-C , 35-C ) :   1.4595
B( 32-C , 36-H ) :   0.9805 B( 33-C , 37-C ) :   1.3157 B( 33-C , 38-H ) :   0.9545
B( 35-C , 37-C ) :   1.3211 B( 35-C , 39-H ) :   0.9839 B( 37-C , 40-O ) :   1.1222
B( 40-O , 41-C ) :   0.8876 B( 41-C , 42-H ) :   0.9681 B( 41-C , 43-H ) :   0.9679
B( 41-C , 44-H ) :   0.9679 B( 47-F , 50-B ) :   0.8912 B( 48-F , 50-B ) :   0.8600
B( 49-F , 50-B ) :   0.8877

MP2 TOTAL ENERGY:    -1456.202921176 Eh

-----------------------------------------------------------------------------
         ABSORPTION SPECTRUM VIA TRANSITION ELECTRIC DIPOLE MOMENTS
-----------------------------------------------------------------------------
State   Energy    Wavelength  fosc         T2        TX        TY        TZ
        (cm-1)      (nm)                 (au**2)    (au)      (au)      (au)
-----------------------------------------------------------------------------
   1   25049.6    399.2   0.241948970   3.17979   1.77900  -0.04263   0.11462
   2   30400.8    328.9   0.346679788   3.75422   0.03557   1.90392   0.35781
   3   31024.5    322.3   0.023763288   0.25216   0.50203  -0.00731  -0.00870
   4   33763.9    296.2   0.083249245   0.81171  -0.02553   0.88964   0.14001
   5   30297.1    330.1   0.000206790   0.00225  -0.02757  -0.03688   0.01128
   6   33606.5    297.6   0.033441560   0.32760  -0.12052  -0.46513  -0.31101
   7   39600.3    252.5   0.034913876   0.29025   0.01088  -0.11021   0.52724
   8   41037.8    243.7   1.169917240   9.38527  -0.02377  -3.00591  -0.59094
   9   41553.4    240.7   0.135621148   1.07448   0.25321   1.00027   0.09911
  10   47657.5    209.8   0.165369794   1.14235   1.04264  -0.05448   0.22865
  11   49151.5    203.5   0.007782027   0.05212   0.16877   0.07135  -0.13620
  12   46858.2    213.4   0.141109160   0.99139   0.99367  -0.05952   0.02149
  13   39445.6    253.5   0.048528878   0.40502  -0.04314  -0.62958  -0.08241
  14   46536.5    214.9   0.107078080   0.75750   0.86383  -0.04132   0.09794
  15   45922.0    217.8   0.017747384   0.12723  -0.26962  -0.16917   0.16100
  16   46184.7    216.5   0.096375330   0.68698   0.82856  -0.00052  -0.02174
  17   45568.7    219.4   0.025905381   0.18715   0.07643  -0.15540   0.39644
  18   51081.1    195.8   0.917435486   5.91277  -2.42596   0.07751  -0.14654
  19   52440.9    190.7   1.526949211   9.58583   3.08612  -0.13677   0.20732
  20   52084.4    192.0   0.434100445   2.74384   0.01174   0.67938  -1.51068
  21   51850.0    192.9   0.390238721   2.47775   0.11263  -0.30861   1.53942
  22   49810.2    200.8   0.040433927   0.26724  -0.35475   0.12530  -0.35453
  23   48529.2    206.1   0.003583053   0.02431   0.08456   0.07708   0.10590
  24   49191.0    203.3   0.127134671   0.85085  -0.10845   0.00551   0.91600
  25   51852.1    192.9   0.052348577   0.33236   0.06464   0.56843   0.07125
  26   51263.4    195.1   0.000052703   0.00034   0.01420  -0.00966   0.00659
  27   51622.3    193.7   0.004025171   0.02567  -0.02783  -0.13173  -0.08685
  28   50843.4    196.7   0.083095226   0.53804   0.10499  -0.68222   0.24819
  29   52571.6    190.2   0.001920910   0.01203  -0.04793  -0.09859   0.00334
  30   53261.3    187.8   0.021874982   0.13521   0.06021  -0.35696   0.06455

FINAL SINGLE POINT ENERGY     -1453.333083176626

DIPOLE MOMENT
-------------
                                X             Y             Z
Electronic contribution:    -22.27821      -4.23590       9.08239
Nuclear contribution   :     28.63218       5.99629     -12.94564
                        -----------------------------------------
Total Dipole Moment    :      6.35396       1.76039      -3.86324
                        -----------------------------------------
Magnitude (a.u.)       :      7.64176
Magnitude (Debye)      :     19.42380

Rotational constants in cm-1:     0.009186     0.002783     0.002554
Rotational constants in MHz :   275.390295    83.442991    76.554550

                             ****ORCA TERMINATED NORMALLY****
TOTAL RUN TIME: 0 days 15 hours 28 minutes 24 seconds 188 msec
