                         Program Version 5.0.2 -  RELEASE  -
|  1> %maxcore 3200
|  2> %pal
|  3>  nprocs= 8
|  4> end
|  5> ! RI-B2PLYP D3BJ def2-TZVP def2/J def2-TZVP/C RIJCOSX CPCM TightSCF
|  6> %TDDFT DCORR 4
|  7>    NROOTS   30
|  8>
|  9>    TDA      FALSE
| 10> END
| 11>
| 12> %CPCM
| 13>    SMD          TRUE
| 14>    SMDsolvent   "ACETONITRILE"
| 15> END
| 16>
| 17>
| 18> * xyz 0 1
| 19> C                   0.51206600   -3.37733400   -1.08785000
| 20> C                   1.22884200   -2.24509400   -0.80828200
| 21> C                   0.56165000   -1.02126100   -0.62618200
| 22> C                  -0.86012500   -0.97150600   -0.72114200
| 23> C                  -1.55487400   -2.16935100   -1.02289900
| 24> C                  -0.88833900   -3.34503000   -1.20246900
| 25> C                  -1.53090900    0.24740000   -0.52851900
| 26> C                  -0.78141900    1.40992600   -0.28087600
| 27> C                   0.63912100    1.33324000   -0.19816900
| 28> C                   1.38499600    2.49658800    0.06127700
| 29> H                   2.46163100    2.44273000    0.12000400
| 30> C                   0.74379800    3.69248600    0.24122900
| 31> C                  -0.65728900    3.78443900    0.18150400
| 32> C                  -1.39859100    2.66788800   -0.07049500
| 33> H                   1.03930600   -4.31217200   -1.22804700
| 34> H                   2.30474700   -2.28755300   -0.73063500
| 35> H                  -2.63192200   -2.12927900   -1.10706600
| 36> H                  -1.43132400   -4.25120600   -1.43393000
| 37> H                   1.33083600    4.57974000    0.44021300
| 38> H                  -1.14245800    4.73770200    0.34109200
| 39> H                  -2.47777800    2.72265700   -0.10929600
| 40> N                   1.26196200    0.12497200   -0.36242300
| 41> C                  -3.00776800    0.31074400   -0.62103700
| 42> C                  -3.82181400   -0.15021500    0.42765100
| 43> C                  -3.56027400    0.83683500   -1.79011500
| 44> C                  -5.20240200   -0.06342300    0.23014100
| 45> C                  -4.93460200    0.89491100   -1.95198700
| 46> C                  -5.76094300    0.43989300   -0.93537400
| 47> H                  -5.35402100    1.29720800   -2.86561400
| 48> H                  -2.90505900    1.19394500   -2.57652000
| 49> C                   2.70265600    0.05760100   -0.25217100
| 50> C                   3.28025100   -0.19015900    0.97867200
| 51> C                   3.48695300    0.24302400   -1.38238600
| 52> C                   4.66028500   -0.25514900    1.09451600
| 53> H                   2.65201400   -0.33305300    1.84897100
| 54> C                   4.86021200    0.18008400   -1.27363300
| 55> H                   3.01789800    0.43581500   -2.33896500
| 56> C                   5.45675800   -0.06886300   -0.03470800
| 57> H                   5.10417100   -0.44952000    2.05997400
| 58> H                   5.49135800    0.32230000   -2.14088200
| 59> O                   6.80413200   -0.11088500   -0.02720000
| 60> C                   7.44922400   -0.35785200    1.21347900
| 61> H                   8.51558400   -0.34820700    1.00662500
| 62> H                   7.21769000    0.41868800    1.94580100
| 63> H                   7.17066500   -1.33185700    1.62181200
| 64> H                  -6.83742600    0.48487900   -1.04899900
| 65> H                  -5.85834500   -0.39893200    1.02651800
| 66> F                  -4.15577500   -0.52196500    2.87376400
| 67> F                  -2.00974900   -0.14579500    2.17298200
| 68> F                  -3.02919000   -2.14709500    1.73288700
| 69> B                  -3.24534100   -0.74537200    1.81315300
| 70> *
| 71>
| 72>
| 73>                          ****END OF INPUT****

CARTESIAN COORDINATES (ANGSTROEM)
---------------------------------
  C      0.512066   -3.377334   -1.087850
  C      1.228842   -2.245094   -0.808282
  C      0.561650   -1.021261   -0.626182
  C     -0.860125   -0.971506   -0.721142
  C     -1.554874   -2.169351   -1.022899
  C     -0.888339   -3.345030   -1.202469
  C     -1.530909    0.247400   -0.528519
  C     -0.781419    1.409926   -0.280876
  C      0.639121    1.333240   -0.198169
  C      1.384996    2.496588    0.061277
  H      2.461631    2.442730    0.120004
  C      0.743798    3.692486    0.241229
  C     -0.657289    3.784439    0.181504
  C     -1.398591    2.667888   -0.070495
  H      1.039306   -4.312172   -1.228047
  H      2.304747   -2.287553   -0.730635
  H     -2.631922   -2.129279   -1.107066
  H     -1.431324   -4.251206   -1.433930
  H      1.330836    4.579740    0.440213
  H     -1.142458    4.737702    0.341092
  H     -2.477778    2.722657   -0.109296
  N      1.261962    0.124972   -0.362423
  C     -3.007768    0.310744   -0.621037
  C     -3.821814   -0.150215    0.427651
  C     -3.560274    0.836835   -1.790115
  C     -5.202402   -0.063423    0.230141
  C     -4.934602    0.894911   -1.951987
  C     -5.760943    0.439893   -0.935374
  H     -5.354021    1.297208   -2.865614
  H     -2.905059    1.193945   -2.576520
  C      2.702656    0.057601   -0.252171
  C      3.280251   -0.190159    0.978672
  C      3.486953    0.243024   -1.382386
  C      4.660285   -0.255149    1.094516
  H      2.652014   -0.333053    1.848971
  C      4.860212    0.180084   -1.273633
  H      3.017898    0.435815   -2.338965
  C      5.456758   -0.068863   -0.034708
  H      5.104171   -0.449520    2.059974
  H      5.491358    0.322300   -2.140882
  O      6.804132   -0.110885   -0.027200
  C      7.449224   -0.357852    1.213479
  H      8.515584   -0.348207    1.006625
  H      7.217690    0.418688    1.945801
  H      7.170665   -1.331857    1.621812
  H     -6.837426    0.484879   -1.048999
  H     -5.858345   -0.398932    1.026518
  F     -4.155775   -0.521965    2.873764
  F     -2.009749   -0.145795    2.172982
  F     -3.029190   -2.147095    1.732887
  B     -3.245341   -0.745372    1.813153

 Total Charge           Charge          ....    0
 Multiplicity           Mult            ....    1
 Number of Electrons    NEL             ....  222
 Basis Dimension        Dim             .... 1106

ORBITAL ENERGIES
----------------

  NO   OCC          E(Eh)            E(eV)
   0   2.0000     -25.294246      -688.2914
   1   2.0000     -25.293276      -688.2650
   2   2.0000     -25.291884      -688.2272
   3   2.0000     -19.758410      -537.6537
   4   2.0000     -14.933940      -406.3732
   5   2.0000     -10.702749      -291.2366
   6   2.0000     -10.702722      -291.2359
   7   2.0000     -10.689698      -290.8815
   8   2.0000     -10.685284      -290.7614
   9   2.0000     -10.663112      -290.1580
  10   2.0000     -10.655667      -289.9554
  11   2.0000     -10.653353      -289.8925
  12   2.0000     -10.653091      -289.8853
  13   2.0000     -10.641028      -289.5571
  14   2.0000     -10.640919      -289.5541
  15   2.0000     -10.636462      -289.4329
  16   2.0000     -10.635963      -289.4193
  17   2.0000     -10.632067      -289.3133
  18   2.0000     -10.631480      -289.2973
  19   2.0000     -10.630938      -289.2825
  20   2.0000     -10.630106      -289.2599
  21   2.0000     -10.630101      -289.2598
  22   2.0000     -10.626573      -289.1638
  23   2.0000     -10.625287      -289.1288
  24   2.0000     -10.621540      -289.0268
  25   2.0000     -10.620557      -289.0000
  26   2.0000     -10.617847      -288.9263
  27   2.0000     -10.613431      -288.8061
  28   2.0000     -10.612333      -288.7762
  29   2.0000     -10.608546      -288.6732
  30   2.0000     -10.593467      -288.2629
  31   2.0000      -7.153643      -194.6605
  32   2.0000      -1.333724       -36.2925
  33   2.0000      -1.289694       -35.0944
  34   2.0000      -1.287411       -35.0322
  35   2.0000      -1.218518       -33.1575
  36   2.0000      -1.161333       -31.6015
  37   2.0000      -1.022772       -27.8310
  38   2.0000      -1.009074       -27.4583
  39   2.0000      -0.990421       -26.9507
  40   2.0000      -0.978282       -26.6204
  41   2.0000      -0.947173       -25.7739
  42   2.0000      -0.901423       -24.5290
  43   2.0000      -0.887956       -24.1625
  44   2.0000      -0.883323       -24.0364
  45   2.0000      -0.878009       -23.8918
  46   2.0000      -0.864871       -23.5343
  47   2.0000      -0.855279       -23.2733
  48   2.0000      -0.850856       -23.1530
  49   2.0000      -0.805277       -21.9127
  50   2.0000      -0.782447       -21.2915
  51   2.0000      -0.758998       -20.6534
  52   2.0000      -0.745920       -20.2975
  53   2.0000      -0.722260       -19.6537
  54   2.0000      -0.707597       -19.2547
  55   2.0000      -0.698415       -19.0048
  56   2.0000      -0.696105       -18.9420
  57   2.0000      -0.671735       -18.2788
  58   2.0000      -0.656156       -17.8549
  59   2.0000      -0.651922       -17.7397
  60   2.0000      -0.633277       -17.2323
  61   2.0000      -0.629777       -17.1371
  62   2.0000      -0.609725       -16.5915
  63   2.0000      -0.596287       -16.2258
  64   2.0000      -0.586013       -15.9462
  65   2.0000      -0.575814       -15.6687
  66   2.0000      -0.564123       -15.3506
  67   2.0000      -0.560616       -15.2551
  68   2.0000      -0.559694       -15.2301
  69   2.0000      -0.557304       -15.1650
  70   2.0000      -0.553439       -15.0598
  71   2.0000      -0.547325       -14.8935
  72   2.0000      -0.534498       -14.5444
  73   2.0000      -0.530696       -14.4410
  74   2.0000      -0.526945       -14.3389
  75   2.0000      -0.525508       -14.2998
  76   2.0000      -0.518060       -14.0971
  77   2.0000      -0.517611       -14.0849
  78   2.0000      -0.512495       -13.9457
  79   2.0000      -0.508761       -13.8441
  80   2.0000      -0.505598       -13.7580
  81   2.0000      -0.487122       -13.2553
  82   2.0000      -0.483531       -13.1575
  83   2.0000      -0.482898       -13.1403
  84   2.0000      -0.480264       -13.0687
  85   2.0000      -0.473599       -12.8873
  86   2.0000      -0.461133       -12.5481
  87   2.0000      -0.455485       -12.3944
  88   2.0000      -0.451834       -12.2950
  89   2.0000      -0.450457       -12.2575
  90   2.0000      -0.446443       -12.1483
  91   2.0000      -0.445270       -12.1164
  92   2.0000      -0.437628       -11.9085
  93   2.0000      -0.435713       -11.8564
  94   2.0000      -0.434864       -11.8333
  95   2.0000      -0.429435       -11.6855
  96   2.0000      -0.423377       -11.5207
  97   2.0000      -0.418220       -11.3803
  98   2.0000      -0.408884       -11.1263
  99   2.0000      -0.397424       -10.8144
 100   2.0000      -0.395909       -10.7732
 101   2.0000      -0.391955       -10.6656
 102   2.0000      -0.368207       -10.0194
 103   2.0000      -0.351730        -9.5711
 104   2.0000      -0.323048        -8.7906
 105   2.0000      -0.305424        -8.3110
 106   2.0000      -0.301930        -8.2159
 107   2.0000      -0.291099        -7.9212
 108   2.0000      -0.286573        -7.7980
 109   2.0000      -0.275673        -7.5014
 110   2.0000      -0.268680        -7.3112
 111   0.0000      -0.065418        -1.7801
 112   0.0000       0.006163         0.1677
 113   0.0000       0.023514         0.6398
 114   0.0000       0.036988         1.0065
 115   0.0000       0.040866         1.1120

MULLIKEN ATOMIC CHARGES
-----------------------
   0 C :   -0.106343
   1 C :   -0.220905
   2 C :    0.135059
   3 C :    0.132001
   4 C :   -0.237325
   5 C :   -0.151080
   6 C :    0.406661
   7 C :    0.066120
   8 C :    0.184320
   9 C :   -0.237892
  10 H :    0.183497
  11 C :   -0.091393
  12 C :   -0.173531
  13 C :   -0.216276
  14 H :    0.173006
  15 H :    0.183352
  16 H :    0.178083
  17 H :    0.166987
  18 H :    0.173891
  19 H :    0.167240
  20 H :    0.186308
  21 N :    0.144973
  22 C :   -0.099719
  23 C :   -0.165373
  24 C :   -0.307925
  25 C :   -0.200919
  26 C :   -0.136495
  27 C :   -0.179818
  28 H :    0.156073
  29 H :    0.152005
  30 C :    0.064954
  31 C :   -0.241900
  32 C :   -0.211664
  33 C :   -0.235701
  34 H :    0.168690
  35 C :   -0.200794
  36 H :    0.164177
  37 C :    0.378963
  38 H :    0.171786
  39 H :    0.151395
  40 O :   -0.328695
  41 C :   -0.195128
  42 H :    0.153027
  43 H :    0.139534
  44 H :    0.139133
  45 H :    0.153629
  46 H :    0.147475
  47 F :   -0.463295
  48 F :   -0.461146
  49 F :   -0.460046
  50 B :    0.701023
Sum of atomic charges:   -0.0000000

LOEWDIN ATOMIC CHARGES
----------------------
   0 C :   -0.083984
   1 C :   -0.100090
   2 C :   -0.059848
   3 C :   -0.051659
   4 C :   -0.052515
   5 C :   -0.128858
   6 C :    0.071268
   7 C :   -0.053864
   8 C :   -0.060813
   9 C :   -0.098475
  10 H :    0.168994
  11 C :   -0.084831
  12 C :   -0.127122
  13 C :   -0.058813
  14 H :    0.162028
  15 H :    0.168834
  16 H :    0.170750
  17 H :    0.157493
  18 H :    0.162053
  19 H :    0.157676
  20 H :    0.169434
  21 N :    0.359098
  22 C :   -0.075295
  23 C :   -0.025589
  24 C :   -0.099226
  25 C :   -0.106650
  26 C :   -0.147267
  27 C :   -0.143168
  28 H :    0.150777
  29 H :    0.158375
  30 C :   -0.172032
  31 C :   -0.086836
  32 C :   -0.090258
  33 C :   -0.125235
  34 H :    0.165544
  35 C :   -0.109446
  36 H :    0.164954
  37 C :   -0.238985
  38 H :    0.161538
  39 H :    0.157632
  40 O :    0.214894
  41 C :   -0.298108
  42 H :    0.116367
  43 H :    0.112706
  44 H :    0.112638
  45 H :    0.149833
  46 H :    0.154497
  47 F :    0.121102
  48 F :    0.126301
  49 F :    0.114248
  50 B :   -1.250068

  Mayer bond orders larger than 0.100000
B(  0-C ,  1-C ) :   1.5183 B(  0-C ,  5-C ) :   1.2247 B(  0-C , 14-H ) :   0.9732
B(  1-C ,  2-C ) :   1.2554 B(  1-C , 15-H ) :   0.9686 B(  2-C ,  3-C ) :   1.2655
B(  2-C , 21-N ) :   1.2261 B(  3-C ,  4-C ) :   1.1707 B(  3-C ,  6-C ) :   1.1518
B(  4-C ,  5-C ) :   1.5727 B(  4-C , 16-H ) :   0.9645 B(  5-C , 17-H ) :   0.9851
B(  6-C ,  7-C ) :   1.1684 B(  6-C , 22-C ) :   0.6098 B(  7-C ,  8-C ) :   1.2543
B(  7-C , 13-C ) :   1.1760 B(  8-C ,  9-C ) :   1.2463 B(  8-C , 21-N ) :   1.2257
B(  9-C , 10-H ) :   0.9681 B(  9-C , 11-C ) :   1.5236 B( 11-C , 12-C ) :   1.2255
B( 11-C , 18-H ) :   0.9716 B( 12-C , 13-C ) :   1.5839 B( 12-C , 19-H ) :   0.9842
B( 13-C , 20-H ) :   0.9618 B( 21-N , 30-C ) :   0.6928 B( 22-C , 23-C ) :   1.3242
B( 22-C , 24-C ) :   1.3802 B( 23-C , 25-C ) :   1.4207 B( 23-C , 50-B ) :   0.9252
B( 24-C , 26-C ) :   1.4424 B( 24-C , 29-H ) :   0.9988 B( 25-C , 27-C ) :   1.3809
B( 25-C , 46-H ) :   0.9814 B( 26-C , 27-C ) :   1.3805 B( 26-C , 28-H ) :   0.9863
B( 27-C , 45-H ) :   0.9834 B( 30-C , 31-C ) :   1.4992 B( 30-C , 32-C ) :   1.4458
B( 31-C , 33-C ) :   1.3692 B( 31-C , 34-H ) :   0.9754 B( 32-C , 35-C ) :   1.4516
B( 32-C , 36-H ) :   0.9933 B( 33-C , 37-C ) :   1.3043 B( 33-C , 38-H ) :   0.9715
B( 35-C , 37-C ) :   1.3189 B( 35-C , 39-H ) :   0.9955 B( 37-C , 40-O ) :   1.1240
B( 40-O , 41-C ) :   0.8867 B( 41-C , 42-H ) :   0.9729 B( 41-C , 43-H ) :   0.9707
B( 41-C , 44-H ) :   0.9707 B( 47-F , 50-B ) :   0.8801 B( 48-F , 50-B ) :   0.8476
B( 49-F , 50-B ) :   0.8783

MP2 TOTAL ENERGY:    -1456.184761770 Eh

-----------------------------------------------------------------------------
         ABSORPTION SPECTRUM VIA TRANSITION ELECTRIC DIPOLE MOMENTS
-----------------------------------------------------------------------------
State   Energy    Wavelength  fosc         T2        TX        TY        TZ
        (cm-1)      (nm)                 (au**2)    (au)      (au)      (au)
-----------------------------------------------------------------------------
   1   23865.4    419.0   0.202635004   2.79525  -1.66810   0.04318  -0.10400
   2   27322.0    366.0   0.011422027   0.13763   0.36869   0.04100  -0.00400
   3   29383.1    340.3   0.286260844   3.20730   0.00165  -1.76504  -0.30320
   4   25308.3    395.1   0.005689948   0.07402  -0.06082   0.26171   0.04268
   5   28925.8    345.7   0.017115304   0.19479   0.13959   0.37893   0.17810
   6   31916.7    313.3   0.044837468   0.46249   0.05463   0.64681   0.20283
   7   34070.8    293.5   0.037264935   0.36008  -0.02072  -0.58623  -0.12643
   8   38725.1    258.2   0.035008132   0.29761  -0.00313  -0.13822   0.52773
   9   39148.0    255.4   1.240560314  10.43239  -0.08850  -3.16781  -0.62415
  10   41272.3    242.3   0.027015377   0.21549   0.22294   0.40643  -0.02456
  11   37956.9    263.5   0.104450674   0.90593   0.95025  -0.05428  -0.00210
  12   45937.8    217.7   0.148998932   1.06780  -0.98877   0.09982  -0.28315
  13   43657.4    229.1   0.036763888   0.27723   0.03781   0.52339   0.04312
  14   45030.7    222.1   0.016517121   0.12075   0.07193   0.33634  -0.04957
  15   43440.5    230.2   0.004879073   0.03698  -0.04456   0.09457  -0.16139
  16   46187.8    216.5   0.166652333   1.18784   1.08712  -0.01949   0.07506
  17   41626.5    240.2   0.001290407   0.01021  -0.05015  -0.00880  -0.08725
  18   44907.3    222.7   0.020364216   0.14929   0.37869  -0.01291   0.07559
  19   43942.1    227.6   0.034481923   0.25834  -0.03268   0.02692   0.50650
  20   43895.7    227.8   0.006656212   0.04992  -0.13811  -0.08769   0.15218
  21   47170.9    212.0   0.593079699   4.13919   2.03318  -0.06835   0.02645
  22   46545.0    214.8   0.002374285   0.01679  -0.00919  -0.12907   0.00711
  23   46002.5    217.4   0.010307185   0.07376  -0.20257   0.06315  -0.16953
  24   47707.9    209.6   0.176396581   1.21724  -1.03742   0.31102  -0.21041
  25   49931.4    200.3   1.256547623   8.28478  -2.87456   0.03334  -0.14346
  26   49893.0    200.4   0.221249112   1.45988  -0.73263   0.29417  -0.91466
  27   50102.1    199.6   0.157410999   1.03432  -0.46607  -0.41403   0.80354
  28   49276.9    202.9   0.276097429   1.84457  -0.04036   0.28868  -1.32650
  29   48619.2    205.7   0.001462336   0.00990  -0.03941   0.01809  -0.08956
  30   50339.2    198.7   0.108777410   0.71139   0.82899  -0.10676   0.11302

Dispersion correction           -0.062971734
FINAL SINGLE POINT ENERGY     -1454.398562571369

DIPOLE MOMENT
-------------
                                X             Y             Z
Electronic contribution:    -22.17688      -4.25208       9.10979
Nuclear contribution   :     28.63218       5.99629     -12.94564
                        -----------------------------------------
Total Dipole Moment    :      6.45530       1.74422      -3.83585
                        -----------------------------------------
Magnitude (a.u.)       :      7.70889
Magnitude (Debye)      :     19.59443

Rotational constants in cm-1:     0.009186     0.002783     0.002554
Rotational constants in MHz :   275.390295    83.442991    76.554550

                             ****ORCA TERMINATED NORMALLY****
TOTAL RUN TIME: 0 days 5 hours 43 minutes 22 seconds 158 msec
