                         Program Version 5.0.2 -  RELEASE  -
|  1> %maxcore 20000
|  2> %pal
|  3>  nprocs= 6
|  4> end
|  5> ! RI-SCS-PBE-QIDH   def2-TZVP def2/J def2-TZVP/C RIJCOSX CPCM TightSCF
|  6> %TDDFT
|  7>    NROOTS   30
|  8>    dcorr 4
|  9>    doscs true
| 10>    TDA      FALSE
| 11> END
| 12>
| 13> %CPCM
| 14>    SMD          TRUE
| 15>    SMDsolvent   "ACETONITRILE"
| 16> END
| 17>
| 18>
| 19> * xyz 0 1
| 20> C                   0.51206600   -3.37733400   -1.08785000
| 21> C                   1.22884200   -2.24509400   -0.80828200
| 22> C                   0.56165000   -1.02126100   -0.62618200
| 23> C                  -0.86012500   -0.97150600   -0.72114200
| 24> C                  -1.55487400   -2.16935100   -1.02289900
| 25> C                  -0.88833900   -3.34503000   -1.20246900
| 26> C                  -1.53090900    0.24740000   -0.52851900
| 27> C                  -0.78141900    1.40992600   -0.28087600
| 28> C                   0.63912100    1.33324000   -0.19816900
| 29> C                   1.38499600    2.49658800    0.06127700
| 30> H                   2.46163100    2.44273000    0.12000400
| 31> C                   0.74379800    3.69248600    0.24122900
| 32> C                  -0.65728900    3.78443900    0.18150400
| 33> C                  -1.39859100    2.66788800   -0.07049500
| 34> H                   1.03930600   -4.31217200   -1.22804700
| 35> H                   2.30474700   -2.28755300   -0.73063500
| 36> H                  -2.63192200   -2.12927900   -1.10706600
| 37> H                  -1.43132400   -4.25120600   -1.43393000
| 38> H                   1.33083600    4.57974000    0.44021300
| 39> H                  -1.14245800    4.73770200    0.34109200
| 40> H                  -2.47777800    2.72265700   -0.10929600
| 41> N                   1.26196200    0.12497200   -0.36242300
| 42> C                  -3.00776800    0.31074400   -0.62103700
| 43> C                  -3.82181400   -0.15021500    0.42765100
| 44> C                  -3.56027400    0.83683500   -1.79011500
| 45> C                  -5.20240200   -0.06342300    0.23014100
| 46> C                  -4.93460200    0.89491100   -1.95198700
| 47> C                  -5.76094300    0.43989300   -0.93537400
| 48> H                  -5.35402100    1.29720800   -2.86561400
| 49> H                  -2.90505900    1.19394500   -2.57652000
| 50> C                   2.70265600    0.05760100   -0.25217100
| 51> C                   3.28025100   -0.19015900    0.97867200
| 52> C                   3.48695300    0.24302400   -1.38238600
| 53> C                   4.66028500   -0.25514900    1.09451600
| 54> H                   2.65201400   -0.33305300    1.84897100
| 55> C                   4.86021200    0.18008400   -1.27363300
| 56> H                   3.01789800    0.43581500   -2.33896500
| 57> C                   5.45675800   -0.06886300   -0.03470800
| 58> H                   5.10417100   -0.44952000    2.05997400
| 59> H                   5.49135800    0.32230000   -2.14088200
| 60> O                   6.80413200   -0.11088500   -0.02720000
| 61> C                   7.44922400   -0.35785200    1.21347900
| 62> H                   8.51558400   -0.34820700    1.00662500
| 63> H                   7.21769000    0.41868800    1.94580100
| 64> H                   7.17066500   -1.33185700    1.62181200
| 65> H                  -6.83742600    0.48487900   -1.04899900
| 66> H                  -5.85834500   -0.39893200    1.02651800
| 67> F                  -4.15577500   -0.52196500    2.87376400
| 68> F                  -2.00974900   -0.14579500    2.17298200
| 69> F                  -3.02919000   -2.14709500    1.73288700
| 70> B                  -3.24534100   -0.74537200    1.81315300
| 71> *
| 72>
| 73>
| 74>                          ****END OF INPUT****

CARTESIAN COORDINATES (ANGSTROEM)
---------------------------------
  C      0.512066   -3.377334   -1.087850
  C      1.228842   -2.245094   -0.808282
  C      0.561650   -1.021261   -0.626182
  C     -0.860125   -0.971506   -0.721142
  C     -1.554874   -2.169351   -1.022899
  C     -0.888339   -3.345030   -1.202469
  C     -1.530909    0.247400   -0.528519
  C     -0.781419    1.409926   -0.280876
  C      0.639121    1.333240   -0.198169
  C      1.384996    2.496588    0.061277
  H      2.461631    2.442730    0.120004
  C      0.743798    3.692486    0.241229
  C     -0.657289    3.784439    0.181504
  C     -1.398591    2.667888   -0.070495
  H      1.039306   -4.312172   -1.228047
  H      2.304747   -2.287553   -0.730635
  H     -2.631922   -2.129279   -1.107066
  H     -1.431324   -4.251206   -1.433930
  H      1.330836    4.579740    0.440213
  H     -1.142458    4.737702    0.341092
  H     -2.477778    2.722657   -0.109296
  N      1.261962    0.124972   -0.362423
  C     -3.007768    0.310744   -0.621037
  C     -3.821814   -0.150215    0.427651
  C     -3.560274    0.836835   -1.790115
  C     -5.202402   -0.063423    0.230141
  C     -4.934602    0.894911   -1.951987
  C     -5.760943    0.439893   -0.935374
  H     -5.354021    1.297208   -2.865614
  H     -2.905059    1.193945   -2.576520
  C      2.702656    0.057601   -0.252171
  C      3.280251   -0.190159    0.978672
  C      3.486953    0.243024   -1.382386
  C      4.660285   -0.255149    1.094516
  H      2.652014   -0.333053    1.848971
  C      4.860212    0.180084   -1.273633
  H      3.017898    0.435815   -2.338965
  C      5.456758   -0.068863   -0.034708
  H      5.104171   -0.449520    2.059974
  H      5.491358    0.322300   -2.140882
  O      6.804132   -0.110885   -0.027200
  C      7.449224   -0.357852    1.213479
  H      8.515584   -0.348207    1.006625
  H      7.217690    0.418688    1.945801
  H      7.170665   -1.331857    1.621812
  H     -6.837426    0.484879   -1.048999
  H     -5.858345   -0.398932    1.026518
  F     -4.155775   -0.521965    2.873764
  F     -2.009749   -0.145795    2.172982
  F     -3.029190   -2.147095    1.732887
  B     -3.245341   -0.745372    1.813153

 Total Charge           Charge          ....    0
 Multiplicity           Mult            ....    1
 Number of Electrons    NEL             ....  222
 Basis Dimension        Dim             .... 1106

ORBITAL ENERGIES
----------------

  NO   OCC          E(Eh)            E(eV)
   0   2.0000     -25.606455      -696.7871
   1   2.0000     -25.605387      -696.7580
   2   2.0000     -25.603895      -696.7174
   3   2.0000     -20.039202      -545.2944
   4   2.0000     -15.181791      -413.1175
   5   2.0000     -10.912065      -296.9324
   6   2.0000     -10.911978      -296.9300
   7   2.0000     -10.896926      -296.5204
   8   2.0000     -10.896639      -296.5126
   9   2.0000     -10.869896      -295.7849
  10   2.0000     -10.859775      -295.5095
  11   2.0000     -10.859546      -295.5033
  12   2.0000     -10.857521      -295.4482
  13   2.0000     -10.848152      -295.1932
  14   2.0000     -10.848113      -295.1922
  15   2.0000     -10.843481      -295.0661
  16   2.0000     -10.843061      -295.0547
  17   2.0000     -10.838453      -294.9293
  18   2.0000     -10.838204      -294.9225
  19   2.0000     -10.837759      -294.9104
  20   2.0000     -10.835923      -294.8604
  21   2.0000     -10.835066      -294.8371
  22   2.0000     -10.831365      -294.7364
  23   2.0000     -10.830042      -294.7004
  24   2.0000     -10.826599      -294.6067
  25   2.0000     -10.825494      -294.5767
  26   2.0000     -10.824491      -294.5494
  27   2.0000     -10.819404      -294.4109
  28   2.0000     -10.818299      -294.3809
  29   2.0000     -10.814650      -294.2816
  30   2.0000     -10.801130      -293.9137
  31   2.0000      -7.314599      -199.0404
  32   2.0000      -1.424723       -38.7687
  33   2.0000      -1.379807       -37.5465
  34   2.0000      -1.377447       -37.4822
  35   2.0000      -1.299863       -35.3711
  36   2.0000      -1.239833       -33.7376
  37   2.0000      -1.096604       -29.8401
  38   2.0000      -1.081765       -29.4363
  39   2.0000      -1.062652       -28.9162
  40   2.0000      -1.050050       -28.5733
  41   2.0000      -1.017099       -27.6767
  42   2.0000      -0.967870       -26.3371
  43   2.0000      -0.953571       -25.9480
  44   2.0000      -0.949410       -25.8348
  45   2.0000      -0.943798       -25.6820
  46   2.0000      -0.930638       -25.3239
  47   2.0000      -0.921321       -25.0704
  48   2.0000      -0.914707       -24.8904
  49   2.0000      -0.865117       -23.5410
  50   2.0000      -0.842124       -22.9154
  51   2.0000      -0.816363       -22.2144
  52   2.0000      -0.803032       -21.8516
  53   2.0000      -0.777754       -21.1638
  54   2.0000      -0.762499       -20.7487
  55   2.0000      -0.754329       -20.5263
  56   2.0000      -0.751178       -20.4406
  57   2.0000      -0.724735       -19.7210
  58   2.0000      -0.706393       -19.2219
  59   2.0000      -0.703840       -19.1524
  60   2.0000      -0.685328       -18.6487
  61   2.0000      -0.681926       -18.5562
  62   2.0000      -0.657693       -17.8967
  63   2.0000      -0.645214       -17.5572
  64   2.0000      -0.633153       -17.2290
  65   2.0000      -0.622391       -16.9361
  66   2.0000      -0.616077       -16.7643
  67   2.0000      -0.613153       -16.6847
  68   2.0000      -0.606802       -16.5119
  69   2.0000      -0.603851       -16.4316
  70   2.0000      -0.598391       -16.2830
  71   2.0000      -0.594095       -16.1662
  72   2.0000      -0.581915       -15.8347
  73   2.0000      -0.576811       -15.6958
  74   2.0000      -0.570352       -15.5201
  75   2.0000      -0.568694       -15.4749
  76   2.0000      -0.562824       -15.3152
  77   2.0000      -0.560305       -15.2467
  78   2.0000      -0.555188       -15.1074
  79   2.0000      -0.552879       -15.0446
  80   2.0000      -0.547188       -14.8897
  81   2.0000      -0.536483       -14.5984
  82   2.0000      -0.534126       -14.5343
  83   2.0000      -0.526193       -14.3184
  84   2.0000      -0.523291       -14.2395
  85   2.0000      -0.513514       -13.9734
  86   2.0000      -0.504555       -13.7296
  87   2.0000      -0.501635       -13.6502
  88   2.0000      -0.500841       -13.6286
  89   2.0000      -0.490075       -13.3356
  90   2.0000      -0.488263       -13.2863
  91   2.0000      -0.487690       -13.2707
  92   2.0000      -0.485474       -13.2104
  93   2.0000      -0.476510       -12.9665
  94   2.0000      -0.473824       -12.8934
  95   2.0000      -0.467375       -12.7179
  96   2.0000      -0.461423       -12.5560
  97   2.0000      -0.457237       -12.4420
  98   2.0000      -0.447391       -12.1741
  99   2.0000      -0.434623       -11.8267
 100   2.0000      -0.432677       -11.7737
 101   2.0000      -0.430608       -11.7174
 102   2.0000      -0.402869       -10.9626
 103   2.0000      -0.387922       -10.5559
 104   2.0000      -0.352403        -9.5894
 105   2.0000      -0.334036        -9.0896
 106   2.0000      -0.328153        -8.9295
 107   2.0000      -0.319901        -8.7049
 108   2.0000      -0.314994        -8.5714
 109   2.0000      -0.304746        -8.2926
 110   2.0000      -0.294745        -8.0204
 111   0.0000      -0.053561        -1.4575
 112   0.0000       0.020678         0.5627
 113   0.0000       0.040184         1.0935
 114   0.0000       0.053078         1.4443
 115   0.0000       0.058373         1.5884

MULLIKEN ATOMIC CHARGES
-----------------------
   0 C :   -0.097831
   1 C :   -0.276570
   2 C :    0.170961
   3 C :    0.129545
   4 C :   -0.263731
   5 C :   -0.165280
   6 C :    0.419357
   7 C :    0.056294
   8 C :    0.226955
   9 C :   -0.297216
  10 H :    0.193617
  11 C :   -0.079115
  12 C :   -0.191923
  13 C :   -0.239347
  14 H :    0.184586
  15 H :    0.194060
  16 H :    0.190738
  17 H :    0.179805
  18 H :    0.185674
  19 H :    0.179967
  20 H :    0.198951
  21 N :    0.213730
  22 C :   -0.119797
  23 C :   -0.165581
  24 C :   -0.337190
  25 C :   -0.221060
  26 C :   -0.148394
  27 C :   -0.194179
  28 H :    0.170360
  29 H :    0.168808
  30 C :    0.024148
  31 C :   -0.251465
  32 C :   -0.217038
  33 C :   -0.259744
  34 H :    0.181332
  35 C :   -0.232779
  36 H :    0.177585
  37 C :    0.395848
  38 H :    0.185747
  39 H :    0.164988
  40 O :   -0.316885
  41 C :   -0.233658
  42 H :    0.165320
  43 H :    0.150299
  44 H :    0.149855
  45 H :    0.168281
  46 H :    0.164706
  47 F :   -0.461936
  48 F :   -0.456967
  49 F :   -0.456502
  50 B :    0.692670
Sum of atomic charges:    0.0000000

LOEWDIN ATOMIC CHARGES
----------------------
   0 C :   -0.081594
   1 C :   -0.105272
   2 C :   -0.058681
   3 C :   -0.057491
   4 C :   -0.052374
   5 C :   -0.133388
   6 C :    0.075193
   7 C :   -0.059742
   8 C :   -0.059750
   9 C :   -0.103560
  10 H :    0.171834
  11 C :   -0.082608
  12 C :   -0.131600
  13 C :   -0.058855
  14 H :    0.165686
  15 H :    0.171674
  16 H :    0.174074
  17 H :    0.160691
  18 H :    0.165686
  19 H :    0.160863
  20 H :    0.172706
  21 N :    0.354584
  22 C :   -0.080178
  23 C :   -0.028029
  24 C :   -0.100370
  25 C :   -0.107874
  26 C :   -0.148680
  27 C :   -0.143897
  28 H :    0.154400
  29 H :    0.162391
  30 C :   -0.179124
  31 C :   -0.087058
  32 C :   -0.090606
  33 C :   -0.127891
  34 H :    0.169311
  35 C :   -0.111865
  36 H :    0.168677
  37 C :   -0.238902
  38 H :    0.164621
  39 H :    0.161162
  40 O :    0.208681
  41 C :   -0.301497
  42 H :    0.118399
  43 H :    0.115050
  44 H :    0.114978
  45 H :    0.153510
  46 H :    0.158324
  47 F :    0.113170
  48 F :    0.118081
  49 F :    0.106169
  50 B :   -1.229027

  Mayer bond orders larger than 0.100000
B(  0-C ,  1-C ) :   1.5238 B(  0-C ,  5-C ) :   1.2177 B(  0-C , 14-H ) :   0.9702
B(  1-C ,  2-C ) :   1.2621 B(  1-C , 15-H ) :   0.9706 B(  2-C ,  3-C ) :   1.2599
B(  2-C , 21-N ) :   1.2312 B(  3-C ,  4-C ) :   1.1634 B(  3-C ,  6-C ) :   1.1624
B(  4-C ,  5-C ) :   1.5846 B(  4-C , 16-H ) :   0.9628 B(  5-C , 17-H ) :   0.9819
B(  6-C ,  7-C ) :   1.1769 B(  6-C , 22-C ) :   0.5806 B(  7-C ,  8-C ) :   1.2484
B(  7-C , 13-C ) :   1.1626 B(  8-C ,  9-C ) :   1.2500 B(  8-C , 21-N ) :   1.2309
B(  9-C , 10-H ) :   0.9709 B(  9-C , 11-C ) :   1.5293 B( 11-C , 12-C ) :   1.2193
B( 11-C , 18-H ) :   0.9679 B( 12-C , 13-C ) :   1.5937 B( 12-C , 19-H ) :   0.9812
B( 13-C , 20-H ) :   0.9629 B( 21-N , 30-C ) :   0.7221 B( 22-C , 23-C ) :   1.3399
B( 22-C , 24-C ) :   1.4139 B( 23-C , 25-C ) :   1.4427 B( 23-C , 50-B ) :   0.9253
B( 24-C , 26-C ) :   1.4461 B( 24-C , 29-H ) :   0.9922 B( 25-C , 27-C ) :   1.3852
B( 25-C , 46-H ) :   0.9779 B( 26-C , 27-C ) :   1.3840 B( 26-C , 28-H ) :   0.9832
B( 27-C , 45-H ) :   0.9799 B( 30-C , 31-C ) :   1.5364 B( 30-C , 32-C ) :   1.4747
B( 31-C , 33-C ) :   1.3953 B( 31-C , 34-H ) :   0.9708 B( 32-C , 35-C ) :   1.4608
B( 32-C , 36-H ) :   0.9872 B( 33-C , 37-C ) :   1.3205 B( 33-C , 38-H ) :   0.9660
B( 35-C , 37-C ) :   1.3208 B( 35-C , 39-H ) :   0.9948 B( 37-C , 40-O ) :   1.1244
B( 40-O , 41-C ) :   0.8932 B( 41-C , 42-H ) :   0.9701 B( 41-C , 43-H ) :   0.9701
B( 41-C , 44-H ) :   0.9702 B( 47-F , 50-B ) :   0.8810 B( 48-F , 50-B ) :   0.8514
B( 49-F , 50-B ) :   0.8804

MP2 TOTAL ENERGY:    -1455.455054945 Eh

-----------------------------------------------------------------------------
         ABSORPTION SPECTRUM VIA TRANSITION ELECTRIC DIPOLE MOMENTS
-----------------------------------------------------------------------------
State   Energy    Wavelength  fosc         T2        TX        TY        TZ
        (cm-1)      (nm)                 (au**2)    (au)      (au)      (au)
-----------------------------------------------------------------------------
   1   24210.8    413.0   0.222438456   3.02466   1.73504  -0.04312   0.11148
   2   29019.4    344.6   0.327975645   3.72073  -0.02991  -1.89629  -0.35205
   3   29861.8    334.9   0.018565259   0.20467   0.45211   0.01587  -0.00436
   4   30824.9    324.4   0.023212723   0.24791  -0.08232   0.48977   0.03559
   5   29494.8    339.0   0.004426398   0.04941   0.00940  -0.22208   0.00052
   6   32703.8    305.8   0.049553482   0.49883   0.11128   0.63652   0.28512
   7   38167.5    262.0   0.033777429   0.29135  -0.00675   0.14631  -0.51951
   8   38970.6    256.6   0.922207984   7.79053   0.06511   2.73544   0.55106
   9   39283.6    254.6   0.050404079   0.42241  -0.15444   0.59800   0.20235
  10   39125.5    255.6   0.333086485   2.80268  -0.15881  -1.65051  -0.23083
  11   45990.2    217.4   0.226502406   1.62137  -1.25717   0.05297  -0.19517
  12   46368.9    215.7   0.010367387   0.07361  -0.18960  -0.06115   0.18417
  13   46266.3    216.1   0.066558758   0.47361   0.68421  -0.05975   0.04342
  14   45130.4    221.6   0.025698729   0.18746  -0.18520   0.37865  -0.09894
  15   45971.6    217.5   0.106259411   0.76095  -0.86699  -0.07807  -0.05631
  16   43838.4    228.1   0.046543822   0.34953   0.57971   0.04129  -0.10844
  17   45603.8    219.3   0.025094159   0.18115  -0.31715   0.08462  -0.27095
  18   50032.5    199.9   0.911073123   5.99483   2.44247  -0.08811   0.14623
  19   45298.3    220.8   0.064405804   0.46808  -0.61300  -0.02466   0.30283
  20   48937.7    204.3   0.253489285   1.70526  -0.05779   0.45968  -1.22091
  21   51709.8    193.4   1.374762777   8.75247   2.95133  -0.08912   0.18487
  22   47247.0    211.7   0.089406527   0.62297  -0.61314   0.19764  -0.45604
  23   50289.7    198.8   0.011586921   0.07585   0.21732   0.14908   0.08000
  24   50452.0    198.2   0.015821743   0.10324  -0.12642  -0.08783   0.28204
  25   51844.6    192.9   0.098944036   0.62829   0.24612   0.04574  -0.75208
  26   51497.9    194.2   0.512739126   3.27780   0.19371  -0.46231   1.73970
  27   50848.3    196.7   0.046191389   0.29906  -0.13684   0.52462  -0.07152
  28   51324.5    194.8   0.003588393   0.02302  -0.09251   0.11983  -0.01004
  29   50390.3    198.5   0.045492467   0.29721   0.53510  -0.10425   0.00291
  30   52627.1    190.0   0.101702089   0.63620   0.13556   0.78381  -0.05893

FINAL SINGLE POINT ENERGY     -1453.366789743510

DIPOLE MOMENT
-------------
                                X             Y             Z
Electronic contribution:    -22.25144      -4.24141       9.08977
Nuclear contribution   :     28.63218       5.99629     -12.94564
                        -----------------------------------------
Total Dipole Moment    :      6.38073       1.75488      -3.85587
                        -----------------------------------------
Magnitude (a.u.)       :      7.65905
Magnitude (Debye)      :     19.46776

Rotational constants in cm-1:     0.009186     0.002783     0.002554
Rotational constants in MHz :   275.390295    83.442991    76.554550

                             ****ORCA TERMINATED NORMALLY****
TOTAL RUN TIME: 0 days 9 hours 47 minutes 7 seconds 998 msec
