 Gaussian 09, Revision E.01,

 ----------------------------------------------------------------------
 #p B97D3/def2TZVP opt freq=noraman nosymm int=ultrafine scrf=(SMD,solv
 ent=n,n-DiMethylAcetamide)
 ----------------------------------------------------------------------

 -----
 Title
 -----
 Symbolic Z-matrix:
 Charge =  0 Multiplicity = 1

 SCF Done:  E(RB97D3) =  -1146.50284839     A.U. after   14 cycles
 SCF Done:  E(RB97D3) =  -1146.50316214     A.U. after   10 cycles
 SCF Done:  E(RB97D3) =  -1146.50317029     A.U. after    8 cycles
 SCF Done:  E(RB97D3) =  -1146.50317138     A.U. after    8 cycles
 SCF Done:  E(RB97D3) =  -1146.50317205     A.U. after    7 cycles
 SCF Done:  E(RB97D3) =  -1146.50317213     A.U. after    7 cycles
 Optimization completed.
    -- Stationary point found.

 1\1\GINC-CN005\FOpt\RB97D3\def2TZVP\C18H13N1S1\PNG4RJV\30-Mar-2021\0\\
 #p B97D3/def2TZVP opt freq=noraman nosymm int=ultrafine scrf=(SMD,solv
 ent=n,n-DiMethylAcetamide)\\Title\\0,1\C,-1.96426216,3.554533354,-0.41
 23670137\C,-2.2535345779,2.5182560408,0.4746195928\C,-1.4861196255,1.3
 487697926,0.4471746716\C,-0.4341149466,1.2127427078,-0.4729861084\C,-0
 .1905100781,2.2341424889,-1.395242427\C,-0.9411674767,3.4086172535,-1.
 3537768387\C,-0.4179078315,-1.1910080761,-0.4673669875\C,-1.4676638228
 ,-1.3371957351,0.4538033032\C,-2.2184740957,-2.5172645481,0.4873132949

 Normal termination of Gaussian 09 at Tue Mar 30 05:23:24 2021.

 --------------------------------------------------------------------
 #P Geom=AllCheck Guess=TCheck SCRF=Check GenChk RB97D3/def2TZVP Freq
 --------------------------------------------------------------------

 Structure from the checkpoint file:  "cp.chk"
 -----
 Title
 -----
 Charge =  0 Multiplicity = 1

 SCF Done:  E(RB97D3) =  -1146.50317213     A.U. after    1 cycles

  Exact polarizability: 388.046  -0.500 447.412 -24.005  -0.605 273.327
 Approx polarizability: 491.932  -0.671 567.669 -48.483  -0.823 375.403

                      1                      2                      3
                      A                      A                      A
 Frequencies --     31.2792                36.9552                64.3228
 Red. masses --      5.9822                 3.7245                 5.8175
 Frc consts  --      0.0034                 0.0030                 0.0142
 IR Inten    --      1.2833                 0.0144                 3.1483

                      4                      5                      6
                      A                      A                      A
 Frequencies --     78.7463               141.5593               152.3282
 Red. masses --      4.6757                 4.1967                 4.3894
 Frc consts  --      0.0171                 0.0495                 0.0600
 IR Inten    --      0.0031                 0.5982                 2.3759

                      7                      8                      9
                      A                      A                      A
 Frequencies --    178.5917               223.1808               253.3830
 Red. masses --      5.1907                 5.8964                 5.1730
 Frc consts  --      0.0975                 0.1730                 0.1957
 IR Inten    --      0.2986                 3.6311                 0.5649

                     10                     11                     12
                      A                      A                      A
 Frequencies --    312.9074               315.0689               345.8435
 Red. masses --      5.5629                 5.0116                 6.0551
 Frc consts  --      0.3209                 0.2931                 0.4267
 IR Inten    --      4.2870                 3.5658                 4.2381

                     13                     14                     15
                      A                      A                      A
 Frequencies --    384.2931               390.8293               409.2230
 Red. masses --      4.9747                 9.7873                 3.0664
 Frc consts  --      0.4329                 0.8808                 0.3025
 IR Inten    --      1.2677                 3.9434                 0.0664

                     16                     17                     18
                      A                      A                      A
 Frequencies --    439.0226               445.9755               463.1635
 Red. masses --      7.6643                 3.9034                 3.7949
 Frc consts  --      0.8704                 0.4574                 0.4796
 IR Inten    --      0.7021                 0.7787                36.0539

                     19                     20                     21
                      A                      A                      A
 Frequencies --    491.2411               526.6605               527.6685
 Red. masses --      2.9908                 5.4178                 4.1771
 Frc consts  --      0.4252                 0.8854                 0.6852
 IR Inten    --     11.2437                 0.7772                 2.4222

                     22                     23                     24
                      A                      A                      A
 Frequencies --    559.4353               619.1795               623.8937
 Red. masses --      4.9588                 6.1915                 5.5367
 Frc consts  --      0.9144                 1.3985                 1.2698
 IR Inten    --      7.5935                 0.6525                41.6846

                     25                     26                     27
                      A                      A                      A
 Frequencies --    627.4245               680.1716               686.2224
 Red. masses --      6.6512                 6.1966                 2.0204
 Frc consts  --      1.5427                 1.6890                 0.5605
 IR Inten    --     12.0568                 0.8979                59.3312

                     28                     29                     30
                      A                      A                      A
 Frequencies --    691.5942               730.9580               732.1252
 Red. masses --      6.4362                 2.2757                 2.4639
 Frc consts  --      1.8138                 0.7164                 0.7781
 IR Inten    --     12.6389                62.3542                15.3312

                     31                     32                     33
                      A                      A                      A
 Frequencies --    734.7831               743.8742               744.7618
 Red. masses --      2.2320                 2.5098                 1.6646
 Frc consts  --      0.7100                 0.8183                 0.5440
 IR Inten    --     99.9836                59.8136                31.8782

                     34                     35                     36
                      A                      A                      A
 Frequencies --    755.4977               809.4271               854.0952
 Red. masses --      2.3189                 1.2548                 1.4463
 Frc consts  --      0.7798                 0.4844                 0.6216
 IR Inten    --     61.5135                 0.6100                 4.7544

                     37                     38                     39
                      A                      A                      A
 Frequencies --    856.1556               865.5582               915.5619
 Red. masses --      1.3670                 1.4672                 3.1950
 Frc consts  --      0.5904                 0.6476                 1.5779
 IR Inten    --      0.0828                12.5862                 2.1236

                     40                     41                     42
                      A                      A                      A
 Frequencies --    916.8129               935.3492               940.3314
 Red. masses --      4.6398                 1.4853                 1.6784
 Frc consts  --      2.2978                 0.7656                 0.8744
 IR Inten    --      0.0163                 1.3953                 5.1119

                     43                     44                     45
                      A                      A                      A
 Frequencies --    944.2885               950.8291               959.2185
 Red. masses --      1.3401                 1.2246                 1.2727
 Frc consts  --      0.7041                 0.6523                 0.6900
 IR Inten    --      0.4419                 0.2089                 0.1733

                     46                     47                     48
                      A                      A                      A
 Frequencies --    959.9736               989.1224              1031.5075
 Red. masses --      1.2800                 5.5214                 3.1257
 Frc consts  --      0.6950                 3.1827                 1.9595
 IR Inten    --      0.0910                12.0793                46.7718

                     49                     50                     51
                      A                      A                      A
 Frequencies --   1032.6449              1035.9780              1054.1091
 Red. masses --      2.5346                 2.2877                 2.9136
 Frc consts  --      1.5924                 1.4466                 1.9075
 IR Inten    --     11.6422                24.9227                10.6512

                     52                     53                     54
                      A                      A                      A
 Frequencies --   1071.0453              1097.3687              1116.5611
 Red. masses --      4.0579                 1.5752                 1.6521
 Frc consts  --      2.7426                 1.1176                 1.2135
 IR Inten    --     19.6991                 2.0416                32.0416

                     55                     56                     57
                      A                      A                      A
 Frequencies --   1123.7403              1154.0109              1154.0728
 Red. masses --      1.6211                 1.0823                 1.0742
 Frc consts  --      1.2061                 0.8492                 0.8430
 IR Inten    --      7.1116                 0.2695                 0.5626

                     58                     59                     60
                      A                      A                      A
 Frequencies --   1154.1642              1185.7936              1190.3933
 Red. masses --      1.0811                 2.5823                 1.2057
 Frc consts  --      0.8485                 2.1393                 1.0066
 IR Inten    --      0.2216                51.5315                11.3917

                     61                     62                     63
                      A                      A                      A
 Frequencies --   1226.8548              1259.3470              1275.3923
 Red. masses --      2.0888                 2.0753                 2.0905
 Frc consts  --      1.8524                 1.9392                 2.0035
 IR Inten    --     89.1229               315.9298                82.8115

                     64                     65                     66
                      A                      A                      A
 Frequencies --   1284.8005              1312.1079              1326.9206
 Red. masses --      2.7863                 7.2603                 9.6131
 Frc consts  --      2.7098                 7.3645                 9.9725
 IR Inten    --    327.1643                 4.7875                19.7166

                     67                     68                     69
                      A                      A                      A
 Frequencies --   1331.3464              1347.8932              1435.1942
 Red. masses --      4.9954                 1.6336                 2.1198
 Frc consts  --      5.2168                 1.7487                 2.5726
 IR Inten    --      0.2076                16.1514                 0.0072

                     70                     71                     72
                      A                      A                      A
 Frequencies --   1442.9331              1453.9483              1458.0420
 Red. masses --      2.1983                 2.4471                 2.5718
 Frc consts  --      2.6967                 3.0479                 3.2213
 IR Inten    --     54.5385               230.9171                13.9457

                     73                     74                     75
                      A                      A                      A
 Frequencies --   1474.0559              1492.2970              1560.9659
 Red. masses --      2.5971                 2.0748                 5.6111
 Frc consts  --      3.3248                 2.7223                 8.0553
 IR Inten    --    113.8103               251.5872                19.2853

                     76                     77                     78
                      A                      A                      A
 Frequencies --   1572.7909              1574.2242              1575.7261
 Red. masses --      5.5509                 6.6053                 5.8868
 Frc consts  --      8.0902                 9.6444                 8.6118
 IR Inten    --      2.8610                 9.7176                 3.0214

                     79                     80                     81
                      A                      A                      A
 Frequencies --   1583.0297              1602.5593              3117.1859
 Red. masses --      5.6530                 5.8681                 1.0855
 Frc consts  --      8.3465                 8.8792                 6.2145
 IR Inten    --    149.3352               125.4158                 5.2358

                     82                     83                     84
                      A                      A                      A
 Frequencies --   3122.8998              3127.3310              3127.3677
 Red. masses --      1.0897                 1.0859                 1.0859
 Frc consts  --      6.2613                 6.2572                 6.2574
 IR Inten    --     31.2927                 0.1658                 0.1496

                     85                     86                     87
                      A                      A                      A
 Frequencies --   3135.2744              3135.3850              3143.0843
 Red. masses --      1.0893                 1.0894                 1.0950
 Frc consts  --      6.3090                 6.3099                 6.3738
 IR Inten    --      6.4107                11.1181                50.8979

                     88                     89                     90
                      A                      A                      A
 Frequencies --   3144.6977              3144.8220              3152.9765
 Red. masses --      1.0932                 1.0933                 1.0970
 Frc consts  --      6.3694                 6.3705                 6.4251
 IR Inten    --     27.5032                24.7621                22.4726

                     91                     92                     93
                      A                      A                      A
 Frequencies --   3153.2314              3169.6746              3169.8032
 Red. masses --      1.0969                 1.0900                 1.0907
 Frc consts  --      6.4260                 6.4522                 6.4567
 IR Inten    --      9.9292                12.0615                 2.6396

 - Thermochemistry -
 -------------------
 Temperature   298.150 Kelvin.  Pressure   1.00000 Atm.
 Atom     1 has atomic number  6 and mass  12.00000

 Molecular mass:   275.07687 amu.
 Principal axes and moments of inertia in atomic units:
                           1         2         3
     Eigenvalues --  4800.442225238.207508413.00215
           X            0.99946  -0.00444  -0.03267
           Y            0.00452   0.99999   0.00226
           Z            0.03266  -0.00241   0.99946
 This molecule is an asymmetric top.
 Rotational symmetry number  1.
 Warning -- assumption of classical behavior for rotation
           may cause significant error
 Rotational temperatures (Kelvin)      0.01804     0.01654     0.01030
 Rotational constants (GHZ):           0.37595     0.34453     0.21452
 Zero-point vibrational energy     663176.4 (Joules/Mol)
                                  158.50297 (Kcal/Mol)
 Warning -- explicit consideration of  23 degrees of freedom as
           vibrations may cause significant error
 Vibrational temperatures:     45.00    53.17    92.55   113.30   203.67
          (Kelvin)            219.17   256.95   321.11   364.56   450.20
                              453.31   497.59   552.91   562.32   588.78
                              631.65   641.66   666.39   706.79   757.75
                              759.20   804.90   890.86   897.64   902.72
                              978.61   987.32   995.05  1051.68  1053.36
                             1057.19  1070.27  1071.54  1086.99  1164.58
                             1228.85  1231.82  1245.34  1317.29  1319.09
                             1345.76  1352.93  1358.62  1368.03  1380.10
                             1381.19  1423.12  1484.11  1485.74  1490.54
                             1516.63  1540.99  1578.87  1606.48  1616.81
                             1660.36  1660.45  1660.58  1706.09  1712.71
                             1765.17  1811.92  1835.00  1848.54  1887.83
                             1909.14  1915.51  1939.32  2064.92  2076.06
                             2091.90  2097.79  2120.83  2147.08  2245.88
                             2262.89  2264.95  2267.12  2277.62  2305.72
                             4484.93  4493.15  4499.53  4499.58  4510.95
                             4511.11  4522.19  4524.51  4524.69  4536.42
                             4536.79  4560.45  4560.63

 Zero-point correction=                           0.252591 (Hartree/Particle)
 Thermal correction to Energy=                    0.267902
 Thermal correction to Enthalpy=                  0.268846
 Thermal correction to Gibbs Free Energy=         0.209194
 Sum of electronic and zero-point Energies=          -1146.250582
 Sum of electronic and thermal Energies=             -1146.235270
 Sum of electronic and thermal Enthalpies=           -1146.234326
 Sum of electronic and thermal Free Energies=        -1146.293978

                     E (Thermal)             CV                S
                      KCal/Mol        Cal/Mol-Kelvin    Cal/Mol-Kelvin
 Total                  168.111             63.276            125.548
 Electronic               0.000              0.000              0.000
 Translational            0.889              2.981             42.734
 Rotational               0.889              2.981             33.714
 Vibrational            166.334             57.314             49.100
 Vibration     1          0.594              1.983              5.747
 Vibration     2          0.594              1.982              5.416
 Vibration     3          0.597              1.971              4.320
 Vibration     4          0.600              1.963              3.922
 Vibration     5          0.615              1.912              2.783
 Vibration     6          0.619              1.900              2.643
 Vibration     7          0.629              1.869              2.343
 Vibration     8          0.649              1.806              1.933
 Vibration     9          0.665              1.757              1.707
 Vibration    10          0.701              1.649              1.347
 Vibration    11          0.702              1.645              1.336
 Vibration    12          0.724              1.584              1.185
 Vibration    13          0.753              1.504              1.022
 Vibration    14          0.759              1.490              0.997
 Vibration    15          0.774              1.450              0.929
 Vibration    16          0.799              1.385              0.830
 Vibration    17          0.805              1.370              0.808
 Vibration    18          0.821              1.332              0.757
 Vibration    19          0.847              1.269              0.680
 Vibration    20          0.882              1.191              0.595
 Vibration    21          0.883              1.189              0.592
 Vibration    22          0.915              1.119              0.525
 Vibration    23          0.979              0.991              0.418

 Optimization completed.
    -- Stationary point found.

 1\1\GINC-CN005\Freq\RB97D3\def2TZVP\C18H13N1S1\PNG4RJV\30-Mar-2021\0\\
 #P Geom=AllCheck Guess=TCheck SCRF=Check GenChk RB97D3/def2TZVP Freq\\
 Title\\0,1\C,-1.96426216,3.554533354,-0.4123670137\C,-2.2535345779,2.5
 182560408,0.4746195928\C,-1.4861196255,1.3487697926,0.4471746716\C,-0.
 4341149466,1.2127427078,-0.4729861084\C,-0.1905100781,2.2341424889,-1.
 395242427\C,-0.9411674767,3.4086172535,-1.3537768387\C,-0.4179078315,-
 1.1910080761,-0.4673669875\C,-1.4676638228,-1.3371957351,0.4538033032\
 C,-2.2184740957,-2.5172645481,0.4873132949\H,-3.036108881,-2.618176569

 Normal termination of Gaussian 09 at Tue Mar 30 06:48:17 2021.
 Gaussian 09:  ES64L-G09RevE.01 30-Nov-2015

 ----------------------------------------------------------------------
 #p B97D3 chkbasis geom=allcheck Guess=Read int=ultrafine scrf=(SMD,sol
 vent=n,n-DiMethylAcetamide) td=(NStates=30)
 ----------------------------------------------------------------------

 Structure from the checkpoint file:  "cp.chk"
 -----
 Title
 -----
 Charge =  0 Multiplicity = 1

                         Standard orientation:
 ---------------------------------------------------------------------
 Center     Atomic      Atomic             Coordinates (Angstroms)
 Number     Number       Type             X           Y           Z
 ---------------------------------------------------------------------
      1          6           0       -1.983016   -3.548860    0.323117
      2          6           0       -2.243727   -2.511645   -0.571595
      3          6           0       -1.482669   -1.339139   -0.513311
      4          6           0       -0.465802   -1.201062    0.445245
      5          6           0       -0.252087   -2.223668    1.373556
      6          6           0       -0.995862   -3.401061    1.301866
      7          6           0       -0.459308    1.202741    0.445601
      8          6           0       -1.475054    1.346887   -0.513250
      9          6           0       -2.228981    2.523992   -0.571731
     10          1           0       -3.020383    2.623294   -1.310168
     11          6           0       -1.962384    3.559550    0.323169
     12          6           0       -0.976686    3.405676    1.302444
     13          6           0       -0.240008    2.223840    1.374265
     14          1           0       -3.036137   -2.605901   -1.309635
     15          1           0        0.512248   -2.094108    2.134310
     16          1           0       -0.810766   -4.198765    2.016216
     17          1           0       -2.542575    4.477027    0.269996
     18          1           0       -0.787108    4.202187    2.016947
     19          6           0        1.668441   -0.004580    0.105004
     20          6           0        2.369824    1.201783   -0.094214
     21          6           0        3.716503    1.190053   -0.452036
     22          6           0        3.710878   -1.208571   -0.452358
     23          6           0        4.406420   -0.010860   -0.629086
     24          1           0        4.226610    2.139778   -0.598397
     25          1           0        4.216591   -2.160606   -0.598954
     26          1           0        1.863814    2.153149    0.017929
     27          1           0        5.457400   -0.013300   -0.905124
     28          1           0       -2.568751   -4.462826    0.270195
     29          7           0        0.305209   -0.001232    0.467002
     30          1           0        0.523297    2.089626    2.135238
     31         16           0       -1.803004    0.004807   -1.627308
     32          6           0        2.364111   -1.214167   -0.094617
     33          1           0        1.853810   -2.163304    0.016950
 ---------------------------------------------------------------------

 SCF Done:  E(RB97D3) =  -1146.50317249     A.U. after    7 cycles

 Excitation energies and oscillator strengths:

 Excited State   1:      Singlet-A      3.3408 eV  371.12 nm  f=0.0351  <S**2>=0.000
      72 -> 73         0.68344
      72 -> 75         0.16033
 This state for optimization and/or second-order correction.
 Total Energy, E(TD-HF/TD-KS) =  -1146.38040094
 Copying the excited state density for this state as the 1-particle RhoCI density.

 Excited State   2:      Singlet-A      3.3916 eV  365.57 nm  f=0.0000  <S**2>=0.000
      72 -> 74         0.70346

 Excited State   3:      Singlet-A      3.5416 eV  350.08 nm  f=0.0066  <S**2>=0.000
      72 -> 76         0.68953
      72 -> 77         0.11478

 Excited State   4:      Singlet-A      3.5639 eV  347.89 nm  f=0.1104  <S**2>=0.000
      72 -> 73        -0.16187
      72 -> 75         0.67209

 Excited State   5:      Singlet-A      4.0216 eV  308.30 nm  f=0.0071  <S**2>=0.000
      71 -> 74        -0.13660
      71 -> 76         0.25295
      72 -> 77         0.62132

 Excited State   6:      Singlet-A      4.0355 eV  307.24 nm  f=0.0120  <S**2>=0.000
      71 -> 73         0.68688

 Excited State   7:      Singlet-A      4.2035 eV  294.95 nm  f=0.0366  <S**2>=0.000
      71 -> 74         0.38761
      71 -> 76         0.55765
      72 -> 77        -0.12556

 Excited State   8:      Singlet-A      4.2449 eV  292.08 nm  f=0.1794  <S**2>=0.000
      67 -> 75         0.10989
      70 -> 73        -0.10429
      71 -> 74         0.54953
      71 -> 76        -0.32275
      72 -> 77         0.23244

 Excited State   9:      Singlet-A      4.3585 eV  284.47 nm  f=0.0227  <S**2>=0.000
      67 -> 74         0.16417
      71 -> 75         0.63030
      71 -> 78         0.11253
      72 -> 78        -0.19710

 Excited State  10:      Singlet-A      4.5397 eV  273.11 nm  f=0.0002  <S**2>=0.000
      72 -> 79         0.70004

 Excited State  11:      Singlet-A      4.5628 eV  271.73 nm  f=0.1517  <S**2>=0.000
      71 -> 75         0.20874
      71 -> 78        -0.29543
      72 -> 78         0.57064

 Excited State  12:      Singlet-A      4.6164 eV  268.57 nm  f=0.0014  <S**2>=0.000
      67 -> 73        -0.11807
      70 -> 73        -0.11604
      71 -> 77         0.66333

 Excited State  13:      Singlet-A      4.7237 eV  262.47 nm  f=0.0254  <S**2>=0.000
      69 -> 73         0.14379
      70 -> 73         0.65707
      70 -> 75         0.13273

 Excited State  14:      Singlet-A      4.8039 eV  258.09 nm  f=0.0019  <S**2>=0.000
      69 -> 74         0.18371
      70 -> 74         0.66875

 Excited State  15:      Singlet-A      4.8922 eV  253.43 nm  f=0.0053  <S**2>=0.000
      68 -> 76        -0.12003
      69 -> 73         0.10455
      69 -> 75         0.14428
      70 -> 73        -0.12140
      70 -> 75         0.64653

 Excited State  16:      Singlet-A      4.9362 eV  251.17 nm  f=0.0178  <S**2>=0.000
      68 -> 73         0.34219
      69 -> 76        -0.19443
      70 -> 76         0.31000
      71 -> 78         0.44634
      72 -> 78         0.14849

 Excited State  17:      Singlet-A      4.9621 eV  249.86 nm  f=0.0378  <S**2>=0.000
      67 -> 73         0.15555
      67 -> 75        -0.15044
      68 -> 74        -0.11965
      68 -> 76        -0.24968
      68 -> 77        -0.10029
      69 -> 73         0.56415
      70 -> 75        -0.15485

 Excited State  18:      Singlet-A      4.9875 eV  248.59 nm  f=0.0198  <S**2>=0.000
      67 -> 74        -0.12401
      68 -> 73         0.14414
      68 -> 75         0.28182
      69 -> 74         0.38075
      69 -> 76        -0.36493
      71 -> 78        -0.25912
      72 -> 78        -0.14051

 Excited State  19:      Singlet-A      5.0134 eV  247.31 nm  f=0.0007  <S**2>=0.000
      67 -> 73         0.17819
      67 -> 75        -0.12827
      68 -> 74         0.36868
      69 -> 75         0.54369

 Excited State  20:      Singlet-A      5.0158 eV  247.19 nm  f=0.0261  <S**2>=0.000
      67 -> 76        -0.10887
      68 -> 73        -0.27767
      68 -> 75         0.11078
      69 -> 74         0.16247
      69 -> 76         0.30223
      70 -> 76         0.44512
      70 -> 77         0.25150

 Excited State  21:      Singlet-A      5.0847 eV  243.84 nm  f=0.1475  <S**2>=0.000
      67 -> 74        -0.12169
      67 -> 76        -0.13583
      68 -> 75         0.21772
      68 -> 78        -0.11121
      69 -> 74         0.32174
      69 -> 76         0.20106
      69 -> 77        -0.10457
      70 -> 76        -0.29233
      70 -> 77        -0.16514
      71 -> 78         0.30825
      72 -> 78         0.16357

 Excited State  22:      Singlet-A      5.0904 eV  243.57 nm  f=0.0001  <S**2>=0.000
      67 -> 73         0.49180
      68 -> 74        -0.39997
      68 -> 76         0.27433

 Excited State  23:      Singlet-A      5.1642 eV  240.08 nm  f=0.0015  <S**2>=0.000
      67 -> 76         0.44353
      68 -> 73         0.26118
      68 -> 75         0.36047
      69 -> 76         0.23797
      69 -> 77        -0.13172
      70 -> 77         0.13616

 Excited State  24:      Singlet-A      5.2309 eV  237.02 nm  f=0.0001  <S**2>=0.000
      67 -> 75        -0.21202
      71 -> 79         0.66801

 Excited State  25:      Singlet-A      5.3119 eV  233.41 nm  f=0.0078  <S**2>=0.000
      67 -> 76         0.31198
      68 -> 73        -0.26508
      68 -> 75         0.17439
      69 -> 76        -0.16891
      69 -> 77         0.45170
      70 -> 77        -0.15791
      71 -> 78         0.10424

 Excited State  26:      Singlet-A      5.3673 eV  231.00 nm  f=0.0036  <S**2>=0.000
      66 -> 74        -0.14633
      67 -> 75         0.37960
      68 -> 74        -0.22148
      68 -> 76        -0.33186
      69 -> 73        -0.13296
      69 -> 75         0.24965
      69 -> 78         0.15653
      70 -> 75        -0.10658
      71 -> 79         0.18902

 Excited State  27:      Singlet-A      5.4414 eV  227.85 nm  f=0.0315  <S**2>=0.000
      67 -> 74         0.36558
      67 -> 76        -0.23802
      67 -> 77         0.37290
      68 -> 75         0.22325
      69 -> 77         0.19521
      70 -> 77        -0.18797

 Excited State  28:      Singlet-A      5.4971 eV  225.54 nm  f=0.0913  <S**2>=0.000
      66 -> 74         0.13615
      67 -> 73         0.15423
      67 -> 75        -0.23125
      68 -> 76        -0.31657
      68 -> 77         0.38096
      69 -> 73        -0.14859
      69 -> 75        -0.12253
      70 -> 78         0.30123

 Excited State  29:      Singlet-A      5.5227 eV  224.50 nm  f=0.0066  <S**2>=0.000
      72 -> 80         0.68517

 Excited State  30:      Singlet-A      5.5768 eV  222.32 nm  f=0.0725  <S**2>=0.000
      66 -> 75        -0.21968
      67 -> 74         0.39901
      67 -> 77        -0.24311
      68 -> 75        -0.19905
      69 -> 74         0.26839
      69 -> 77         0.13729
      70 -> 74        -0.11420
      71 -> 75        -0.13220
      72 -> 80         0.13207

 The electronic state is 1-A.
 Alpha  occ. eigenvalues --  -88.02692 -14.03193  -9.95017  -9.95016  -9.94965
 Alpha  occ. eigenvalues --   -9.94245  -9.94244  -9.91191  -9.91191  -9.90924
 Alpha  occ. eigenvalues --   -9.90924  -9.90715  -9.90715  -9.90644  -9.90644
 Alpha  occ. eigenvalues --   -9.89990  -9.89990  -9.89596  -9.89595  -9.89136
 Alpha  occ. eigenvalues --   -7.72884  -5.76062  -5.75654  -5.75019  -0.89768
 Alpha  occ. eigenvalues --   -0.79456  -0.79186  -0.76723  -0.73626  -0.69657
 Alpha  occ. eigenvalues --   -0.68756  -0.68627  -0.67222  -0.65738  -0.62319
 Alpha  occ. eigenvalues --   -0.57406  -0.57296  -0.54729  -0.53911  -0.53883
 Alpha  occ. eigenvalues --   -0.50838  -0.48638  -0.48355  -0.44455  -0.43298
 Alpha  occ. eigenvalues --   -0.42961  -0.41911  -0.41338  -0.39797  -0.39313
 Alpha  occ. eigenvalues --   -0.39094  -0.38080  -0.37883  -0.36912  -0.36267
 Alpha  occ. eigenvalues --   -0.34872  -0.33391  -0.33340  -0.33107  -0.31819
 Alpha  occ. eigenvalues --   -0.31219  -0.30910  -0.30156  -0.29360  -0.27829
 Alpha  occ. eigenvalues --   -0.26865  -0.23663  -0.23555  -0.22884  -0.22504
 Alpha  occ. eigenvalues --   -0.19686  -0.17237
 Alpha virt. eigenvalues --   -0.05294  -0.04916  -0.04688  -0.04603  -0.02988
 Alpha virt. eigenvalues --   -0.01994  -0.00652   0.02846   0.04621   0.05768
 Alpha virt. eigenvalues --    0.05893   0.06723   0.07247   0.07564   0.08398

 Mulliken charges:
               1
     1  C   -0.152198
     2  C   -0.158529
     3  C   -0.023011
     4  C    0.208066
     5  C   -0.297941
     6  C   -0.075713
     7  C    0.208040
     8  C   -0.022998
     9  C   -0.158560
    10  H    0.133933
    11  C   -0.152238
    12  C   -0.075767
    13  C   -0.297884
    14  H    0.133920
    15  H    0.136705
    16  H    0.136650
    17  H    0.137544
    18  H    0.136650
    19  C    0.209741
    20  C   -0.273655
    21  C   -0.122859
    22  C   -0.122692
    23  C   -0.200303
    24  H    0.131456
    25  H    0.131464
    26  H    0.144818
    27  H    0.127634
    28  H    0.137539
    29  N    0.092949
    30  H    0.136715
    31  S   -0.080376
    32  C   -0.273880
    33  H    0.144781
 Sum of Mulliken charges =  -0.00000

 Dipole moment (field-independent basis, Debye):
    X=             -1.2441    Y=              0.0030    Z=              1.7891  Tot=              2.1792
 Quadrupole moment (field-independent basis, Debye-Ang):
   XX=           -119.0811   YY=           -100.7952   ZZ=           -123.2900
   XY=              0.0508   XZ=              2.9216   YZ=             -0.0104

 Normal termination of Gaussian 09 at Tue Mar 30 07:47:10 2021.
