 Gaussian 09, Revision E.01,

 ----------------------------------------------------------------------
 #p m062x/def2TZVP opt freq=noraman nosymm int=ultrafine scrf=(SMD,solv
 ent=n,n-DiMethylAcetamide)
 ----------------------------------------------------------------------

 -----
 Title
 -----
 Symbolic Z-matrix:
 Charge =  0 Multiplicity = 1

 SCF Done:  E(RM062X) =  -1146.66204369     A.U. after   14 cycles
 SCF Done:  E(RM062X) =  -1146.66439582     A.U. after   10 cycles
 SCF Done:  E(RM062X) =  -1146.66443551     A.U. after    9 cycles
 SCF Done:  E(RM062X) =  -1146.66444020     A.U. after    8 cycles
 SCF Done:  E(RM062X) =  -1146.66444415     A.U. after    9 cycles
 SCF Done:  E(RM062X) =  -1146.66444869     A.U. after   10 cycles
 SCF Done:  E(RM062X) =  -1146.66445302     A.U. after    9 cycles
 SCF Done:  E(RM062X) =  -1146.66445762     A.U. after   10 cycles
 SCF Done:  E(RM062X) =  -1146.66445856     A.U. after    8 cycles
 Optimization completed.
    -- Stationary point found.

 1\1\GINC-CN066\FOpt\RM062X\def2TZVP\C18H13N1S1\PNG4RJV\23-Feb-2021\0\\
 #p m062x/def2TZVP opt freq=noraman nosymm int=ultrafine scrf=(SMD,solv
 ent=n,n-DiMethylAcetamide)\\Title\\0,1\C,-1.9431478512,3.5349315275,-0
 .3970069785\C,-2.195504444,2.5028735314,0.494025994\C,-1.4322948648,1.
 3413284265,0.4358480523\C,-0.4244917048,1.2082486212,-0.517998125\C,-0
 .2104961174,2.2285030483,-1.4373518897\C,-0.9570369589,3.3950821921,-1
 .3675411416\C,-0.4084554597,-1.187278525,-0.5121751988\C,-1.4142480023
 ,-1.3292394542,0.4425432186\C,-2.1615558797,-2.5007712876,0.5067371839

 Normal termination of Gaussian 09 at Tue Feb 23 13:48:28 2021.

 --------------------------------------------------------------------
 #P Geom=AllCheck Guess=TCheck SCRF=Check GenChk RM062X/def2TZVP Freq
 --------------------------------------------------------------------

 Structure from the checkpoint file:  "cp.chk"
 -----
 Title
 -----
 Charge =  0 Multiplicity = 1

 SCF Done:  E(RM062X) =  -1146.66445856     A.U. after    1 cycles

  Exact polarizability: 346.287  -0.510 409.165 -22.072  -0.462 266.582
 Approx polarizability: 295.406  -0.395 341.975 -24.432  -0.347 253.348

                      1                      2                      3
                      A                      A                      A
 Frequencies --     20.5597                41.0170                67.0883
 Red. masses --      6.1784                 3.7044                 5.7100
 Frc consts  --      0.0015                 0.0037                 0.0151
 IR Inten    --      1.0298                 0.0133                 3.6376

                      4                      5                      6
                      A                      A                      A
 Frequencies --     81.9946               144.8818               159.5639
 Red. masses --      4.7219                 4.1341                 4.4031
 Frc consts  --      0.0187                 0.0511                 0.0661
 IR Inten    --      0.0076                 0.2198                 1.5174

                      7                      8                      9
                      A                      A                      A
 Frequencies --    186.4350               232.4743               265.0785
 Red. masses --      5.1290                 5.7775                 5.0631
 Frc consts  --      0.1050                 0.1840                 0.2096
 IR Inten    --      0.3416                 2.5782                 0.0684

                     10                     11                     12
                      A                      A                      A
 Frequencies --    320.0189               323.7001               352.8545
 Red. masses --      5.6073                 4.9946                 5.7915
 Frc consts  --      0.3383                 0.3083                 0.4248
 IR Inten    --      2.6093                 4.2663                 5.4042

                     13                     14                     15
                      A                      A                      A
 Frequencies --    392.7246               408.8819               422.4670
 Red. masses --      5.0843                 9.7200                 2.9625
 Frc consts  --      0.4620                 0.9574                 0.3115
 IR Inten    --      0.5861                 6.8370                 0.0231

                     16                     17                     18
                      A                      A                      A
 Frequencies --    453.2308               459.7418               478.9371
 Red. masses --     10.3231                 3.3248                 3.8021
 Frc consts  --      1.2494                 0.4140                 0.5138
 IR Inten    --      0.6755                 0.0132                38.7932

                     19                     20                     21
                      A                      A                      A
 Frequencies --    511.4024               543.7003               547.2447
 Red. masses --      2.9678                 5.1315                 4.0105
 Frc consts  --      0.4573                 0.8937                 0.7076
 IR Inten    --      9.7235                 1.1744                 1.9535

                     22                     23                     24
                      A                      A                      A
 Frequencies --    582.6950               628.2975               635.9918
 Red. masses --      4.9270                 6.1139                 5.1791
 Frc consts  --      0.9856                 1.4220                 1.2343
 IR Inten    --      9.8721                 0.1614                41.0211

                     25                     26                     27
                      A                      A                      A
 Frequencies --    638.9594               695.4506               712.7886
 Red. masses --      6.5098                 6.3387                 6.4845
 Frc consts  --      1.5659                 1.8063                 1.9411
 IR Inten    --     11.5640                 1.8101                10.4320

                     28                     29                     30
                      A                      A                      A
 Frequencies --    716.5955               752.4048               766.3950
 Red. masses --      1.8702                 5.0287                 2.6082
 Frc consts  --      0.5658                 1.6773                 0.9026
 IR Inten    --     59.0484                 8.2988                15.1683

                     31                     32                     33
                      A                      A                      A
 Frequencies --    773.8266               779.8663               784.9740
 Red. masses --      2.1584                 1.7058                 1.5220
 Frc consts  --      0.7615                 0.6113                 0.5525
 IR Inten    --    124.9410                78.4744                28.0280

                     34                     35                     36
                      A                      A                      A
 Frequencies --    795.2880               854.3917               901.5811
 Red. masses --      2.0487                 1.2561                 1.5698
 Frc consts  --      0.7634                 0.5403                 0.7518
 IR Inten    --     97.0126                 0.2193                 4.9835

                     37                     38                     39
                      A                      A                      A
 Frequencies --    906.6842               923.5980               941.9841
 Red. masses --      1.4113                 1.4627                 5.7739
 Frc consts  --      0.6836                 0.7351                 3.0186
 IR Inten    --      0.0396                12.6903                 1.3745

                     40                     41                     42
                      A                      A                      A
 Frequencies --    947.7015               994.7890               997.2691
 Red. masses --      3.8837                 1.3935                 1.4499
 Frc consts  --      2.0551                 0.8125                 0.8496
 IR Inten    --      3.3709                 1.7395                 5.7094

                     43                     44                     45
                      A                      A                      A
 Frequencies --   1007.9852              1008.0479              1023.7206
 Red. masses --      2.5920                 1.8483                 1.3021
 Frc consts  --      1.5517                 1.1066                 0.8040
 IR Inten    --      2.2976                 1.3993                 0.4681

                     46                     47                     48
                      A                      A                      A
 Frequencies --   1029.5223              1030.1114              1063.8285
 Red. masses --      1.3322                 1.3358                 2.7896
 Frc consts  --      0.8320                 0.8352                 1.8601
 IR Inten    --      0.0226                 0.0053                31.8804

                     49                     50                     51
                      A                      A                      A
 Frequencies --   1065.0186              1070.8080              1087.7448
 Red. masses --      2.3714                 2.2489                 2.7501
 Frc consts  --      1.5848                 1.5193                 1.9172
 IR Inten    --      9.1100                21.8224                 5.2873

                     52                     53                     54
                      A                      A                      A
 Frequencies --   1100.7489              1127.8386              1149.6405
 Red. masses --      3.5527                 1.5027                 1.5399
 Frc consts  --      2.5362                 1.1262                 1.1991
 IR Inten    --     17.9654                 3.0559                20.1292

                     55                     56                     57
                      A                      A                      A
 Frequencies --   1154.9499              1169.9064              1170.5665
 Red. masses --      1.5322                 1.1238                 1.1501
 Frc consts  --      1.2042                 0.9062                 0.9285
 IR Inten    --      4.6158                 2.1946                 1.1406

                     58                     59                     60
                      A                      A                      A
 Frequencies --   1170.9831              1214.9552              1220.2147
 Red. masses --      1.1298                 1.3214                 2.1148
 Frc consts  --      0.9128                 1.1492                 1.8552
 IR Inten    --      1.7588                46.2507                16.7313

                     61                     62                     63
                      A                      A                      A
 Frequencies --   1267.0395              1293.4702              1297.1483
 Red. masses --      1.7984                 1.7311                 5.8930
 Frc consts  --      1.7011                 1.7064                 5.8420
 IR Inten    --     41.7060               127.5980                 1.6572

                     64                     65                     66
                      A                      A                      A
 Frequencies --   1303.5554              1304.2881              1332.8042
 Red. masses --      4.7928                 4.0739                 4.3697
 Frc consts  --      4.7985                 4.0833                 4.5733
 IR Inten    --     48.2767                48.0553               406.3023

                     67                     68                     69
                      A                      A                      A
 Frequencies --   1334.4613              1375.9318              1479.8264
 Red. masses --      2.9963                 1.4127                 2.3107
 Frc consts  --      3.1438                 1.5757                 2.9814
 IR Inten    --     26.6412                22.0622                 0.0258

                     70                     71                     72
                      A                      A                      A
 Frequencies --   1486.3759              1498.2526              1510.0049
 Red. masses --      2.3803                 2.4873                 2.9857
 Frc consts  --      3.0984                 3.2896                 4.0110
 IR Inten    --     65.4419                53.4787               205.7060

                     73                     74                     75
                      A                      A                      A
 Frequencies --   1524.6506              1536.0317              1633.9767
 Red. masses --      2.8287                 2.2101                 6.4663
 Frc consts  --      3.8742                 3.0723                10.1717
 IR Inten    --     89.1659               312.0029                21.5749

                     76                     77                     78
                      A                      A                      A
 Frequencies --   1645.5587              1648.9880              1650.9026
 Red. masses --      6.1578                 7.2874                 6.4267
 Frc consts  --      9.8242                11.6750                10.3201
 IR Inten    --      8.0620                 9.1295                 0.6913

                     79                     80                     81
                      A                      A                      A
 Frequencies --   1656.1622              1672.9482              3203.4953
 Red. masses --      6.0952                 6.3725                 1.0872
 Frc consts  --      9.8502                10.5081                 6.5738
 IR Inten    --    164.9297                75.4873                 3.5121

                     82                     83                     84
                      A                      A                      A
 Frequencies --   3205.6493              3205.8794              3208.7079
 Red. masses --      1.0881                 1.0882                 1.0911
 Frc consts  --      6.5881                 6.5896                 6.6190
 IR Inten    --      0.1588                 0.2352                10.4978

                     85                     86                     87
                      A                      A                      A
 Frequencies --   3209.8963              3210.0353              3219.3185
 Red. masses --      1.0908                 1.0908                 1.0938
 Frc consts  --      6.6219                 6.6223                 6.6794
 IR Inten    --      2.4568                 1.1244                 4.3648

                     88                     89                     90
                      A                      A                      A
 Frequencies --   3219.7206              3228.9368              3230.2661
 Red. masses --      1.0937                 1.0961                 1.0984
 Frc consts  --      6.6801                 6.7331                 6.7530
 IR Inten    --      4.8754                13.1992                 8.4459

                     91                     92                     93
                      A                      A                      A
 Frequencies --   3230.7698              3247.4660              3247.6618
 Red. masses --      1.0984                 1.0921                 1.0914
 Frc consts  --      6.7549                 6.7861                 6.7822
 IR Inten    --      6.4497                 0.4030                 1.3103

 - Thermochemistry -
 -------------------
 Temperature   298.150 Kelvin.  Pressure   1.00000 Atm.
 Atom     1 has atomic number  6 and mass  12.00000

 Molecular mass:   275.07687 amu.
 Principal axes and moments of inertia in atomic units:
                           1         2         3
     Eigenvalues --  4793.579715122.924958229.53812
           X            0.99892  -0.00578  -0.04600
           Y            0.00588   0.99998   0.00210
           Z            0.04599  -0.00237   0.99894
 This molecule is an asymmetric top.
 Rotational symmetry number  1.
 Warning -- assumption of classical behavior for rotation
           may cause significant error
 Rotational temperatures (Kelvin)      0.01807     0.01691     0.01052
 Rotational constants (GHZ):           0.37649     0.35229     0.21930
 Zero-point vibrational energy     683859.0 (Joules/Mol)
                                  163.44623 (Kcal/Mol)
 Warning -- explicit consideration of  22 degrees of freedom as
           vibrations may cause significant error
 Vibrational temperatures:     29.58    59.01    96.52   117.97   208.45
          (Kelvin)            229.58   268.24   334.48   381.39   460.44
                              465.73   507.68   565.04   588.29   607.83
                              652.10   661.47   689.08   735.79   782.26
                              787.36   838.37   903.98   915.05   919.32
                             1000.60  1025.54  1031.02  1082.54  1102.67
                             1113.36  1122.05  1129.40  1144.24  1229.28
                             1297.17  1304.51  1328.85  1355.30  1363.53
                             1431.28  1434.85  1450.26  1450.35  1472.90
                             1481.25  1482.10  1530.61  1532.32  1540.65
                             1565.02  1583.73  1622.71  1654.07  1661.71
                             1683.23  1684.18  1684.78  1748.05  1755.61
                             1822.99  1861.01  1866.30  1875.52  1876.58
                             1917.61  1919.99  1979.66  2129.14  2138.56
                             2155.65  2172.56  2193.63  2210.00  2350.93
                             2367.59  2372.52  2375.28  2382.85  2407.00
                             4609.11  4612.21  4612.54  4616.61  4618.32
                             4618.52  4631.88  4632.45  4645.71  4647.63
                             4648.35  4672.37  4672.66

 Zero-point correction=                           0.260468 (Hartree/Particle)
 Thermal correction to Energy=                    0.275282
 Thermal correction to Enthalpy=                  0.276226
 Thermal correction to Gibbs Free Energy=         0.217188
 Sum of electronic and zero-point Energies=          -1146.403990
 Sum of electronic and thermal Energies=             -1146.389177
 Sum of electronic and thermal Enthalpies=           -1146.388233
 Sum of electronic and thermal Free Energies=        -1146.447271

                     E (Thermal)             CV                S
                      KCal/Mol        Cal/Mol-Kelvin    Cal/Mol-Kelvin
 Total                  172.742             60.880            124.256
 Electronic               0.000              0.000              0.000
 Translational            0.889              2.981             42.734
 Rotational               0.889              2.981             33.668
 Vibrational            170.964             54.919             47.853
 Vibration     1          0.593              1.986              6.579
 Vibration     2          0.594              1.981              5.209
 Vibration     3          0.598              1.970              4.237
 Vibration     4          0.600              1.961              3.843
 Vibration     5          0.616              1.908              2.738
 Vibration     6          0.621              1.892              2.555
 Vibration     7          0.632              1.858              2.263
 Vibration     8          0.653              1.791              1.860
 Vibration     9          0.671              1.737              1.628
 Vibration    10          0.706              1.635              1.310
 Vibration    11          0.708              1.628              1.291
 Vibration    12          0.729              1.569              1.153
 Vibration    13          0.760              1.486              0.990
 Vibration    14          0.773              1.451              0.931
 Vibration    15          0.785              1.421              0.884
 Vibration    16          0.812              1.354              0.786
 Vibration    17          0.818              1.339              0.767
 Vibration    18          0.835              1.297              0.713
 Vibration    19          0.867              1.225              0.630
 Vibration    20          0.899              1.153              0.557
 Vibration    21          0.902              1.146              0.550
 Vibration    22          0.940              1.069              0.480

 Optimization completed.
    -- Stationary point found.

 1\1\GINC-CN066\Freq\RM062X\def2TZVP\C18H13N1S1\PNG4RJV\23-Feb-2021\0\\
 #P Geom=AllCheck Guess=TCheck SCRF=Check GenChk RM062X/def2TZVP Freq\\
 Title\\0,1\C,-1.9431478512,3.5349315275,-0.3970069785\C,-2.195504444,2
 .5028735314,0.494025994\C,-1.4322948648,1.3413284265,0.4358480523\C,-0
 .4244917048,1.2082486212,-0.517998125\C,-0.2104961174,2.2285030483,-1.
 4373518897\C,-0.9570369589,3.3950821921,-1.3675411416\C,-0.4084554597,
 -1.187278525,-0.5121751988\C,-1.4142480023,-1.3292394542,0.4425432186\
 C,-2.1615558797,-2.5007712876,0.5067371839\H,-2.9496428522,-2.59735104

 Normal termination of Gaussian 09 at Tue Feb 23 16:11:58 2021.
 Gaussian 09:  ES64L-G09RevE.01 30-Nov-2015

 ----------------------------------------------------------------------
 #p m062x chkbasis geom=allcheck Guess=Read int=ultrafine scrf=(SMD,sol
 vent=n,n-DiMethylAcetamide) td=(NStates=30)
 ----------------------------------------------------------------------

 Structure from the checkpoint file:  "cp.chk"
 -----
 Title
 -----
 Charge =  0 Multiplicity = 1

                         Standard orientation:
 ---------------------------------------------------------------------
 Center     Atomic      Atomic             Coordinates (Angstroms)
 Number     Number       Type             X           Y           Z
 ---------------------------------------------------------------------
      1          6           0       -1.972262   -3.532041    0.276630
      2          6           0       -2.185396   -2.499311   -0.623820
      3          6           0       -1.432632   -1.333703   -0.525007
      4          6           0       -0.474739   -1.197286    0.478503
      5          6           0       -0.301405   -2.218492    1.405336
      6          6           0       -1.036910   -3.389014    1.295731
      7          6           0       -0.471942    1.198300    0.478429
      8          6           0       -1.429334    1.336932   -0.525284
      9          6           0       -2.179074    2.504461   -0.624499
     10          1           0       -2.929722    2.598406   -1.399680
     11          6           0       -1.963470    3.536825    0.275788
     12          6           0       -1.028844    3.391547    1.295217
     13          6           0       -0.296377    2.219136    1.405236
     14          1           0       -2.936481   -2.591399   -1.398806
     15          1           0        0.427619   -2.090211    2.196200
     16          1           0       -0.886191   -4.186895    2.011315
     17          1           0       -2.541901    4.448015    0.193388
     18          1           0       -0.876262    4.189155    2.010711
     19          6           0        1.644451   -0.001925    0.145823
     20          6           0        2.336560    1.198716   -0.060859
     21          6           0        3.669335    1.188178   -0.444432
     22          6           0        3.665999   -1.196598   -0.446520
     23          6           0        4.351634   -0.004995   -0.637794
     24          1           0        4.174436    2.134326   -0.597053
     25          1           0        4.168510   -2.143853   -0.600828
     26          1           0        1.838374    2.148335    0.068505
     27          1           0        5.391725   -0.006206   -0.936036
     28          1           0       -2.553093   -4.441742    0.194640
     29          7           0        0.293852   -0.000388    0.549308
     30          1           0        0.432046    2.089172    2.196367
     31         16           0       -1.685685    0.001789   -1.655036
     32          6           0        2.333163   -1.204121   -0.063068
     33          1           0        1.832391   -2.152658    0.064232
 ---------------------------------------------------------------------

 SCF Done:  E(RM062X) =  -1146.66448712     A.U. after    7 cycles

 Excitation energies and oscillator strengths:

 Excited State   1:      Singlet-A      4.5739 eV  271.07 nm  f=0.1368  <S**2>=0.000
      72 -> 73         0.66020
      72 -> 75         0.17465
 This state for optimization and/or second-order correction.
 Total Energy, E(TD-HF/TD-KS) =  -1146.49640103
 Copying the excited state density for this state as the 1-particle RhoCI density.

 Excited State   2:      Singlet-A      4.6022 eV  269.40 nm  f=0.0168  <S**2>=0.000
      71 -> 74         0.19334
      71 -> 79        -0.11940
      72 -> 74        -0.38078
      72 -> 76         0.51745

 Excited State   3:      Singlet-A      4.6723 eV  265.36 nm  f=0.0009  <S**2>=0.000
      71 -> 77         0.11963
      72 -> 74         0.51637
      72 -> 76         0.39917

 Excited State   4:      Singlet-A      4.8121 eV  257.65 nm  f=0.0852  <S**2>=0.000
      68 -> 75        -0.10393
      71 -> 73         0.24353
      72 -> 73        -0.13443
      72 -> 75         0.61243

 Excited State   5:      Singlet-A      5.0851 eV  243.82 nm  f=0.0003  <S**2>=0.000
      67 -> 73         0.16252
      68 -> 74         0.16795
      69 -> 75        -0.11463
      70 -> 75        -0.10625
      71 -> 74        -0.12382
      71 -> 76         0.43465
      71 -> 79         0.10324
      72 -> 74        -0.13826
      72 -> 77         0.35505
      72 -> 79        -0.11627

 Excited State   6:      Singlet-A      5.2448 eV  236.39 nm  f=0.2696  <S**2>=0.000
      71 -> 74         0.35467
      71 -> 79        -0.24296
      72 -> 76        -0.18241
      72 -> 77         0.40014
      72 -> 79         0.23239

 Excited State   7:      Singlet-A      5.3119 eV  233.41 nm  f=0.0796  <S**2>=0.000
      67 -> 76         0.10057
      68 -> 75        -0.10857
      69 -> 74         0.11927
      70 -> 74         0.12111
      71 -> 73         0.49393
      71 -> 75         0.28259
      72 -> 73         0.12430
      72 -> 75        -0.25357
      72 -> 78        -0.11110

 Excited State   8:      Singlet-A      5.5053 eV  225.21 nm  f=0.2946  <S**2>=0.000
      71 -> 73        -0.30135
      71 -> 75         0.44836
      72 -> 78        -0.41373

 Excited State   9:      Singlet-A      5.6348 eV  220.03 nm  f=0.1942  <S**2>=0.000
      67 -> 73        -0.10469
      69 -> 75         0.10836
      70 -> 73        -0.13293
      71 -> 74         0.20697
      71 -> 76        -0.19463
      71 -> 77         0.11133
      71 -> 79         0.34855
      72 -> 74        -0.13658
      72 -> 77         0.21393
      72 -> 79        -0.34543

 Excited State  10:      Singlet-A      5.6402 eV  219.82 nm  f=0.0507  <S**2>=0.000
      71 -> 73        -0.13840
      71 -> 75         0.39572
      71 -> 78         0.13341
      72 -> 78         0.50919

 Excited State  11:      Singlet-A      5.7375 eV  216.10 nm  f=0.0638  <S**2>=0.000
      67 -> 73         0.11663
      71 -> 74         0.47797
      71 -> 76         0.21400
      71 -> 77        -0.23357
      72 -> 74         0.12021
      72 -> 77        -0.25871
      72 -> 79        -0.11672

 Excited State  12:      Singlet-A      6.1233 eV  202.48 nm  f=0.0275  <S**2>=0.000
      67 -> 73        -0.17202
      68 -> 74        -0.15731
      68 -> 76         0.13054
      69 -> 73        -0.11028
      69 -> 75         0.25488
      70 -> 73        -0.21621
      70 -> 75         0.16335
      71 -> 76         0.41930
      71 -> 77         0.10084
      72 -> 74        -0.13200
      72 -> 79         0.11981

 Excited State  13:      Singlet-A      6.2060 eV  199.78 nm  f=0.1199  <S**2>=0.000
      66 -> 73        -0.14095
      67 -> 74        -0.10333
      67 -> 76         0.25775
      68 -> 75        -0.28180
      69 -> 74         0.32821
      70 -> 74         0.21772
      70 -> 77        -0.14718
      71 -> 73        -0.24987
      71 -> 75        -0.18268
      72 -> 73         0.10187

 Excited State  14:      Singlet-A      6.2891 eV  197.14 nm  f=0.1203  <S**2>=0.000
      67 -> 75         0.15196
      68 -> 74         0.12036
      68 -> 76         0.21138
      69 -> 73         0.42032
      69 -> 75         0.10979
      70 -> 73         0.24975
      70 -> 78         0.17513
      71 -> 74         0.11780
      71 -> 77         0.22788
      72 -> 77        -0.20317

 Excited State  15:      Singlet-A      6.3719 eV  194.58 nm  f=0.3440  <S**2>=0.000
      68 -> 74        -0.14835
      69 -> 75         0.15272
      69 -> 78         0.19395
      70 -> 73         0.29020
      70 -> 75         0.38624
      70 -> 78        -0.14930
      71 -> 77        -0.27514
      72 -> 77         0.16996

 Excited State  16:      Singlet-A      6.4464 eV  192.33 nm  f=0.4435  <S**2>=0.000
      67 -> 74        -0.16196
      68 -> 73         0.23142
      69 -> 74        -0.17319
      69 -> 77        -0.20436
      70 -> 74         0.14481
      70 -> 76         0.50784
      70 -> 77         0.13355
      71 -> 78        -0.13500

 Excited State  17:      Singlet-A      6.5302 eV  189.86 nm  f=0.0447  <S**2>=0.000
      67 -> 74        -0.24210
      67 -> 77         0.10587
      68 -> 73         0.25351
      69 -> 76         0.33480
      70 -> 74        -0.30979
      70 -> 77        -0.13220
      71 -> 78         0.26500
      72 -> 78        -0.14323

 Excited State  18:      Singlet-A      6.6473 eV  186.52 nm  f=0.0813  <S**2>=0.000
      69 -> 73        -0.17109
      69 -> 75        -0.14505
      69 -> 78         0.13718
      70 -> 73         0.19375
      70 -> 78        -0.17340
      71 -> 74         0.10168
      71 -> 77         0.43018
      71 -> 79         0.23820
      72 -> 79         0.25046

 Excited State  19:      Singlet-A      6.6677 eV  185.95 nm  f=0.0403  <S**2>=0.000
      67 -> 73        -0.14754
      67 -> 75        -0.16901
      69 -> 73         0.20257
      70 -> 75        -0.17992
      71 -> 77        -0.23784
      71 -> 79         0.33380
      72 -> 79         0.39929

 Excited State  20:      Singlet-A      6.6891 eV  185.35 nm  f=0.2481  <S**2>=0.000
      67 -> 74         0.15121
      69 -> 76        -0.12989
      70 -> 74         0.20814
      70 -> 76         0.11599
      71 -> 78         0.53282
      72 -> 80        -0.13185
      72 -> 81         0.11979

 Excited State  21:      Singlet-A      6.7554 eV  183.53 nm  f=0.3868  <S**2>=0.000
      67 -> 73         0.33207
      67 -> 75         0.31478
      68 -> 74         0.10191
      68 -> 76        -0.14297
      69 -> 75         0.23068
      70 -> 73        -0.17384
      70 -> 75         0.19305
      70 -> 78         0.15272
      71 -> 79         0.17718
      72 -> 79         0.14009

 Excited State  22:      Singlet-A      6.7859 eV  182.71 nm  f=0.3633  <S**2>=0.000
      66 -> 74         0.10043
      67 -> 73        -0.38869
      67 -> 75         0.39076
      68 -> 74         0.17233
      69 -> 75        -0.23623
      70 -> 73        -0.22786

 Excited State  23:      Singlet-A      6.8376 eV  181.33 nm  f=0.2738  <S**2>=0.000
      67 -> 76        -0.19969
      68 -> 73         0.29150
      69 -> 74         0.19703
      70 -> 74         0.17064
      70 -> 76        -0.14543
      71 -> 78        -0.21457
      71 -> 81        -0.12579
      71 -> 82         0.10702
      72 -> 80        -0.23930
      72 -> 81         0.24716
      72 -> 82        -0.14626

 Excited State  24:      Singlet-A      6.9052 eV  179.55 nm  f=0.1205  <S**2>=0.000
      67 -> 74        -0.15679
      67 -> 76         0.17470
      68 -> 73        -0.20190
      68 -> 75        -0.13734
      69 -> 74        -0.14033
      69 -> 76        -0.12874
      70 -> 74        -0.22089
      71 -> 81        -0.12935
      72 -> 81         0.38063
      72 -> 82        -0.26184

 Excited State  25:      Singlet-A      6.9507 eV  178.38 nm  f=0.0433  <S**2>=0.000
      67 -> 74        -0.12297
      68 -> 73         0.17280
      69 -> 76        -0.16046
      70 -> 76        -0.14521
      71 -> 78         0.10502
      72 -> 80         0.51470
      72 -> 81         0.14640
      72 -> 82        -0.12306
      72 -> 84        -0.10478
      72 -> 88         0.11421

 Excited State  26:      Singlet-A      6.9871 eV  177.45 nm  f=0.0012  <S**2>=0.000
      67 -> 73         0.10179
      67 -> 75        -0.10270
      68 -> 76        -0.34253
      69 -> 73         0.43396
      69 -> 78         0.11844
      70 -> 73        -0.27836
      70 -> 78        -0.16400
      71 -> 77         0.11624

 Excited State  27:      Singlet-A      6.9992 eV  177.14 nm  f=0.0071  <S**2>=0.000
      67 -> 74         0.16292
      67 -> 76        -0.14936
      68 -> 73        -0.25157
      69 -> 76         0.45902
      70 -> 74         0.15175
      70 -> 76         0.18395
      72 -> 80         0.19532
      72 -> 81         0.13240

 Excited State  28:      Singlet-A      7.0708 eV  175.35 nm  f=0.0240  <S**2>=0.000
      67 -> 73        -0.23442
      67 -> 75        -0.12975
      68 -> 74         0.39167
      68 -> 76        -0.35804
      69 -> 75         0.29735
      70 -> 73         0.14750

 Excited State  29:      Singlet-A      7.0918 eV  174.83 nm  f=0.0461  <S**2>=0.000
      68 -> 73        -0.15558
      68 -> 75         0.38579
      69 -> 74         0.43899
      69 -> 76        -0.12405
      70 -> 74        -0.18678
      70 -> 76         0.24210

 Excited State  30:      Singlet-A      7.1422 eV  173.59 nm  f=0.1822  <S**2>=0.000
      67 -> 75        -0.27171
      68 -> 74         0.39367
      68 -> 76         0.27462
      69 -> 75        -0.13898
      70 -> 73        -0.16881
      70 -> 75         0.32249

 The electronic state is 1-A.
 Alpha  occ. eigenvalues --  -89.91910 -14.78148 -10.59234 -10.58994 -10.58993
 Alpha  occ. eigenvalues --  -10.58139 -10.58137 -10.55062 -10.55062 -10.54760
 Alpha  occ. eigenvalues --  -10.54760 -10.54553 -10.54552 -10.54457 -10.54457
 Alpha  occ. eigenvalues --  -10.53919 -10.53918 -10.53512 -10.53510 -10.52961
 Alpha  occ. eigenvalues --   -8.27760  -6.19727  -6.19534  -6.19236  -1.09058
 Alpha  occ. eigenvalues --   -0.97771  -0.97614  -0.94865  -0.90718  -0.86490
 Alpha  occ. eigenvalues --   -0.85498  -0.85314  -0.84004  -0.81869  -0.77680
 Alpha  occ. eigenvalues --   -0.71849  -0.71743  -0.68962  -0.68142  -0.68078
 Alpha  occ. eigenvalues --   -0.64379  -0.61480  -0.61406  -0.57208  -0.55379
 Alpha  occ. eigenvalues --   -0.55361  -0.53987  -0.53147  -0.51591  -0.51158
 Alpha  occ. eigenvalues --   -0.51067  -0.49430  -0.48856  -0.48472  -0.47884
 Alpha  occ. eigenvalues --   -0.46198  -0.44782  -0.44669  -0.43659  -0.42113
 Alpha  occ. eigenvalues --   -0.41505  -0.40614  -0.40308  -0.39405  -0.37928
 Alpha  occ. eigenvalues --   -0.36383  -0.32117  -0.32000  -0.31294  -0.30895
 Alpha  occ. eigenvalues --   -0.27581  -0.25200
 Alpha virt. eigenvalues --    0.00412   0.00811   0.00956   0.01054   0.03144
 Alpha virt. eigenvalues --    0.03742   0.05915   0.08479   0.09269   0.10405
 Alpha virt. eigenvalues --    0.10610   0.10897   0.11596   0.12680   0.12997

 Mulliken charges:
               1
     1  C   -0.192377
     2  C   -0.167026
     3  C   -0.033122
     4  C    0.108661
     5  C   -0.278308
     6  C   -0.145659
     7  C    0.109164
     8  C   -0.033272
     9  C   -0.167026
    10  H    0.186546
    11  C   -0.192398
    12  C   -0.145624
    13  C   -0.278665
    14  H    0.186538
    15  H    0.209446
    16  H    0.186760
    17  H    0.186501
    18  H    0.186762
    19  C    0.161120
    20  C   -0.258043
    21  C   -0.181675
    22  C   -0.181612
    23  C   -0.235976
    24  H    0.181067
    25  H    0.181066
    26  H    0.216112
    27  H    0.180420
    28  H    0.186503
    29  N   -0.141941
    30  H    0.209553
    31  S   -0.001668
    32  C   -0.257884
    33  H    0.216057
 Sum of Mulliken charges =  -0.00000

 Dipole moment (field-independent basis, Debye):
    X=             -1.0763    Y=              0.0016    Z=              1.6945  Tot=              2.0074
 Quadrupole moment (field-independent basis, Debye-Ang):
   XX=           -117.5519   YY=            -98.6312   ZZ=           -123.4841
   XY=              0.0252   XZ=              2.7953   YZ=              0.0029

 Normal termination of Gaussian 09 at Tue Feb 23 18:15:30 2021.
