 Gaussian 09, Revision E.01,

 ----------------------------------------------------------------------
 #p b3lyp/def2TZVP opt freq=noraman nosymm int=ultrafine scrf=(SMD,solv
 ent=n,n-DiMethylAcetamide) EmpiricalDispersion=GD3BJ
 ----------------------------------------------------------------------

 -----
 Title
 -----
 Symbolic Z-matrix:
 Charge =  0 Multiplicity = 1

 SCF Done:  E(RB3LYP) =  -1147.08423951     A.U. after   13 cycles
 SCF Done:  E(RB3LYP) =  -1147.08599085     A.U. after   10 cycles
 SCF Done:  E(RB3LYP) =  -1147.08601368     A.U. after    9 cycles
 SCF Done:  E(RB3LYP) =  -1147.08601686     A.U. after    8 cycles
 SCF Done:  E(RB3LYP) =  -1147.08601862     A.U. after    8 cycles
 SCF Done:  E(RB3LYP) =  -1147.08601981     A.U. after    8 cycles
 SCF Done:  E(RB3LYP) =  -1147.08602078     A.U. after    8 cycles
 SCF Done:  E(RB3LYP) =  -1147.08602141     A.U. after    8 cycles
 Optimization completed.
    -- Stationary point found.

 1\1\GINC-CN070\FOpt\RB3LYP\def2TZVP\C18H13N1S1\PNG4RJV\16-Feb-2021\0\\
 #p b3lyp/def2TZVP opt freq=noraman nosymm int=ultrafine scrf=(SMD,solv
 ent=n,n-DiMethylAcetamide) EmpiricalDispersion=GD3BJ\\Title\\0,1\C,-1.
 9516470192,3.5409686607,-0.4068712881\C,-2.2199862202,2.5103242277,0.4
 842208117\C,-1.4557384667,1.3466922131,0.4433048502\C,-0.4280806023,1.
 2100462467,-0.4934278448\C,-0.2021154559,2.2267143946,-1.4160353083\C,
 -0.9503048857,3.3955563522,-1.3630445884\C,-0.4119965576,-1.188838704,
 -0.4875493652\C,-1.437527085,-1.334793419,0.4501278319\C,-2.1856951761

 Normal termination of Gaussian 09 at Tue Feb 16 00:18:48 2021.

 --------------------------------------------------------------------
 #P Geom=AllCheck Guess=TCheck SCRF=Check GenChk RB3LYP/def2TZVP Freq
 --------------------------------------------------------------------

 Structure from the checkpoint file:  "cp.chk"
 -----
 Title
 -----
 Charge =  0 Multiplicity = 1

 SCF Done:  E(RB3LYP) =  -1147.08602141     A.U. after    1 cycles

  Exact polarizability: 362.230  -0.510 423.108 -23.102  -0.501 267.742
 Approx polarizability: 382.365  -0.530 442.516 -34.702  -0.505 313.230

                      1                      2                      3
                      A                      A                      A
 Frequencies --     30.1399                39.1188                66.2647
 Red. masses --      6.0312                 3.7209                 5.7623
 Frc consts  --      0.0032                 0.0034                 0.0149
 IR Inten    --      1.1634                 0.0122                 3.3033

                      4                      5                      6
                      A                      A                      A
 Frequencies --     80.4152               143.5371               157.0624
 Red. masses --      4.6973                 4.1640                 4.3944
 Frc consts  --      0.0179                 0.0505                 0.0639
 IR Inten    --      0.0045                 0.3621                 1.8116

                      7                      8                      9
                      A                      A                      A
 Frequencies --    185.5017               229.5874               260.1630
 Red. masses --      5.2234                 5.8341                 5.1223
 Frc consts  --      0.1059                 0.1812                 0.2043
 IR Inten    --      0.3096                 2.9902                 0.2971

                     10                     11                     12
                      A                      A                      A
 Frequencies --    319.9620               321.9220               352.8567
 Red. masses --      5.6041                 5.0061                 5.8993
 Frc consts  --      0.3380                 0.3057                 0.4328
 IR Inten    --      3.5524                 3.8939                 4.7652

                     13                     14                     15
                      A                      A                      A
 Frequencies --    391.9277               403.3462               422.2075
 Red. masses --      5.0302                 9.8765                 3.0217
 Frc consts  --      0.4552                 0.9467                 0.3174
 IR Inten    --      0.9206                 5.5357                 0.0458

                     16                     17                     18
                      A                      A                      A
 Frequencies --    449.8936               458.5792               477.1100
 Red. masses --      9.3271                 3.4829                 3.7595
 Frc consts  --      1.1123                 0.4315                 0.5042
 IR Inten    --      0.9590                 0.1473                36.1072

                     19                     20                     21
                      A                      A                      A
 Frequencies --    508.2145               541.3816               543.6903
 Red. masses --      3.0000                 5.2407                 4.0763
 Frc consts  --      0.4565                 0.9050                 0.7099
 IR Inten    --     10.4254                 1.0637                 2.2898

                     22                     23                     24
                      A                      A                      A
 Frequencies --    577.9597               633.8492               638.7902
 Red. masses --      4.8796                 6.1640                 5.3693
 Frc consts  --      0.9604                 1.4591                 1.2909
 IR Inten    --      8.2211                 0.3694                40.7328

                     25                     26                     27
                      A                      A                      A
 Frequencies --    642.5436               696.3279               708.0794
 Red. masses --      6.6006                 6.3358                 1.9506
 Frc consts  --      1.6056                 1.8100                 0.5762
 IR Inten    --     11.8416                 1.6336                58.4208

                     28                     29                     30
                      A                      A                      A
 Frequencies --    709.5932               751.1941               756.5807
 Red. masses --      6.4645                 3.7953                 2.3261
 Frc consts  --      1.9178                 1.2618                 0.7845
 IR Inten    --     11.3395                18.6273                18.9420

                     31                     32                     33
                      A                      A                      A
 Frequencies --    761.1486               767.2593               771.0053
 Red. masses --      1.9843                 1.8460                 1.6621
 Frc consts  --      0.6773                 0.6403                 0.5821
 IR Inten    --    128.8317                84.4329                27.4098

                     34                     35                     36
                      A                      A                      A
 Frequencies --    782.5692               838.8887               884.8667
 Red. masses --      2.3274                 1.2544                 1.4963
 Frc consts  --      0.8398                 0.5201                 0.6903
 IR Inten    --     66.8240                 0.4176                 5.0366

                     37                     38                     39
                      A                      A                      A
 Frequencies --    887.7214               901.3337               939.7391
 Red. masses --      1.3931                 1.4824                 5.5242
 Frc consts  --      0.6468                 0.7096                 2.8743
 IR Inten    --      0.0010                13.9953                 0.1656

                     40                     41                     42
                      A                      A                      A
 Frequencies --    941.3447               970.5637               974.6140
 Red. masses --      3.7121                 1.4224                 1.5481
 Frc consts  --      1.9380                 0.7894                 0.8664
 IR Inten    --      2.6016                 1.6042                 5.7105

                     43                     44                     45
                      A                      A                      A
 Frequencies --    981.0714               987.5558               996.7606
 Red. masses --      1.3453                 1.2503                 1.3018
 Frc consts  --      0.7629                 0.7185                 0.7620
 IR Inten    --      0.2862                 0.3311                 0.1052

                     46                     47                     48
                      A                      A                      A
 Frequencies --    997.6309              1012.5654              1055.6454
 Red. masses --      1.3098                 5.4279                 2.5769
 Frc consts  --      0.7681                 3.2789                 1.6919
 IR Inten    --      0.0172                11.0141                21.5382

                     49                     50                     51
                      A                      A                      A
 Frequencies --   1055.7355              1058.2730              1081.7575
 Red. masses --      2.6247                 2.2604                 3.1828
 Frc consts  --      1.7236                 1.4916                 2.1944
 IR Inten    --     25.5392                23.3951                11.3390

                     52                     53                     54
                      A                      A                      A
 Frequencies --   1097.8686              1119.0135              1142.0263
 Red. masses --      3.9694                 1.5652                 1.6426
 Frc consts  --      2.8189                 1.1547                 1.2622
 IR Inten    --     17.8588                 2.8310                25.6206

                     55                     56                     57
                      A                      A                      A
 Frequencies --   1148.3193              1175.2000              1176.0696
 Red. masses --      1.6263                 1.0893                 1.1033
 Frc consts  --      1.2635                 0.8864                 0.8991
 IR Inten    --      6.7251                 1.6643                 0.3447

                     58                     59                     60
                      A                      A                      A
 Frequencies --   1176.2688              1209.6516              1213.3823
 Red. masses --      1.0984                 1.5452                 1.7730
 Frc consts  --      0.8954                 1.3322                 1.5379
 IR Inten    --      0.0830                58.8323                 3.1859

                     61                     62                     63
                      A                      A                      A
 Frequencies --   1257.6959              1290.3128              1306.0245
 Red. masses --      2.0394                 2.0578                 2.3009
 Frc consts  --      1.9006                 2.0186                 2.3123
 IR Inten    --     67.4505               280.2932                71.0384

                     64                     65                     66
                      A                      A                      A
 Frequencies --   1311.7134              1313.8463              1330.5784
 Red. masses --      3.1423                 8.3438                 6.4126
 Frc consts  --      3.1855                 8.4860                 6.6891
 IR Inten    --    227.3345                 1.6751               112.4631

                     67                     68                     69
                      A                      A                      A
 Frequencies --   1338.1572              1376.5678              1471.9127
 Red. masses --      5.8392                 1.4077                 2.1270
 Frc consts  --      6.1605                 1.5717                 2.7150
 IR Inten    --      1.4169                18.9497                 0.0085

                     70                     71                     72
                      A                      A                      A
 Frequencies --   1479.0636              1490.9762              1494.6932
 Red. masses --      2.2013                 2.3656                 2.7117
 Frc consts  --      2.8373                 3.0983                 3.5694
 IR Inten    --     58.2884               130.8234               112.0522

                     73                     74                     75
                      A                      A                      A
 Frequencies --   1511.7353              1527.7105              1603.3497
 Red. masses --      2.6250                 2.1023                 5.7153
 Frc consts  --      3.5346                 2.8909                 8.6565
 IR Inten    --    102.1968               271.5458                16.3321

                     76                     77                     78
                      A                      A                      A
 Frequencies --   1616.4372              1616.8225              1619.3163
 Red. masses --      5.6418                 6.6491                 5.9157
 Frc consts  --      8.6853                10.2408                 9.1394
 IR Inten    --      6.9268                 8.5823                 1.1404

                     79                     80                     81
                      A                      A                      A
 Frequencies --   1626.2238              1644.2593              3170.6650
 Red. masses --      5.6550                 5.9088                 1.0865
 Frc consts  --      8.8114                 9.4121                 6.4352
 IR Inten    --    159.2598               103.7702                 3.6992

                     82                     83                     84
                      A                      A                      A
 Frequencies --   3176.4606              3179.3082              3179.3874
 Red. masses --      1.0903                 1.0868                 1.0868
 Frc consts  --      6.4815                 6.4726                 6.4729
 IR Inten    --     22.2177                 0.0928                 0.0770

                     85                     86                     87
                      A                      A                      A
 Frequencies --   3186.9020              3186.9877              3195.3888
 Red. masses --      1.0898                 1.0899                 1.0943
 Frc consts  --      6.5211                 6.5220                 6.5830
 IR Inten    --      4.2946                 5.5390                42.3246

                     88                     89                     90
                      A                      A                      A
 Frequencies --   3195.5000              3195.8291              3203.5943
 Red. masses --      1.0934                 1.0947                 1.0975
 Frc consts  --      6.5782                 6.5873                 6.6363
 IR Inten    --     13.9601                 6.4675                17.7543

                     91                     92                     93
                      A                      A                      A
 Frequencies --   3203.7903              3223.1015              3223.3224
 Red. masses --      1.0975                 1.0908                 1.0906
 Frc consts  --      6.6369                 6.6761                 6.6764
 IR Inten    --      5.3265                 3.2514                 3.6048

 - Thermochemistry -
 -------------------
 Temperature   298.150 Kelvin.  Pressure   1.00000 Atm.
 Atom     1 has atomic number  6 and mass  12.00000

 Molecular mass:   275.07687 amu.
 Principal axes and moments of inertia in atomic units:
                           1         2         3
     Eigenvalues --  4789.017455173.961438303.50786
           X            0.99920  -0.00538  -0.03973
           Y            0.00547   0.99998   0.00217
           Z            0.03972  -0.00238   0.99921
 This molecule is an asymmetric top.
 Rotational symmetry number  1.
 Warning -- assumption of classical behavior for rotation
           may cause significant error
 Rotational temperatures (Kelvin)      0.01809     0.01674     0.01043
 Rotational constants (GHZ):           0.37685     0.34881     0.21735
 Zero-point vibrational energy     677991.2 (Joules/Mol)
                                  162.04379 (Kcal/Mol)
 Warning -- explicit consideration of  22 degrees of freedom as
           vibrations may cause significant error
 Vibrational temperatures:     43.36    56.28    95.34   115.70   206.52
          (Kelvin)            225.98   266.90   330.32   374.32   460.35
                              463.17   507.68   563.90   580.32   607.46
                              647.30   659.79   686.45   731.21   778.93
                              782.25   831.55   911.97   919.08   924.48
                             1001.86  1018.77  1020.95  1080.80  1088.55
                             1095.12  1103.91  1109.30  1125.94  1206.97
                             1273.12  1277.23  1296.82  1352.07  1354.38
                             1396.42  1402.25  1411.54  1420.87  1434.11
                             1435.37  1456.85  1518.84  1518.97  1522.62
                             1556.41  1579.59  1610.01  1643.12  1652.17
                             1690.85  1692.10  1692.39  1740.42  1745.78
                             1809.54  1856.47  1879.08  1887.26  1890.33
                             1914.40  1925.31  1980.57  2117.75  2128.04
                             2145.18  2150.53  2175.05  2198.03  2306.86
                             2325.69  2326.24  2329.83  2339.77  2365.72
                             4561.87  4570.21  4574.31  4574.42  4585.24
                             4585.36  4597.45  4597.61  4598.08  4609.25
                             4609.53  4637.32  4637.64

 Zero-point correction=                           0.258233 (Hartree/Particle)
 Thermal correction to Energy=                    0.273144
 Thermal correction to Enthalpy=                  0.274089
 Thermal correction to Gibbs Free Energy=         0.215150
 Sum of electronic and zero-point Energies=          -1146.827788
 Sum of electronic and thermal Energies=             -1146.812877
 Sum of electronic and thermal Enthalpies=           -1146.811933
 Sum of electronic and thermal Free Energies=        -1146.870871

                     E (Thermal)             CV                S
                      KCal/Mol        Cal/Mol-Kelvin    Cal/Mol-Kelvin
 Total                  171.401             61.454            124.046
 Electronic               0.000              0.000              0.000
 Translational            0.889              2.981             42.734
 Rotational               0.889              2.981             33.686
 Vibrational            169.623             55.492             47.626
 Vibration     1          0.594              1.984              5.820
 Vibration     2          0.594              1.981              5.303
 Vibration     3          0.598              1.970              4.261
 Vibration     4          0.600              1.962              3.881
 Vibration     5          0.616              1.910              2.756
 Vibration     6          0.621              1.895              2.585
 Vibration     7          0.632              1.860              2.272
 Vibration     8          0.652              1.796              1.882
 Vibration     9          0.668              1.746              1.661
 Vibration    10          0.706              1.635              1.310
 Vibration    11          0.707              1.632              1.300
 Vibration    12          0.729              1.569              1.153
 Vibration    13          0.759              1.487              0.993
 Vibration    14          0.769              1.463              0.950
 Vibration    15          0.785              1.422              0.885
 Vibration    16          0.809              1.361              0.796
 Vibration    17          0.817              1.342              0.770
 Vibration    18          0.834              1.301              0.718
 Vibration    19          0.863              1.232              0.638
 Vibration    20          0.896              1.159              0.562
 Vibration    21          0.899              1.154              0.557
 Vibration    22          0.934              1.079              0.489

 Optimization completed.
    -- Stationary point found.

 1\1\GINC-CN070\Freq\RB3LYP\def2TZVP\C18H13N1S1\PNG4RJV\16-Feb-2021\0\\
 #P Geom=AllCheck Guess=TCheck SCRF=Check GenChk RB3LYP/def2TZVP Freq\\
 Title\\0,1\C,-1.9516470192,3.5409686607,-0.4068712881\C,-2.2199862202,
 2.5103242277,0.4842208117\C,-1.4557384667,1.3466922131,0.4433048502\C,
 -0.4280806023,1.2100462467,-0.4934278448\C,-0.2021154559,2.2267143946,
 -1.4160353083\C,-0.9503048857,3.3955563522,-1.3630445884\C,-0.41199655
 76,-1.188838704,-0.4875493652\C,-1.437527085,-1.334793419,0.4501278319
 \C,-2.1856951761,-2.508596611,0.4971381585\H,-2.9865546603,-2.60929410

 Normal termination of Gaussian 09 at Tue Feb 16 02:17:14 2021.
 Gaussian 09:  ES64L-G09RevE.01 30-Nov-2015

 ----------------------------------------------------------------------
 #p b3lyp chkbasis geom=allcheck Guess=Read int=ultrafine scrf=(SMD,sol
 vent=n,n-DiMethylAcetamide) td=(NStates=30) EmpiricalDispersion=GD3BJ
 ----------------------------------------------------------------------

 Structure from the checkpoint file:  "cp.chk"
 -----
 Title
 -----
 Charge =  0 Multiplicity = 1

                         Standard orientation:
 ---------------------------------------------------------------------
 Center     Atomic      Atomic             Coordinates (Angstroms)
 Number     Number       Type             X           Y           Z
 ---------------------------------------------------------------------
      1          6           0       -1.975499   -3.537273    0.302205
      2          6           0       -2.209768   -2.505912   -0.597623
      3          6           0       -1.454098   -1.338508   -0.520684
      4          6           0       -0.469310   -1.198844    0.460594
      5          6           0       -0.278831   -2.216519    1.390075
      6          6           0       -1.017901   -3.389022    1.301767
      7          6           0       -0.465418    1.200099    0.460534
      8          6           0       -1.449504    1.343044   -0.520993
      9          6           0       -2.200959    2.513135   -0.598339
     10          1           0       -2.969864    2.611457   -1.353970
     11          6           0       -1.963275    3.543811    0.301382
     12          6           0       -1.006621    3.392267    1.301341
     13          6           0       -0.271745    2.217150    1.390031
     14          1           0       -2.979288   -2.601506   -1.352992
     15          1           0        0.463365   -2.087444    2.166676
     16          1           0       -0.852441   -4.182728    2.018518
     17          1           0       -2.542285    4.455813    0.235217
     18          1           0       -0.838586    4.185474    2.018041
     19          6           0        1.655627   -0.002696    0.124666
     20          6           0        2.352134    1.198754   -0.076605
     21          6           0        3.690204    1.188497   -0.445867
     22          6           0        3.685983   -1.199958   -0.448144
     23          6           0        4.375656   -0.006767   -0.631296
     24          1           0        4.197046    2.134413   -0.593710
     25          1           0        4.189530   -2.147347   -0.597799
     26          1           0        1.850790    2.146288    0.045027
     27          1           0        5.419245   -0.008344   -0.917214
     28          1           0       -2.557765   -4.447233    0.236420
     29          7           0        0.299637   -0.000615    0.503521
     30          1           0        0.469699    2.085552    2.166916
     31         16           0       -1.741076    0.002620   -1.645029
     32          6           0        2.347849   -1.206217   -0.079007
     33          1           0        1.843162   -2.152252    0.040476
 ---------------------------------------------------------------------

 SCF Done:  E(RB3LYP) =  -1147.08602657     A.U. after    6 cycles

 Excitation energies and oscillator strengths:

 Excited State   1:      Singlet-A      3.9372 eV  314.90 nm  f=0.0675  <S**2>=0.000
      72 -> 73         0.70193
 This state for optimization and/or second-order correction.
 Total Energy, E(TD-HF/TD-KS) =  -1146.94133563
 Copying the excited state density for this state as the 1-particle RhoCI density.

 Excited State   2:      Singlet-A      4.0065 eV  309.46 nm  f=0.0009  <S**2>=0.000
      72 -> 74         0.66401
      72 -> 76         0.22257

 Excited State   3:      Singlet-A      4.1266 eV  300.45 nm  f=0.0026  <S**2>=0.000
      72 -> 74        -0.22512
      72 -> 76         0.65956

 Excited State   4:      Singlet-A      4.1555 eV  298.36 nm  f=0.1025  <S**2>=0.000
      71 -> 73        -0.11100
      72 -> 75         0.69016

 Excited State   5:      Singlet-A      4.6328 eV  267.62 nm  f=0.0037  <S**2>=0.000
      71 -> 74        -0.24137
      71 -> 76        -0.23764
      72 -> 77         0.59411

 Excited State   6:      Singlet-A      4.6470 eV  266.80 nm  f=0.0273  <S**2>=0.000
      69 -> 74         0.11568
      71 -> 73         0.67550
      72 -> 75         0.11233

 Excited State   7:      Singlet-A      4.7402 eV  261.56 nm  f=0.2622  <S**2>=0.000
      71 -> 74         0.54644
      71 -> 76         0.22644
      72 -> 77         0.32089
      72 -> 79         0.11400

 Excited State   8:      Singlet-A      4.8786 eV  254.14 nm  f=0.0331  <S**2>=0.000
      71 -> 74        -0.32042
      71 -> 76         0.59368
      72 -> 77         0.12630

 Excited State   9:      Singlet-A      4.9297 eV  251.51 nm  f=0.0436  <S**2>=0.000
      71 -> 75         0.68375

 Excited State  10:      Singlet-A      5.1013 eV  243.04 nm  f=0.2434  <S**2>=0.000
      72 -> 78         0.67686

 Excited State  11:      Singlet-A      5.1800 eV  239.35 nm  f=0.0163  <S**2>=0.000
      71 -> 74        -0.12278
      71 -> 79        -0.23301
      72 -> 79         0.63580

 Excited State  12:      Singlet-A      5.3326 eV  232.50 nm  f=0.0061  <S**2>=0.000
      67 -> 73        -0.11139
      68 -> 74        -0.13292
      69 -> 75        -0.21121
      70 -> 73        -0.21895
      71 -> 76        -0.13707
      71 -> 77         0.56306
      72 -> 79         0.10996

 Excited State  13:      Singlet-A      5.5157 eV  224.78 nm  f=0.0454  <S**2>=0.000
      67 -> 73         0.31132
      67 -> 75        -0.14022
      68 -> 74         0.14586
      69 -> 73         0.23309
      69 -> 75         0.15673
      70 -> 73         0.32618
      70 -> 75         0.11250
      71 -> 77         0.36345

 Excited State  14:      Singlet-A      5.6059 eV  221.17 nm  f=0.0168  <S**2>=0.000
      66 -> 73        -0.10023
      67 -> 74        -0.16950
      67 -> 76        -0.30299
      67 -> 77        -0.10805
      68 -> 75         0.14748
      69 -> 74         0.39000
      69 -> 76        -0.19979
      70 -> 74         0.12453
      70 -> 76        -0.16843
      70 -> 77        -0.11788
      71 -> 73        -0.12098
      71 -> 78         0.22737

 Excited State  15:      Singlet-A      5.6270 eV  220.34 nm  f=0.0256  <S**2>=0.000
      67 -> 73        -0.17080
      69 -> 73        -0.36755
      70 -> 73         0.52549
      70 -> 75        -0.11797

 Excited State  16:      Singlet-A      5.6679 eV  218.75 nm  f=0.0133  <S**2>=0.000
      68 -> 73         0.10144
      70 -> 74        -0.10584
      70 -> 76         0.20901
      71 -> 78         0.62982

 Excited State  17:      Singlet-A      5.6998 eV  217.52 nm  f=0.0681  <S**2>=0.000
      67 -> 73         0.14262
      67 -> 75         0.12152
      69 -> 73        -0.41947
      69 -> 75         0.23622
      70 -> 75         0.42152
      71 -> 79        -0.15476

 Excited State  18:      Singlet-A      5.7148 eV  216.95 nm  f=0.0001  <S**2>=0.000
      67 -> 73         0.10865
      69 -> 75         0.11494
      70 -> 75         0.11510
      71 -> 79         0.61665
      72 -> 79         0.22988

 Excited State  19:      Singlet-A      5.7436 eV  215.87 nm  f=0.0030  <S**2>=0.000
      69 -> 74        -0.17711
      70 -> 74         0.64584
      70 -> 76         0.19562

 Excited State  20:      Singlet-A      5.7988 eV  213.81 nm  f=0.0125  <S**2>=0.000
      67 -> 73        -0.13271
      69 -> 73         0.12752
      69 -> 75        -0.43328
      70 -> 73         0.12346
      70 -> 75         0.47712

 Excited State  21:      Singlet-A      5.8544 eV  211.78 nm  f=0.0167  <S**2>=0.000
      67 -> 76        -0.10239
      68 -> 73         0.23812
      68 -> 75        -0.28376
      69 -> 74         0.31439
      69 -> 76         0.46432
      70 -> 76         0.15858

 Excited State  22:      Singlet-A      5.8795 eV  210.88 nm  f=0.0607  <S**2>=0.000
      67 -> 74        -0.15508
      68 -> 73         0.47120
      68 -> 75         0.20414
      69 -> 74        -0.32222
      69 -> 76         0.17990
      70 -> 76        -0.24085

 Excited State  23:      Singlet-A      5.8945 eV  210.34 nm  f=0.0241  <S**2>=0.000
      67 -> 73         0.26708
      68 -> 74         0.46803
      68 -> 76        -0.18307
      69 -> 73        -0.24055
      69 -> 75        -0.25967
      70 -> 75        -0.18294

 Excited State  24:      Singlet-A      5.9186 eV  209.48 nm  f=0.2115  <S**2>=0.000
      67 -> 76        -0.19487
      68 -> 73         0.10317
      68 -> 75         0.33335
      69 -> 77        -0.11759
      70 -> 74        -0.13101
      70 -> 76         0.51644
      71 -> 78        -0.12590

 Excited State  25:      Singlet-A      5.9736 eV  207.55 nm  f=0.0000  <S**2>=0.000
      67 -> 75         0.35403
      68 -> 74         0.19717
      68 -> 76         0.53009
      70 -> 78        -0.16507

 Excited State  26:      Singlet-A      5.9990 eV  206.67 nm  f=0.0326  <S**2>=0.000
      67 -> 74         0.37015
      67 -> 76        -0.16916
      68 -> 73        -0.27058
      68 -> 75         0.28897
      69 -> 76         0.32694
      70 -> 77        -0.18771

 Excited State  27:      Singlet-A      6.1191 eV  202.62 nm  f=0.1270  <S**2>=0.000
      67 -> 73        -0.20817
      67 -> 75         0.43327
      68 -> 74         0.15605
      68 -> 76        -0.19027
      68 -> 77         0.21646
      69 -> 73         0.12845
      69 -> 75         0.17671
      69 -> 78        -0.12077
      70 -> 78         0.26863

 Excited State  28:      Singlet-A      6.1487 eV  201.64 nm  f=0.0237  <S**2>=0.000
      67 -> 74        -0.20192
      72 -> 80         0.64619

 Excited State  29:      Singlet-A      6.1692 eV  200.97 nm  f=0.0280  <S**2>=0.000
      67 -> 74         0.38232
      67 -> 76        -0.14593
      68 -> 73         0.19589
      69 -> 76        -0.15602
      69 -> 77         0.27684
      70 -> 77         0.33161
      72 -> 80         0.23706

 Excited State  30:      Singlet-A      6.2581 eV  198.12 nm  f=0.5141  <S**2>=0.000
      66 -> 76        -0.10009
      67 -> 73         0.39630
      67 -> 75         0.31397
      68 -> 74        -0.33325
      68 -> 76        -0.11348
      69 -> 75        -0.18255
      69 -> 78        -0.12682
      70 -> 78        -0.11191

 The electronic state is 1-A.
 Alpha  occ. eigenvalues --  -88.87387 -14.35103 -10.22297 -10.22225 -10.22223
 Alpha  occ. eigenvalues --  -10.21383 -10.21382 -10.18370 -10.18370 -10.18073
 Alpha  occ. eigenvalues --  -10.18073 -10.17894 -10.17894 -10.17811 -10.17811
 Alpha  occ. eigenvalues --  -10.17203 -10.17203 -10.16744 -10.16743 -10.16290
 Alpha  occ. eigenvalues --   -7.95040  -5.91360  -5.91019  -5.90487  -0.97984
 Alpha  occ. eigenvalues --   -0.87361  -0.87144  -0.84553  -0.81044  -0.76863
 Alpha  occ. eigenvalues --   -0.75918  -0.75792  -0.74420  -0.72674  -0.68977
 Alpha  occ. eigenvalues --   -0.63599  -0.63497  -0.60880  -0.60038  -0.60015
 Alpha  occ. eigenvalues --   -0.56715  -0.54157  -0.53978  -0.49970  -0.48494
 Alpha  occ. eigenvalues --   -0.48398  -0.47141  -0.46598  -0.45004  -0.44405
 Alpha  occ. eigenvalues --   -0.44232  -0.43096  -0.42717  -0.41983  -0.41044
 Alpha  occ. eigenvalues --   -0.39671  -0.38024  -0.37939  -0.37764  -0.36434
 Alpha  occ. eigenvalues --   -0.35834  -0.35272  -0.34296  -0.33867  -0.31877
 Alpha  occ. eigenvalues --   -0.30684  -0.26909  -0.26818  -0.26087  -0.25727
 Alpha  occ. eigenvalues --   -0.22714  -0.20317
 Alpha virt. eigenvalues --   -0.02979  -0.02565  -0.02403  -0.02280  -0.00468
 Alpha virt. eigenvalues --    0.00363   0.01929   0.05008   0.06086   0.07217
 Alpha virt. eigenvalues --    0.07385   0.07928   0.08531   0.09711   0.09803

 Mulliken charges:
               1
     1  C   -0.163581
     2  C   -0.162936
     3  C   -0.028729
     4  C    0.191240
     5  C   -0.295850
     6  C   -0.093124
     7  C    0.191584
     8  C   -0.028897
     9  C   -0.162902
    10  H    0.149771
    11  C   -0.163640
    12  C   -0.093141
    13  C   -0.296102
    14  H    0.149763
    15  H    0.157787
    16  H    0.152249
    17  H    0.152724
    18  H    0.152245
    19  C    0.201523
    20  C   -0.273296
    21  C   -0.140941
    22  C   -0.140893
    23  C   -0.205727
    24  H    0.145979
    25  H    0.145978
    26  H    0.171032
    27  H    0.143111
    28  H    0.152726
    29  N   -0.000982
    30  H    0.157925
    31  S   -0.062630
    32  C   -0.273211
    33  H    0.170945
 Sum of Mulliken charges =  -0.00000

 Dipole moment (field-independent basis, Debye):
    X=             -1.2006    Y=              0.0021    Z=              1.7747  Tot=              2.1427
 Quadrupole moment (field-independent basis, Debye-Ang):
   XX=           -119.6244   YY=           -101.1425   ZZ=           -123.9433
   XY=              0.0329   XZ=              2.7484   YZ=              0.0012

 Normal termination of Gaussian 09 at Tue Feb 16 03:37:32 2021.
