 Gaussian 09, Revision E.01,

 ----------------------------------------------------------------------
 #p wB97XD/def2TZVP opt freq=noraman nosymm int=ultrafine scrf=(SMD,sol
 vent=n,n-DiMethylAcetamide)
 ----------------------------------------------------------------------

 -----
 Title
 -----
 Symbolic Z-matrix:
 Charge =  0 Multiplicity = 1

 SCF Done:  E(RwB97XD) =  -1146.71367647     A.U. after   15 cycles
 SCF Done:  E(RwB97XD) =  -1146.71655044     A.U. after   12 cycles
 SCF Done:  E(RwB97XD) =  -1146.71660055     A.U. after   10 cycles
 SCF Done:  E(RwB97XD) =  -1146.71661192     A.U. after   10 cycles
 SCF Done:  E(RwB97XD) =  -1146.71662155     A.U. after   11 cycles
 SCF Done:  E(RwB97XD) =  -1146.71662724     A.U. after   10 cycles
 SCF Done:  E(RwB97XD) =  -1146.71662971     A.U. after    9 cycles
 SCF Done:  E(RwB97XD) =  -1146.71663068     A.U. after    8 cycles
 SCF Done:  E(RwB97XD) =  -1146.71663076     A.U. after    7 cycles
 Optimization completed.
    -- Stationary point found.
 Normal termination of Gaussian 09 at Sat Apr  3 22:58:17 2021.

 ---------------------------------------------------------------------
 #P Geom=AllCheck Guess=TCheck SCRF=Check GenChk RwB97XD/def2TZVP Freq
 ---------------------------------------------------------------------

 Structure from the checkpoint file:  "cp.chk"
 -----
 Title
 -----
 Charge =  0 Multiplicity = 1

 SCF Done:  E(RwB97XD) =  -1146.71663076     A.U. after    1 cycles

  Exact polarizability: 344.565  -0.514 406.525 -22.136  -0.346 267.811
 Approx polarizability: 258.747  -0.347 297.514 -20.461  -0.204 224.866

                      1                      2                      3
                      A                      A                      A
 Frequencies --     31.2879                42.1395                67.1986
 Red. masses --      6.0991                 3.7200                 5.7112
 Frc consts  --      0.0035                 0.0039                 0.0152
 IR Inten    --      1.0939                 0.0092                 3.5468

                      4                      5                      6
                      A                      A                      A
 Frequencies --     80.8223               145.5176               160.8624
 Red. masses --      4.7168                 4.1162                 4.3688
 Frc consts  --      0.0182                 0.0514                 0.0666
 IR Inten    --      0.0102                 0.2035                 1.4374

                      7                      8                      9
                      A                      A                      A
 Frequencies --    188.8549               234.7189               264.5181
 Red. masses --      5.1950                 5.7918                 5.0575
 Frc consts  --      0.1092                 0.1880                 0.2085
 IR Inten    --      0.3030                 2.5708                 0.1302

                     10                     11                     12
                      A                      A                      A
 Frequencies --    321.7633               325.4701               354.9336
 Red. masses --      5.6158                 5.0413                 5.7321
 Frc consts  --      0.3426                 0.3146                 0.4255
 IR Inten    --      3.1301                 4.0627                 5.2197

                     13                     14                     15
                      A                      A                      A
 Frequencies --    395.4098               410.2676               425.8404
 Red. masses --      5.0598                 9.8700                 2.9763
 Frc consts  --      0.4661                 0.9788                 0.3180
 IR Inten    --      0.6420                 6.5534                 0.0212

                     16                     17                     18
                      A                      A                      A
 Frequencies --    455.2596               464.0203               483.5170
 Red. masses --      9.9176                 3.3594                 3.7756
 Frc consts  --      1.2111                 0.4262                 0.5201
 IR Inten    --      0.8320                 0.0010                38.4431

                     19                     20                     21
                      A                      A                      A
 Frequencies --    516.2770               548.1624               551.2298
 Red. masses --      2.9741                 5.0442                 4.0077
 Frc consts  --      0.4671                 0.8930                 0.7175
 IR Inten    --     10.8034                 1.4299                 1.9719

                     22                     23                     24
                      A                      A                      A
 Frequencies --    587.8508               634.6205               641.3217
 Red. masses --      4.8950                 6.1396                 5.1590
 Frc consts  --      0.9966                 1.4569                 1.2502
 IR Inten    --      9.3882                 0.2280                40.2710

                     25                     26                     27
                      A                      A                      A
 Frequencies --    644.5967               699.5802               717.4421
 Red. masses --      6.5174                 6.3457                 6.4489
 Frc consts  --      1.5955                 1.8298                 1.9557
 IR Inten    --     12.0840                 1.8119                 8.9979

                     28                     29                     30
                      A                      A                      A
 Frequencies --    720.1032               757.8315               770.4380
 Red. masses --      1.8336                 4.7397                 2.2316
 Frc consts  --      0.5602                 1.6038                 0.7804
 IR Inten    --     64.0005                 8.5298                22.8531

                     31                     32                     33
                      A                      A                      A
 Frequencies --    777.1203               781.6167               785.5748
 Red. masses --      2.0484                 1.6831                 1.6800
 Frc consts  --      0.7289                 0.6058                 0.6109
 IR Inten    --    137.0342                84.4229                24.0916

                     34                     35                     36
                      A                      A                      A
 Frequencies --    797.2453               854.6059               901.7463
 Red. masses --      2.3157                 1.2550                 1.5492
 Frc consts  --      0.8672                 0.5400                 0.7422
 IR Inten    --     76.1387                 0.2383                 4.6091

                     37                     38                     39
                      A                      A                      A
 Frequencies --    906.0988               921.9544               947.0522
 Red. masses --      1.4127                 1.4713                 5.7910
 Frc consts  --      0.6834                 0.7368                 3.0602
 IR Inten    --      0.0047                13.5731                 0.3439

                     40                     41                     42
                      A                      A                      A
 Frequencies --    951.9630               994.5399               997.3013
 Red. masses --      3.9996                 1.3993                 1.4651
 Frc consts  --      2.1355                 0.8155                 0.8586
 IR Inten    --      2.3634                 1.8826                 5.3579

                     43                     44                     45
                      A                      A                      A
 Frequencies --   1007.3992              1014.4231              1019.5691
 Red. masses --      1.3535                 5.2923                 1.2946
 Frc consts  --      0.8093                 3.2087                 0.7929
 IR Inten    --      0.1639                 5.8807                 0.3315

                     46                     47                     48
                      A                      A                      A
 Frequencies --   1027.8332              1028.6847              1065.9136
 Red. masses --      1.3321                 1.3353                 2.5152
 Frc consts  --      0.8292                 0.8325                 1.6837
 IR Inten    --      0.0679                 0.0238                23.4955

                     49                     50                     51
                      A                      A                      A
 Frequencies --   1065.9543              1067.6091              1094.7487
 Red. masses --      2.4618                 2.2211                 3.0044
 Frc consts  --      1.6481                 1.4915                 2.1214
 IR Inten    --     22.6303                20.6488                 7.0763

                     52                     53                     54
                      A                      A                      A
 Frequencies --   1108.7007              1127.0316              1155.1736
 Red. masses --      3.6529                 1.5228                 1.5999
 Frc consts  --      2.6456                 1.1396                 1.2579
 IR Inten    --     15.7535                 4.9294                19.2886

                     55                     56                     57
                      A                      A                      A
 Frequencies --   1160.7491              1178.7744              1180.9377
 Red. masses --      1.6001                 1.1060                 1.1312
 Frc consts  --      1.2702                 0.9054                 0.9295
 IR Inten    --      5.9767                 3.2899                 0.7403

                     58                     59                     60
                      A                      A                      A
 Frequencies --   1181.4124              1216.4941              1224.4473
 Red. masses --      1.1257                 1.1950                 2.5356
 Frc consts  --      0.9257                 1.0420                 2.2398
 IR Inten    --      0.3922                30.1156                20.6726

                     61                     62                     63
                      A                      A                      A
 Frequencies --   1272.1794              1300.8539              1311.8330
 Red. masses --      1.7969                 1.6549                 4.6756
 Frc consts  --      1.7134                 1.6500                 4.7408
 IR Inten    --     36.3599               101.5231                 9.6345

                     64                     65                     66
                      A                      A                      A
 Frequencies --   1315.5023              1317.1860              1341.4556
 Red. masses --      3.7081                 5.2584                 4.5122
 Frc consts  --      3.7808                 5.3753                 4.7840
 IR Inten    --     45.7499                93.9547               301.2974

                     67                     68                     69
                      A                      A                      A
 Frequencies --   1344.5813              1378.7084              1484.7258
 Red. masses --      3.6419                 1.4715                 2.2507
 Frc consts  --      3.8793                 1.6480                 2.9233
 IR Inten    --     55.1081                28.7735                 0.2938

                     70                     71                     72
                      A                      A                      A
 Frequencies --   1491.0103              1502.8138              1515.5429
 Red. masses --      2.3146                 2.4527                 2.9299
 Frc consts  --      3.0317                 3.2637                 3.9650
 IR Inten    --     66.8046                42.7189               212.3359

                     73                     74                     75
                      A                      A                      A
 Frequencies --   1529.9391              1539.0902              1636.6589
 Red. masses --      2.7540                 2.2624                 6.2760
 Frc consts  --      3.7981                 3.1576                 9.9049
 IR Inten    --     62.3569               351.5483                18.7436

                     76                     77                     78
                      A                      A                      A
 Frequencies --   1647.8283              1650.9280              1655.2945
 Red. masses --      6.1034                 7.0795                 6.2699
 Frc consts  --      9.7644                11.3687                10.1220
 IR Inten    --      8.8480                 7.5715                 1.1683

                     79                     80                     81
                      A                      A                      A
 Frequencies --   1659.2650              1676.4804              3194.6203
 Red. masses --      5.9573                 6.2841                 1.0867
 Frc consts  --      9.6635                10.4061                 6.5345
 IR Inten    --    186.0698                75.2932                 2.5990

                     82                     83                     84
                      A                      A                      A
 Frequencies --   3200.9566              3201.1172              3201.1593
 Red. masses --      1.0906                 1.0880                 1.0880
 Frc consts  --      6.5839                 6.5686                 6.5686
 IR Inten    --     15.6177                 0.8347                 0.7496

                     85                     86                     87
                      A                      A                      A
 Frequencies --   3207.9984              3208.1190              3216.4992
 Red. masses --      1.0904                 1.0905                 1.0945
 Frc consts  --      6.6116                 6.6126                 6.6718
 IR Inten    --      3.1795                 2.7110                11.1209

                     88                     89                     90
                      A                      A                      A
 Frequencies --   3216.6309              3219.2254              3226.2307
 Red. masses --      1.0945                 1.0962                 1.0989
 Frc consts  --      6.6724                 6.6936                 6.7388
 IR Inten    --     15.0054                20.3790                18.5703

                     91                     92                     93
                      A                      A                      A
 Frequencies --   3226.3905              3236.0938              3238.9426
 Red. masses --      1.0988                 1.0926                 1.0923
 Frc consts  --      6.7393                 6.7413                 6.7516
 IR Inten    --      4.2342                 2.9352                 2.1022

 - Thermochemistry -
 -------------------
 Temperature   298.150 Kelvin.  Pressure   1.00000 Atm.
 Atom     1 has atomic number  6 and mass  12.00000

 Molecular mass:   275.07687 amu.
 Principal axes and moments of inertia in atomic units:
                           1         2         3
     Eigenvalues --  4777.949515126.941098200.38690
           X            0.99876  -0.00847  -0.04910
           Y            0.00858   0.99996   0.00201
           Z            0.04908  -0.00243   0.99879
 This molecule is an asymmetric top.
 Rotational symmetry number  1.
 Warning -- assumption of classical behavior for rotation
           may cause significant error
 Rotational temperatures (Kelvin)      0.01813     0.01689     0.01056
 Rotational constants (GHZ):           0.37772     0.35201     0.22008
 Zero-point vibrational energy     685163.5 (Joules/Mol)
                                  163.75800 (Kcal/Mol)
 Warning -- explicit consideration of  22 degrees of freedom as
           vibrations may cause significant error
 Vibrational temperatures:     45.02    60.63    96.68   116.29   209.37
          (Kelvin)            231.44   271.72   337.71   380.58   462.94
                              468.28   510.67   568.91   590.28   612.69
                              655.02   667.62   695.67   742.81   788.68
                              793.10   845.79   913.08   922.72   927.43
                             1006.54  1032.24  1036.07  1090.35  1108.49
                             1118.10  1124.57  1130.27  1147.06  1229.59
                             1297.41  1303.67  1326.49  1362.60  1369.66
                             1430.92  1434.89  1449.42  1459.53  1466.93
                             1478.82  1480.05  1533.61  1533.67  1536.05
                             1575.10  1595.17  1621.55  1662.04  1670.06
                             1695.99  1699.10  1699.79  1750.26  1761.70
                             1830.38  1871.64  1887.43  1892.71  1895.13
                             1930.05  1934.55  1983.65  2136.19  2145.23
                             2162.21  2180.53  2201.24  2214.40  2354.78
                             2370.85  2375.31  2381.60  2387.31  2412.08
                             4596.34  4605.46  4605.69  4605.75  4615.59
                             4615.76  4627.82  4628.01  4631.74  4641.82
                             4642.05  4656.01  4660.11

 Zero-point correction=                           0.260965 (Hartree/Particle)
 Thermal correction to Energy=                    0.275682
 Thermal correction to Enthalpy=                  0.276627
 Thermal correction to Gibbs Free Energy=         0.218127
 Sum of electronic and zero-point Energies=          -1146.455666
 Sum of electronic and thermal Energies=             -1146.440948
 Sum of electronic and thermal Enthalpies=           -1146.440004
 Sum of electronic and thermal Free Energies=        -1146.498504

                     E (Thermal)             CV                S
                      KCal/Mol        Cal/Mol-Kelvin    Cal/Mol-Kelvin
 Total                  172.993             60.594            123.124
 Electronic               0.000              0.000              0.000
 Translational            0.889              2.981             42.734
 Rotational               0.889              2.981             33.662
 Vibrational            171.216             54.632             46.727
 Vibration     1          0.594              1.983              5.746
 Vibration     2          0.595              1.980              5.156
 Vibration     3          0.598              1.970              4.234
 Vibration     4          0.600              1.962              3.871
 Vibration     5          0.617              1.908              2.730
 Vibration     6          0.622              1.890              2.540
 Vibration     7          0.633              1.855              2.239
 Vibration     8          0.655              1.788              1.843
 Vibration     9          0.671              1.738              1.632
 Vibration    10          0.707              1.632              1.301
 Vibration    11          0.710              1.625              1.282
 Vibration    12          0.731              1.565              1.144
 Vibration    13          0.762              1.480              0.980
 Vibration    14          0.774              1.448              0.926
 Vibration    15          0.788              1.414              0.872
 Vibration    16          0.814              1.349              0.780
 Vibration    17          0.822              1.330              0.754
 Vibration    18          0.840              1.287              0.701
 Vibration    19          0.871              1.214              0.619
 Vibration    20          0.903              1.144              0.548
 Vibration    21          0.907              1.137              0.542
 Vibration    22          0.945              1.058              0.471

 Normal termination of Gaussian 09 at Sun Apr  4 01:38:33 2021.
 Gaussian 09:  ES64L-G09RevE.01 30-Nov-2015

 ----------------------------------------------------------------------
 #p wB97XD chkbasis geom=allcheck Guess=Read int=ultrafine scrf=(SMD,so
 lvent=n,n-DiMethylAcetamide) td=(NStates=30)
 ----------------------------------------------------------------------

 Structure from the checkpoint file:  "cp.chk"
 -----
 Title
 -----
 Charge =  0 Multiplicity = 1

                         Standard orientation:
 ---------------------------------------------------------------------
 Center     Atomic      Atomic             Coordinates (Angstroms)
 Number     Number       Type             X           Y           Z
 ---------------------------------------------------------------------
      1          6           0        1.965892    3.528238    0.279518
      2          6           0        2.170925    2.503250   -0.629890
      3          6           0        1.419727    1.338386   -0.533929
      4          6           0        0.470385    1.195185    0.475355
      5          6           0        0.307923    2.206973    1.412196
      6          6           0        1.041966    3.376901    1.305253
      7          6           0        0.475647   -1.194118    0.474411
      8          6           0        1.425625   -1.332224   -0.535068
      9          6           0        2.182104   -2.493577   -0.631907
     10          1           0        2.927936   -2.590378   -1.411437
     11          6           0        1.981904   -3.520125    0.276825
     12          6           0        1.057541   -3.373688    1.302842
     13          6           0        0.318169   -2.207186    1.410711
     14          1           0        2.916379    2.603973   -1.409294
     15          1           0       -0.412100    2.074636    2.210059
     16          1           0        0.898709    4.168718    2.029476
     17          1           0        2.566320   -4.427912    0.195887
     18          1           0        0.918148   -4.166562    2.026658
     19          6           0       -1.644720   -0.003697    0.146699
     20          6           0       -2.334757   -1.204493   -0.055475
     21          6           0       -3.667371   -1.198390   -0.434275
     22          6           0       -3.669557    1.184300   -0.440496
     23          6           0       -4.352262   -0.008171   -0.627534
     24          1           0       -4.171254   -2.146141   -0.583089
     25          1           0       -4.175195    2.130311   -0.594327
     26          1           0       -1.833885   -2.152819    0.074728
     27          1           0       -5.393761   -0.009902   -0.922437
     28          1           0        2.546105    4.438787    0.199289
     29          7           0       -0.294886   -0.001171    0.541351
     30          1           0       -0.402007   -2.078613    2.209040
     31         16           0        1.665193    0.004095   -1.667301
     32          6           0       -2.336933    1.194766   -0.061917
     33          1           0       -1.837525    2.144606    0.062899
 ---------------------------------------------------------------------

 SCF Done:  E(RwB97XD) =  -1146.71663672     A.U. after    7 cycles

 Excitation energies and oscillator strengths:

 Excited State   1:      Singlet-A      4.6531 eV  266.45 nm  f=0.1562  <S**2>=0.000
      72 -> 73         0.65765
      72 -> 75         0.12376
 This state for optimization and/or second-order correction.
 Total Energy, E(TD-HF/TD-KS) =  -1146.54563669
 Copying the excited state density for this state as the 1-particle RhoCI density.

 Excited State   2:      Singlet-A      4.7006 eV  263.76 nm  f=0.0100  <S**2>=0.000
      71 -> 74         0.15282
      72 -> 76         0.63258
      72 -> 77         0.12388

 Excited State   3:      Singlet-A      4.7161 eV  262.90 nm  f=0.0124  <S**2>=0.000
      71 -> 74         0.17217
      72 -> 74         0.62482

 Excited State   4:      Singlet-A      4.8630 eV  254.95 nm  f=0.0859  <S**2>=0.000
      67 -> 76         0.10162
      68 -> 75        -0.12901
      69 -> 74        -0.10660
      71 -> 73        -0.27705
      72 -> 75         0.59153

 Excited State   5:      Singlet-A      5.1001 eV  243.10 nm  f=0.0029  <S**2>=0.000
      67 -> 73        -0.19445
      68 -> 74         0.18627
      69 -> 75         0.13158
      70 -> 73        -0.10140
      70 -> 75         0.12762
      71 -> 74         0.15693
      71 -> 76         0.38671
      72 -> 74        -0.11769
      72 -> 77        -0.37947

 Excited State   6:      Singlet-A      5.3616 eV  231.25 nm  f=0.3488  <S**2>=0.000
      71 -> 74         0.41497
      71 -> 76         0.10475
      71 -> 79        -0.22603
      72 -> 76        -0.21658
      72 -> 77         0.35048
      72 -> 79        -0.19101

 Excited State   7:      Singlet-A      5.3645 eV  231.12 nm  f=0.0964  <S**2>=0.000
      69 -> 74         0.11078
      70 -> 74         0.12144
      71 -> 73         0.44761
      71 -> 75         0.28806
      72 -> 73        -0.13965
      72 -> 75         0.29550
      72 -> 78         0.14819

 Excited State   8:      Singlet-A      5.5479 eV  223.48 nm  f=0.2526  <S**2>=0.000
      71 -> 73        -0.30013
      71 -> 75         0.43947
      72 -> 75        -0.11682
      72 -> 78         0.38608

 Excited State   9:      Singlet-A      5.6950 eV  217.71 nm  f=0.0245  <S**2>=0.000
      69 -> 76         0.12249
      70 -> 77        -0.11264
      71 -> 73         0.10920
      71 -> 75        -0.38068
      71 -> 78        -0.14133
      72 -> 78         0.49196

 Excited State  10:      Singlet-A      5.7504 eV  215.61 nm  f=0.0919  <S**2>=0.000
      67 -> 73        -0.14257
      69 -> 75         0.12511
      70 -> 73        -0.13364
      71 -> 76         0.16573
      71 -> 77        -0.16396
      71 -> 79         0.34838
      72 -> 74         0.18718
      72 -> 77         0.25362
      72 -> 79         0.30896

 Excited State  11:      Singlet-A      5.7822 eV  214.42 nm  f=0.0801  <S**2>=0.000
      67 -> 73         0.12251
      67 -> 75        -0.12439
      69 -> 73        -0.13808
      70 -> 75        -0.12538
      71 -> 74         0.40864
      71 -> 76        -0.19168
      71 -> 77         0.21859
      71 -> 79         0.21627
      72 -> 74        -0.13271
      72 -> 77        -0.16923
      72 -> 79         0.21886

 Excited State  12:      Singlet-A      6.2498 eV  198.38 nm  f=0.0482  <S**2>=0.000
      67 -> 75         0.10379
      68 -> 74        -0.20367
      69 -> 73         0.19849
      69 -> 75        -0.23326
      70 -> 73         0.23289
      70 -> 75        -0.20968
      71 -> 76         0.39739
      72 -> 74        -0.10426
      72 -> 79         0.13567

 Excited State  13:      Singlet-A      6.2565 eV  198.17 nm  f=0.1780  <S**2>=0.000
      65 -> 75         0.10232
      66 -> 73        -0.15612
      67 -> 74        -0.12798
      67 -> 76        -0.20922
      68 -> 75         0.28513
      69 -> 74         0.30531
      70 -> 74         0.22493
      70 -> 77         0.15188
      71 -> 73        -0.28416
      71 -> 75        -0.17718

 Excited State  14:      Singlet-A      6.3210 eV  196.15 nm  f=0.3231  <S**2>=0.000
      67 -> 75         0.12475
      68 -> 76         0.22526
      69 -> 73         0.33036
      69 -> 75         0.17985
      70 -> 73         0.31731
      70 -> 75         0.21870
      71 -> 74         0.18514
      71 -> 76        -0.17716
      72 -> 77        -0.14413

 Excited State  15:      Singlet-A      6.4278 eV  192.89 nm  f=0.4192  <S**2>=0.000
      67 -> 74         0.21155
      68 -> 73         0.28454
      69 -> 74         0.14602
      69 -> 77        -0.24543
      70 -> 76         0.48320
      72 -> 78         0.10023

 Excited State  16:      Singlet-A      6.4452 eV  192.37 nm  f=0.2571  <S**2>=0.000
      67 -> 78         0.10549
      68 -> 74         0.11736
      68 -> 76        -0.11179
      69 -> 73        -0.12752
      69 -> 78         0.27926
      70 -> 73         0.22281
      70 -> 75         0.25618
      70 -> 78        -0.27319
      71 -> 77         0.20187
      72 -> 76         0.12702
      72 -> 77         0.27621

 Excited State  17:      Singlet-A      6.5419 eV  189.52 nm  f=0.2631  <S**2>=0.000
      66 -> 75         0.10805
      67 -> 74         0.21965
      67 -> 77         0.13939
      68 -> 73         0.17959
      69 -> 76         0.35509
      70 -> 74         0.32602
      70 -> 76        -0.10423
      70 -> 77        -0.19964
      71 -> 78        -0.11371
      72 -> 78        -0.17399

 Excited State  18:      Singlet-A      6.7532 eV  183.59 nm  f=0.2277  <S**2>=0.000
      67 -> 73         0.16168
      67 -> 75         0.21503
      68 -> 79        -0.10393
      70 -> 75         0.14725
      71 -> 79        -0.34080
      72 -> 79         0.44479

 Excited State  19:      Singlet-A      6.8282 eV  181.58 nm  f=0.0155  <S**2>=0.000
      67 -> 73         0.16646
      67 -> 75        -0.22778
      68 -> 74         0.14188
      69 -> 73         0.18199
      69 -> 75         0.22210
      69 -> 78        -0.13096
      70 -> 78         0.17842
      71 -> 74        -0.14056
      71 -> 76         0.17594
      71 -> 77         0.43321

 Excited State  20:      Singlet-A      6.8469 eV  181.08 nm  f=0.2176  <S**2>=0.000
      67 -> 73         0.34695
      67 -> 75         0.25589
      68 -> 76        -0.15206
      69 -> 75         0.17062
      70 -> 75         0.20735
      70 -> 78         0.10944
      71 -> 79         0.25742
      72 -> 79        -0.22203

 Excited State  21:      Singlet-A      6.8847 eV  180.09 nm  f=0.4479  <S**2>=0.000
      66 -> 74         0.13500
      67 -> 73        -0.31263
      67 -> 75         0.33457
      68 -> 74        -0.12160
      68 -> 77        -0.10185
      70 -> 73        -0.25730
      71 -> 77         0.34514

 Excited State  22:      Singlet-A      6.8937 eV  179.85 nm  f=0.1235  <S**2>=0.000
      67 -> 74         0.13689
      68 -> 78        -0.11797
      70 -> 74         0.14424
      71 -> 78         0.50556
      71 -> 80         0.14342
      72 -> 80         0.22179
      72 -> 81        -0.11880

 Excited State  23:      Singlet-A      6.9580 eV  178.19 nm  f=0.5051  <S**2>=0.000
      67 -> 74        -0.13369
      67 -> 76        -0.25380
      67 -> 77         0.12295
      68 -> 73         0.35582
      69 -> 74        -0.21988
      69 -> 76         0.10828
      70 -> 74        -0.26161
      70 -> 76        -0.13922
      71 -> 78         0.26214

 Excited State  24:      Singlet-A      7.1136 eV  174.29 nm  f=0.0120  <S**2>=0.000
      67 -> 74        -0.21816
      69 -> 76         0.16965
      70 -> 74        -0.11590
      71 -> 78        -0.20395
      71 -> 80         0.14559
      71 -> 81        -0.16150
      71 -> 82        -0.13817
      72 -> 80         0.31368
      72 -> 81        -0.30591
      72 -> 82        -0.21158

 Excited State  25:      Singlet-A      7.1707 eV  172.90 nm  f=0.0270  <S**2>=0.000
      67 -> 74        -0.29556
      68 -> 73        -0.15242
      69 -> 74         0.10272
      69 -> 76         0.35310
      70 -> 76         0.23846
      70 -> 77        -0.11049
      71 -> 78         0.20445
      72 -> 80        -0.25457

 Excited State  26:      Singlet-A      7.2385 eV  171.28 nm  f=0.0035  <S**2>=0.000
      68 -> 74        -0.11043
      68 -> 76        -0.37412
      69 -> 73         0.42458
      69 -> 78         0.12156
      70 -> 73        -0.23248
      70 -> 78        -0.14835
      71 -> 77        -0.11194

 Excited State  27:      Singlet-A      7.2550 eV  170.89 nm  f=0.0499  <S**2>=0.000
      67 -> 76        -0.16238
      68 -> 73        -0.11413
      68 -> 75        -0.17698
      69 -> 76         0.20643
      71 -> 80        -0.14042
      72 -> 80         0.33725
      72 -> 81         0.33704
      72 -> 82         0.17960
      72 -> 84        -0.13160
      72 -> 87        -0.12942

 Excited State  28:      Singlet-A      7.2958 eV  169.94 nm  f=0.0005  <S**2>=0.000
      67 -> 73         0.21331
      67 -> 75         0.13775
      68 -> 74         0.47740
      68 -> 76         0.12216
      69 -> 73         0.17733
      69 -> 75        -0.24498
      70 -> 73        -0.19646

 Excited State  29:      Singlet-A      7.3138 eV  169.52 nm  f=0.1400  <S**2>=0.000
      67 -> 76         0.21941
      67 -> 77        -0.10604
      68 -> 75         0.49135
      69 -> 74        -0.26840
      70 -> 76         0.15223
      72 -> 80         0.10837
      72 -> 81         0.16916

 Excited State  30:      Singlet-A      7.3770 eV  168.07 nm  f=0.0170  <S**2>=0.000
      64 -> 76        -0.13818
      66 -> 73         0.12219
      67 -> 74        -0.27105
      67 -> 76         0.25647
      68 -> 73         0.33735
      69 -> 74         0.23987
      69 -> 76        -0.12766
      70 -> 76        -0.12339
      70 -> 77        -0.16538
      72 -> 81         0.11707

 The electronic state is 1-A.
 Alpha  occ. eigenvalues --  -89.03855 -14.46794 -10.33779 -10.33529 -10.33526
 Alpha  occ. eigenvalues --  -10.32778 -10.32776 -10.29636 -10.29636 -10.29313
 Alpha  occ. eigenvalues --  -10.29313 -10.29151 -10.29151 -10.29069 -10.29069
 Alpha  occ. eigenvalues --  -10.28523 -10.28522 -10.28026 -10.28025 -10.27538
 Alpha  occ. eigenvalues --   -8.07197  -6.02052  -6.01699  -6.01151  -1.08353
 Alpha  occ. eigenvalues --   -0.97682  -0.97472  -0.94817  -0.91174  -0.86831
 Alpha  occ. eigenvalues --   -0.85899  -0.85776  -0.84377  -0.82482  -0.78646
 Alpha  occ. eigenvalues --   -0.73035  -0.72904  -0.70175  -0.69379  -0.69373
 Alpha  occ. eigenvalues --   -0.65832  -0.63213  -0.63062  -0.58900  -0.57253
 Alpha  occ. eigenvalues --   -0.57195  -0.55782  -0.55221  -0.53596  -0.52988
 Alpha  occ. eigenvalues --   -0.52888  -0.51480  -0.51062  -0.50415  -0.49825
 Alpha  occ. eigenvalues --   -0.48169  -0.46813  -0.46749  -0.45856  -0.44375
 Alpha  occ. eigenvalues --   -0.43788  -0.43068  -0.42541  -0.41742  -0.40002
 Alpha  occ. eigenvalues --   -0.38728  -0.34471  -0.34403  -0.33609  -0.33199
 Alpha  occ. eigenvalues --   -0.29924  -0.27508
 Alpha virt. eigenvalues --    0.03923   0.04308   0.04412   0.04687   0.06683
 Alpha virt. eigenvalues --    0.07277   0.09526   0.12751   0.13625   0.14959
 Alpha virt. eigenvalues --    0.15170   0.15575   0.16229   0.17341   0.17617

 Mulliken charges:
               1
     1  C   -0.180868
     2  C   -0.153035
     3  C   -0.074515
     4  C    0.195132
     5  C   -0.341960
     6  C   -0.079697
     7  C    0.196706
     8  C   -0.075264
     9  C   -0.152870
    10  H    0.165339
    11  C   -0.181062
    12  C   -0.079554
    13  C   -0.342941
    14  H    0.165336
    15  H    0.170957
    16  H    0.165575
    17  H    0.166721
    18  H    0.165563
    19  C    0.250483
    20  C   -0.325483
    21  C   -0.135557
    22  C   -0.135702
    23  C   -0.227922
    24  H    0.160016
    25  H    0.160008
    26  H    0.181337
    27  H    0.157837
    28  H    0.166735
    29  N    0.030136
    30  H    0.171365
    31  S   -0.039372
    32  C   -0.324687
    33  H    0.181244
 Sum of Mulliken charges =  -0.00000

 Dipole moment (field-independent basis, Debye):
    X=              1.1569    Y=              0.0018    Z=              1.8023  Tot=              2.1417
 Quadrupole moment (field-independent basis, Debye-Ang):
   XX=           -117.3722   YY=            -98.4821   ZZ=           -122.4688
   XY=             -0.0351   XZ=             -2.5975   YZ=             -0.0285

 1\1\GINC-CN029\SP\RwB97XD TD-FC\Gen\C18H13N1S1\PNG4RJV\04-Apr-2021\0\\
 #p wB97XD chkbasis geom=allcheck Guess=Read int=ultrafine scrf=(SMD,so
 lvent=n,n-DiMethylAcetamide) td=(NStates=30)\\Title\\0,1\C,0,-1.944286
 0236,3.5246712116,-0.4037915108\C,0,-2.1885445554,2.499668531,0.495858
 6349\C,0,-1.423077985,1.3413613386,0.4429338586\C,0,-0.4199949829,1.20
 46623501,-0.5139094859\C,0,-0.2166664165,2.2160321867,-1.4431932877\C,
 0,-0.965632406,3.3795781835,-1.3783988311\C,0,-0.4042849012,-1.1845864
 901,-0.5074667758\C,0,-1.4055386885,-1.3291873509,0.4502179783\C,0,-2.

 Normal termination of Gaussian 09 at Sun Apr  4 03:25:01 2021.
