 Gaussian 09, Revision E.01,

 ----------------------------------------------------------------------
 #p hf/def2TZVP opt freq=noraman nosymm int=ultrafine scrf=(SMD,solvent
 =n,n-DiMethylAcetamide)
 ----------------------------------------------------------------------

 -----
 Title
 -----
 Symbolic Z-matrix:
 Charge =  0 Multiplicity = 1

 SCF Done:  E(RHF) =  -1141.44938092     A.U. after   15 cycles
 SCF Done:  E(RHF) =  -1141.45737620     A.U. after   12 cycles
 SCF Done:  E(RHF) =  -1141.45769841     A.U. after   12 cycles
 SCF Done:  E(RHF) =  -1141.45780564     A.U. after   12 cycles
 SCF Done:  E(RHF) =  -1141.45786638     A.U. after   12 cycles
 SCF Done:  E(RHF) =  -1141.45788064     A.U. after   10 cycles
 SCF Done:  E(RHF) =  -1141.45788446     A.U. after   10 cycles
 SCF Done:  E(RHF) =  -1141.45788479     A.U. after    7 cycles
 SCF Done:  E(RHF) =  -1141.45788485     A.U. after    7 cycles
 Optimization completed.
    -- Stationary point found.
 Normal termination of Gaussian 09 at Sat Apr  3 21:39:20 2021.

 -----------------------------------------------------------------
 #P Geom=AllCheck Guess=TCheck SCRF=Check GenChk RHF/def2TZVP Freq
 -----------------------------------------------------------------

 Structure from the checkpoint file:  "cp.chk"
 -----
 Title
 -----
 Charge =  0 Multiplicity = 1

 SCF Done:  E(RHF) =  -1141.45788485     A.U. after    1 cycles

  Exact polarizability: 312.391  -0.489 375.974 -18.843  -0.365 263.893
 Approx polarizability: 205.829  -0.238 235.363 -13.314  -0.176 192.767

                      1                      2                      3
                      A                      A                      A
 Frequencies --     38.3219                43.2016                73.9001
 Red. masses --      3.7018                 6.1964                 5.5778
 Frc consts  --      0.0032                 0.0068                 0.0179
 IR Inten    --      0.0118                 1.0664                 3.7601

                      4                      5                      6
                      A                      A                      A
 Frequencies --     87.8670               153.3680               174.0532
 Red. masses --      4.8519                 4.0601                 4.3306
 Frc consts  --      0.0221                 0.0563                 0.0773
 IR Inten    --      0.0334                 0.0131                 0.9134

                      7                      8                      9
                      A                      A                      A
 Frequencies --    207.0283               252.4453               284.3263
 Red. masses --      5.3189                 5.7780                 5.0346
 Frc consts  --      0.1343                 0.2170                 0.2398
 IR Inten    --      0.2644                 2.3296                 0.0030

                     10                     11                     12
                      A                      A                      A
 Frequencies --    343.3294               346.1668               378.2699
 Red. masses --      5.8377                 5.0713                 5.4039
 Frc consts  --      0.4054                 0.3580                 0.4556
 IR Inten    --      2.4331                 4.8527                 5.9821

                     13                     14                     15
                      A                      A                      A
 Frequencies --    416.3539               442.0014               458.7758
 Red. masses --      5.1498                10.4077                 2.9534
 Frc consts  --      0.5260                 1.1980                 0.3663
 IR Inten    --      0.2799                10.1283                 0.0038

                     16                     17                     18
                      A                      A                      A
 Frequencies --    480.4677               501.4104               523.7610
 Red. masses --     10.0879                 3.3156                 3.8469
 Frc consts  --      1.3721                 0.4911                 0.6218
 IR Inten    --      0.7649                 0.4109                41.9202

                     19                     20                     21
                      A                      A                      A
 Frequencies --    558.4940               588.7317               590.9432
 Red. masses --      3.1122                 4.7609                 3.9225
 Frc consts  --      0.5720                 0.9722                 0.8071
 IR Inten    --     11.3548                 1.9307                 2.1050

                     22                     23                     24
                      A                      A                      A
 Frequencies --    633.0163               672.6983               681.3613
 Red. masses --      5.0497                 6.1486                 4.8903
 Frc consts  --      1.1922                 1.6393                 1.3376
 IR Inten    --     10.3066                 0.0134                39.4860

                     25                     26                     27
                      A                      A                      A
 Frequencies --    683.3783               739.0847               757.0619
 Red. masses --      6.4360                 6.3480                 6.5737
 Frc consts  --      1.7709                 2.0430                 2.2198
 IR Inten    --     11.2394                 1.7328                 8.3178

                     28                     29                     30
                      A                      A                      A
 Frequencies --    773.0957               797.3936               828.5461
 Red. masses --      1.9498                 5.7426                 3.1961
 Frc consts  --      0.6866                 2.1513                 1.2927
 IR Inten    --     51.2595                 5.9577                16.4745

                     31                     32                     33
                      A                      A                      A
 Frequencies --    839.2057               847.5218               854.1924
 Red. masses --      2.3179                 1.6550                 1.3612
 Frc consts  --      0.9618                 0.7004                 0.5852
 IR Inten    --    109.0727               109.3832                36.5804

                     34                     35                     36
                      A                      A                      A
 Frequencies --    863.0981               931.8796               973.1553
 Red. masses --      1.7946                 1.2548                 1.9254
 Frc consts  --      0.7877                 0.6420                 1.0743
 IR Inten    --    135.6643                 0.0544                 9.7241

                     37                     38                     39
                      A                      A                      A
 Frequencies --    984.2869              1005.1438              1005.7104
 Red. masses --      1.8414                 3.0082                 1.4791
 Frc consts  --      1.0511                 1.7907                 0.8814
 IR Inten    --      0.3114                 0.4172                17.3178

                     40                     41                     42
                      A                      A                      A
 Frequencies --   1020.0335              1072.7757              1089.4178
 Red. masses --      2.7527                 5.7236                 1.3948
 Frc consts  --      1.6875                 3.8809                 0.9754
 IR Inten    --      1.6810                 9.3289                 1.7382

                     43                     44                     45
                      A                      A                      A
 Frequencies --   1091.1466              1105.2658              1113.3501
 Red. masses --      1.4512                 1.3578                 1.3137
 Frc consts  --      1.0180                 0.9773                 0.9594
 IR Inten    --      6.1868                 0.0571                 0.8652

                     46                     47                     48
                      A                      A                      A
 Frequencies --   1118.4024              1120.5638              1122.5051
 Red. masses --      2.6318                 2.6316                 1.8235
 Frc consts  --      1.9396                 1.9469                 1.3538
 IR Inten    --      3.2436                20.2029                14.8508

                     49                     50                     51
                      A                      A                      A
 Frequencies --   1123.6144              1125.0895              1160.1317
 Red. masses --      1.3472                 1.5705                 3.3527
 Frc consts  --      1.0021                 1.1713                 2.6586
 IR Inten    --      0.0841                 8.6011                 4.9019

                     52                     53                     54
                      A                      A                      A
 Frequencies --   1174.4632              1178.4243              1184.0902
 Red. masses --      3.6927                 3.3097                 3.0921
 Frc consts  --      3.0010                 2.7079                 2.5543
 IR Inten    --     10.6080                 5.4995                 9.2696

                     55                     56                     57
                      A                      A                      A
 Frequencies --   1188.3409              1192.2232              1225.0919
 Red. masses --      1.9447                 2.0829                 1.7750
 Frc consts  --      1.6180                 1.7443                 1.5696
 IR Inten    --     17.8578                10.2277                14.8271

                     58                     59                     60
                      A                      A                      A
 Frequencies --   1228.6773              1282.2954              1292.4298
 Red. masses --      1.7745                 2.6365                 1.3514
 Frc consts  --      1.5783                 2.5542                 1.3300
 IR Inten    --      8.7509                58.7474                 0.0515

                     61                     62                     63
                      A                      A                      A
 Frequencies --   1295.1399              1299.0955              1303.2130
 Red. masses --      1.2433                 1.3608                 1.5431
 Frc consts  --      1.2287                 1.3531                 1.5441
 IR Inten    --     18.7283                 1.2479                15.5578

                     64                     65                     66
                      A                      A                      A
 Frequencies --   1354.8173              1384.1993              1403.4426
 Red. masses --      1.9586                 2.7466                 2.0728
 Frc consts  --      2.1182                 3.1006                 2.4055
 IR Inten    --     27.2339               371.8716               123.2046

                     67                     68                     69
                      A                      A                      A
 Frequencies --   1415.6217              1484.6827              1586.4759
 Red. masses --      2.0962                 1.3885                 2.0470
 Frc consts  --      2.4750                 1.8033                 3.0356
 IR Inten    --     39.7011                14.0660                 3.5280

                     70                     71                     72
                      A                      A                      A
 Frequencies --   1591.8821              1603.2348              1620.2467
 Red. masses --      2.1006                 2.2703                 2.6470
 Frc consts  --      3.1364                 3.4381                 4.0942
 IR Inten    --     67.0869                21.0369               203.7329

                     73                     74                     75
                      A                      A                      A
 Frequencies --   1633.0612              1646.1019              1738.6571
 Red. masses --      2.5259                 2.0227                 5.7361
 Frc consts  --      3.9689                 3.2293                10.2163
 IR Inten    --     68.0481               263.8143                10.0201

                     76                     77                     78
                      A                      A                      A
 Frequencies --   1751.1766              1752.5262              1762.0808
 Red. masses --      5.3689                 6.4557                 5.6115
 Frc consts  --      9.7005                11.6821                10.2655
 IR Inten    --     23.7331                 8.1957                 2.4663

                     79                     80                     81
                      A                      A                      A
 Frequencies --   1762.9122              1780.0160              3320.5615
 Red. masses --      5.2098                 5.6177                 1.0876
 Frc consts  --      9.5396                10.4872                 7.0652
 IR Inten    --    197.6379                44.3208                 2.1590

                     82                     83                     84
                      A                      A                      A
 Frequencies --   3328.5177              3329.0314              3329.1261
 Red. masses --      1.0921                 1.0880                 1.0880
 Frc consts  --      7.1288                 7.1041                 7.1043
 IR Inten    --     27.4172                 0.1501                 0.2253

                     85                     86                     87
                      A                      A                      A
 Frequencies --   3338.4545              3338.5497              3347.4806
 Red. masses --      1.0917                 1.0918                 1.0975
 Frc consts  --      7.1685                 7.1695                 7.2459
 IR Inten    --      9.0890                 5.6892                45.8894

                     88                     89                     90
                      A                      A                      A
 Frequencies --   3348.0267              3348.1583              3356.4349
 Red. masses --      1.0955                 1.0956                 1.0989
 Frc consts  --      7.2349                 7.2363                 7.2942
 IR Inten    --     11.5543                25.5404                25.9873

                     91                     92                     93
                      A                      A                      A
 Frequencies --   3356.7115              3382.9239              3383.6446
 Red. masses --      1.0989                 1.0925                 1.0924
 Frc consts  --      7.2954                 7.3665                 7.3691
 IR Inten    --      8.7942                 5.7590                 5.5252

 - Thermochemistry -
 -------------------
 Temperature   298.150 Kelvin.  Pressure   1.00000 Atm.
 Atom     1 has atomic number  6 and mass  12.00000

 Molecular mass:   275.07687 amu.
 Principal axes and moments of inertia in atomic units:
                           1         2         3
     Eigenvalues --  4771.613125088.372128054.73470
           X            0.99736  -0.00651  -0.07234
           Y            0.00666   0.99998   0.00191
           Z            0.07232  -0.00238   0.99738
 This molecule is an asymmetric top.
 Rotational symmetry number  1.
 Warning -- assumption of classical behavior for rotation
           may cause significant error
 Rotational temperatures (Kelvin)      0.01815     0.01702     0.01075
 Rotational constants (GHZ):           0.37822     0.35468     0.22406
 Zero-point vibrational energy     721931.9 (Joules/Mol)
                                  172.54586 (Kcal/Mol)
 Warning -- explicit consideration of  21 degrees of freedom as
           vibrations may cause significant error
 Vibrational temperatures:     55.14    62.16   106.33   126.42   220.66
          (Kelvin)            250.42   297.87   363.21   409.08   493.97
                              498.06   544.25   599.04   635.94   660.08
                              691.28   721.42   753.57   803.55   847.05
                              850.23   910.77   967.86   980.33   983.23
                             1063.38  1089.24  1112.31  1147.27  1192.09
                             1207.43  1219.39  1228.99  1241.80  1340.77
                             1400.15  1416.17  1446.18  1446.99  1467.60
                             1543.48  1567.43  1569.91  1590.23  1601.86
                             1609.13  1612.24  1615.03  1616.63  1618.75
                             1669.17  1689.79  1695.49  1703.64  1709.76
                             1715.34  1762.63  1767.79  1844.93  1859.52
                             1863.42  1869.11  1875.03  1949.28  1991.55
                             2019.24  2036.76  2136.12  2282.58  2290.36
                             2306.69  2331.17  2349.61  2368.37  2501.54
                             2519.55  2521.49  2535.24  2536.43  2561.04
                             4777.54  4788.99  4789.73  4789.86  4803.29
                             4803.42  4816.27  4817.06  4817.25  4829.16
                             4829.55  4867.27  4868.30

 Zero-point correction=                           0.274969 (Hartree/Particle)
 Thermal correction to Energy=                    0.288768
 Thermal correction to Enthalpy=                  0.289712
 Thermal correction to Gibbs Free Energy=         0.233040
 Sum of electronic and zero-point Energies=          -1141.182916
 Sum of electronic and thermal Energies=             -1141.169117
 Sum of electronic and thermal Enthalpies=           -1141.168172
 Sum of electronic and thermal Free Energies=        -1141.224845

                     E (Thermal)             CV                S
                      KCal/Mol        Cal/Mol-Kelvin    Cal/Mol-Kelvin
 Total                  181.205             56.543            119.277
 Electronic               0.000              0.000              0.000
 Translational            0.889              2.981             42.734
 Rotational               0.889              2.981             33.636
 Vibrational            179.427             50.582             42.907
 Vibration     1          0.594              1.982              5.344
 Vibration     2          0.595              1.980              5.107
 Vibration     3          0.599              1.966              4.047
 Vibration     4          0.601              1.958              3.707
 Vibration     5          0.619              1.899              2.630
 Vibration     6          0.627              1.874              2.391
 Vibration     7          0.641              1.830              2.070
 Vibration     8          0.664              1.759              1.713
 Vibration     9          0.683              1.703              1.508
 Vibration    10          0.722              1.589              1.197
 Vibration    11          0.724              1.583              1.184
 Vibration    12          0.749              1.516              1.046
 Vibration    13          0.780              1.435              0.904
 Vibration    14          0.802              1.379              0.820
 Vibration    15          0.817              1.341              0.770
 Vibration    16          0.837              1.293              0.709
 Vibration    17          0.857              1.247              0.655
 Vibration    18          0.879              1.197              0.601
 Vibration    19          0.914              1.121              0.527
 Vibration    20          0.946              1.056              0.469
 Vibration    21          0.948              1.051              0.465

 Normal termination of Gaussian 09 at Sat Apr  3 23:13:12 2021.
 Gaussian 09:  ES64L-G09RevE.01 30-Nov-2015

 ----------------------------------------------------------------------
 #p hf chkbasis geom=allcheck Guess=Read int=ultrafine scrf=(SMD,solven
 t=n,n-DiMethylAcetamide) td=(NStates=30)
 ----------------------------------------------------------------------

 Structure from the checkpoint file:  "cp.chk"
 -----
 Title
 -----
 Charge =  0 Multiplicity = 1

                         Standard orientation:
 ---------------------------------------------------------------------
 Center     Atomic      Atomic             Coordinates (Angstroms)
 Number     Number       Type             X           Y           Z
 ---------------------------------------------------------------------
      1          6           0       -1.996437   -3.497508    0.230621
      2          6           0       -2.116673   -2.486460   -0.702150
      3          6           0       -1.360146   -1.334869   -0.567370
      4          6           0       -0.485953   -1.190835    0.498253
      5          6           0       -0.407270   -2.186877    1.454154
      6          6           0       -1.149517   -3.343241    1.314221
      7          6           0       -0.485343    1.191139    0.498098
      8          6           0       -1.359304    1.335570   -0.567675
      9          6           0       -2.115042    2.487639   -0.702752
     10          1           0       -2.798904    2.588633   -1.524504
     11          6           0       -1.994455    3.498659    0.230009
     12          6           0       -1.147918    3.343948    1.313833
     13          6           0       -0.406397    2.187142    1.454019
     14          1           0       -2.800794   -2.587062   -1.523736
     15          1           0        0.249524   -2.058211    2.293589
     16          1           0       -1.072315   -4.118511    2.053098
     17          1           0       -2.577204    4.394144    0.122749
     18          1           0       -1.070546    4.119170    2.052738
     19          6           0        1.634209   -0.000411    0.187013
     20          6           0        2.324556    1.193095   -0.017466
     21          6           0        3.650796    1.184428   -0.404668
     22          6           0        3.649653   -1.186411   -0.406275
     23          6           0        4.331446   -0.001184   -0.602398
     24          1           0        4.150562    2.124069   -0.554116
     25          1           0        4.148542   -2.126314   -0.556982
     26          1           0        1.837839    2.135918    0.118806
     27          1           0        5.362078   -0.001478   -0.903058
     28          1           0       -2.579726   -4.392672    0.123566
     29          7           0        0.287305   -0.000047    0.610317
     30          1           0        0.250087    2.058147    2.293642
     31         16           0       -1.517720    0.000265   -1.720354
     32          6           0        2.323383   -1.194309   -0.019143
     33          1           0        1.835702   -2.136848    0.115723
 ---------------------------------------------------------------------

 SCF Done:  E(RHF) =  -1141.45788732     A.U. after    8 cycles

 Excitation energies and oscillator strengths:

 Excited State   1:      Singlet-A      5.4026 eV  229.49 nm  f=0.0617  <S**2>=0.000
      67 -> 76        -0.11588
      67 -> 77        -0.12076
      68 -> 73        -0.12363
      68 -> 75        -0.17748
      69 -> 73        -0.12460
      70 -> 73        -0.10929
      70 -> 75         0.21028
      71 -> 74         0.27617
      71 -> 76         0.28194
      71 -> 79         0.10637
      72 -> 76        -0.33014
 This state for optimization and/or second-order correction.
 Total Energy, E(TD-HF/TD-KS) =  -1141.25934475
 Copying the excited state density for this state as the 1-particle RhoCI density.

 Excited State   2:      Singlet-A      5.5153 eV  224.80 nm  f=0.0187  <S**2>=0.000
      67 -> 76         0.10373
      67 -> 77        -0.10775
      69 -> 78         0.17869
      70 -> 78        -0.13780
      71 -> 74         0.13868
      71 -> 76        -0.12412
      71 -> 77         0.16068
      72 -> 74         0.47875
      72 -> 76        -0.20054
      72 -> 77         0.23288

 Excited State   3:      Singlet-A      5.5611 eV  222.95 nm  f=0.1123  <S**2>=0.000
      67 -> 73         0.16555
      67 -> 78        -0.11949
      68 -> 77         0.12138
      69 -> 74        -0.16905
      69 -> 76         0.15313
      70 -> 74         0.10384
      70 -> 76         0.10314
      70 -> 77         0.13182
      71 -> 73         0.17685
      71 -> 78         0.18241
      72 -> 73         0.10293
      72 -> 75        -0.38265
      72 -> 78         0.27754

 Excited State   4:      Singlet-A      5.6805 eV  218.26 nm  f=0.0047  <S**2>=0.000
      67 -> 73        -0.12738
      67 -> 75        -0.21720
      68 -> 76         0.20323
      68 -> 77         0.14375
      69 -> 74         0.12836
      69 -> 76         0.12172
      70 -> 74         0.20653
      70 -> 77        -0.15687
      71 -> 73         0.31423
      71 -> 75        -0.18603
      72 -> 73        -0.33570

 Excited State   5:      Singlet-A      5.7738 eV  214.74 nm  f=0.0092  <S**2>=0.000
      67 -> 74        -0.20906
      67 -> 76        -0.17046
      68 -> 73        -0.23879
      68 -> 75         0.17698
      69 -> 75         0.17244
      70 -> 73         0.26320
      70 -> 75         0.18233
      71 -> 74         0.12142
      71 -> 76        -0.26779
      71 -> 77        -0.16574
      72 -> 74        -0.11282
      72 -> 77         0.20641

 Excited State   6:      Singlet-A      5.8107 eV  213.37 nm  f=0.0479  <S**2>=0.000
      67 -> 73        -0.17665
      68 -> 74         0.22408
      69 -> 77        -0.20650
      70 -> 74         0.10662
      70 -> 76        -0.19392
      71 -> 73        -0.17964
      71 -> 75        -0.29698
      72 -> 78         0.36455

 Excited State   7:      Singlet-A      6.0345 eV  205.46 nm  f=0.0309  <S**2>=0.000
      66 -> 76         0.13589
      66 -> 79         0.14031
      67 -> 74        -0.10569
      67 -> 77         0.11834
      68 -> 75         0.14010
      69 -> 73         0.15417
      70 -> 73         0.17489
      70 -> 75        -0.14315
      71 -> 79         0.32295
      71 -> 83        -0.14819
      71 -> 85        -0.12165
      71 -> 93         0.13693
      72 -> 79        -0.21625

 Excited State   8:      Singlet-A      6.5819 eV  188.37 nm  f=0.6311  <S**2>=0.000
      67 -> 75        -0.16758
      68 -> 76         0.15044
      69 -> 74         0.26048
      69 -> 77         0.11971
      70 -> 76         0.12376
      70 -> 77        -0.10014
      71 -> 73        -0.12933
      71 -> 75        -0.28808
      72 -> 73         0.33185
      72 -> 75        -0.26433

 Excited State   9:      Singlet-A      6.7643 eV  183.29 nm  f=1.3854  <S**2>=0.000
      67 -> 76         0.22242
      68 -> 75        -0.21185
      69 -> 75        -0.20550
      70 -> 73         0.18914
      71 -> 74         0.27101
      71 -> 76         0.21146
      71 -> 79        -0.12922
      72 -> 74        -0.13524
      72 -> 76         0.20611
      72 -> 77         0.22048

 Excited State  10:      Singlet-A      6.7932 eV  182.51 nm  f=0.0069  <S**2>=0.000
      67 -> 74         0.18889
      67 -> 77        -0.14458
      68 -> 73        -0.28130
      69 -> 73        -0.21961
      70 -> 73        -0.12037
      70 -> 75        -0.13321
      71 -> 74         0.14879
      71 -> 76        -0.13344
      71 -> 77        -0.18360
      71 -> 79         0.12789
      72 -> 74         0.16033
      72 -> 76         0.29999
      72 -> 79        -0.11631

 Excited State  11:      Singlet-A      6.7942 eV  182.49 nm  f=0.6188  <S**2>=0.000
      67 -> 73         0.23007
      68 -> 77         0.12470
      69 -> 74        -0.14265
      71 -> 73         0.23821
      71 -> 75        -0.26919
      72 -> 73         0.27939
      72 -> 75         0.35598

 Excited State  12:      Singlet-A      7.0426 eV  176.05 nm  f=0.8278  <S**2>=0.000
      67 -> 73         0.11241
      68 -> 74        -0.11906
      69 -> 74         0.20981
      69 -> 77         0.21465
      70 -> 74        -0.21591
      70 -> 76         0.21584
      71 -> 78         0.11385
      72 -> 73        -0.20210
      72 -> 75         0.14886
      72 -> 78         0.37774

 Excited State  13:      Singlet-A      7.2579 eV  170.83 nm  f=0.9960  <S**2>=0.000
      67 -> 76        -0.10219
      68 -> 78        -0.14874
      69 -> 78         0.40457
      70 -> 73        -0.15526
      70 -> 75         0.26299
      70 -> 78        -0.23066
      71 -> 74        -0.13418
      72 -> 76         0.27159

 Excited State  14:      Singlet-A      7.3414 eV  168.88 nm  f=0.1755  <S**2>=0.000
      66 -> 75        -0.11836
      67 -> 75        -0.26126
      69 -> 76         0.22559
      70 -> 74         0.23939
      70 -> 76         0.28943
      71 -> 73        -0.35294
      72 -> 75         0.15051
      72 -> 78        -0.10166

 Excited State  15:      Singlet-A      7.4213 eV  167.06 nm  f=0.0998  <S**2>=0.000
      65 -> 76         0.12442
      67 -> 74        -0.12398
      68 -> 75        -0.11083
      69 -> 75         0.20942
      69 -> 78        -0.18746
      70 -> 75         0.26792
      70 -> 78         0.20130
      71 -> 76         0.18026
      71 -> 77         0.13515
      72 -> 74         0.25627
      72 -> 76         0.24467
      72 -> 77         0.12372

 Excited State  16:      Singlet-A      7.6298 eV  162.50 nm  f=0.1631  <S**2>=0.000
      65 -> 73         0.11438
      65 -> 75         0.11478
      67 -> 73        -0.21512
      69 -> 74         0.17145
      70 -> 74         0.18668
      70 -> 77        -0.18774
      71 -> 73         0.13833
      71 -> 75         0.30580
      71 -> 78         0.10854
      72 -> 73         0.30627
      72 -> 75         0.19027
      72 -> 78         0.14659

 Excited State  17:      Singlet-A      7.7920 eV  159.12 nm  f=0.0180  <S**2>=0.000
      65 -> 74         0.10299
      66 -> 74        -0.12571
      68 -> 73        -0.12412
      70 -> 73         0.31234
      71 -> 77        -0.12847
      72 -> 74         0.26582
      72 -> 77        -0.41686

 Excited State  18:      Singlet-A      7.8018 eV  158.92 nm  f=0.2052  <S**2>=0.000
      66 -> 75         0.13470
      67 -> 73         0.14769
      68 -> 76         0.26924
      70 -> 74        -0.12204
      70 -> 76        -0.11608
      71 -> 78         0.10485
      71 -> 81         0.14378
      71 -> 84         0.22993
      71 -> 88        -0.10440
      71 -> 94         0.17304
      71 -> 95         0.12318
      72 -> 81        -0.14920
      72 -> 84        -0.19593
      72 -> 94        -0.11437

 Excited State  19:      Singlet-A      7.9614 eV  155.73 nm  f=0.0373  <S**2>=0.000
      66 -> 75         0.10994
      67 -> 75        -0.10413
      68 -> 74         0.18988
      68 -> 76         0.19325
      70 -> 74        -0.12209
      71 -> 75         0.12666
      71 -> 82        -0.15255
      71 -> 84        -0.14294
      72 -> 80         0.33080
      72 -> 81         0.14273
      72 -> 84         0.26277
      72 -> 86        -0.10806
      72 -> 92        -0.12590

 Excited State  20:      Singlet-A      8.0527 eV  153.97 nm  f=0.0122  <S**2>=0.000
      67 -> 75         0.13321
      68 -> 74        -0.16692
      68 -> 76        -0.15803
      71 -> 75        -0.13763
      71 -> 80         0.17711
      71 -> 81         0.15618
      71 -> 84         0.16749
      72 -> 80         0.37818
      72 -> 82        -0.16618
      72 -> 86        -0.12645
      72 -> 94        -0.12527

 Excited State  21:      Singlet-A      8.1056 eV  152.96 nm  f=0.0909  <S**2>=0.000
      65 -> 74         0.10816
      66 -> 74         0.10581
      66 -> 76         0.14004
      67 -> 76        -0.11887
      68 -> 73         0.11078
      68 -> 75         0.36341
      70 -> 75        -0.10545
      71 -> 74         0.28717
      71 -> 76         0.24433
      71 -> 79        -0.15016
      72 -> 77        -0.14663
      72 -> 79         0.10446

 Excited State  22:      Singlet-A      8.2827 eV  149.69 nm  f=0.0061  <S**2>=0.000
      71 -> 81        -0.20400
      71 -> 84         0.12353
      72 -> 81        -0.48321
      72 -> 84         0.27187
      72 -> 86        -0.11068
      72 -> 92        -0.12027

 Excited State  23:      Singlet-A      8.3022 eV  149.34 nm  f=0.0033  <S**2>=0.000
      67 -> 74        -0.12832
      67 -> 76         0.11975
      68 -> 73         0.25588
      68 -> 75        -0.12296
      70 -> 75         0.11627
      71 -> 74         0.34083
      71 -> 76        -0.31984
      72 -> 76         0.11170
      72 -> 77        -0.20729

 Excited State  24:      Singlet-A      8.3635 eV  148.24 nm  f=0.0918  <S**2>=0.000
      66 -> 73         0.13308
      67 -> 75        -0.11381
      68 -> 74         0.18088
      68 -> 79        -0.27104
      70 -> 79         0.10447
      71 -> 75         0.11882
      71 -> 78        -0.20536
      71 -> 80         0.28754
      71 -> 82         0.17330
      71 -> 84         0.16152
      71 -> 95        -0.10145
      72 -> 82        -0.14521

 Excited State  25:      Singlet-A      8.5117 eV  145.66 nm  f=0.1946  <S**2>=0.000
      66 -> 73         0.22619
      67 -> 73        -0.15145
      68 -> 74         0.23631
      68 -> 76        -0.15749
      68 -> 77        -0.23246
      68 -> 79         0.13721
      70 -> 76         0.21633
      70 -> 77         0.15142
      71 -> 73         0.25647
      71 -> 80        -0.14085

 Excited State  26:      Singlet-A      8.5529 eV  144.96 nm  f=0.0019  <S**2>=0.000
      67 -> 76         0.15762
      67 -> 79         0.30322
      69 -> 80        -0.22097
      70 -> 80        -0.16691
      70 -> 81         0.10906
      70 -> 82        -0.10909
      71 -> 79         0.19527
      72 -> 79         0.36336

 Excited State  27:      Singlet-A      8.6363 eV  143.56 nm  f=0.0127  <S**2>=0.000
      64 -> 76         0.10629
      66 -> 74         0.12690
      66 -> 76         0.23042
      66 -> 79         0.22180
      68 -> 80         0.24442
      70 -> 80        -0.12897
      71 -> 79        -0.25984
      71 -> 83        -0.15673

 Excited State  28:      Singlet-A      8.6443 eV  143.43 nm  f=0.0229  <S**2>=0.000
      67 -> 78         0.16931
      67 -> 80        -0.22881
      67 -> 82        -0.11818
      69 -> 76         0.14209
      69 -> 79         0.23533
      70 -> 76         0.14537
      70 -> 79         0.31394
      71 -> 84         0.10492
      72 -> 80        -0.10317
      72 -> 86        -0.11699
      72 -> 92        -0.12553

 Excited State  29:      Singlet-A      8.6739 eV  142.94 nm  f=0.0253  <S**2>=0.000
      65 -> 74        -0.11558
      67 -> 74        -0.16906
      67 -> 77        -0.14504
      68 -> 73        -0.24760
      71 -> 77         0.43255
      72 -> 77        -0.16922

 Excited State  30:      Singlet-A      8.7568 eV  141.59 nm  f=0.0002  <S**2>=0.000
      68 -> 80        -0.13185
      69 -> 80         0.25109
      69 -> 81         0.34250
      70 -> 80        -0.20640
      70 -> 81        -0.15650
      71 -> 77        -0.11081
      72 -> 83        -0.20810
      72 -> 85         0.14347

 The electronic state is 1-A.
 Alpha  occ. eigenvalues --  -91.96650 -15.58493 -11.28376 -11.27644 -11.27643
 Alpha  occ. eigenvalues --  -11.26836 -11.26835 -11.23722 -11.23721 -11.23300
 Alpha  occ. eigenvalues --  -11.23300 -11.23217 -11.23217 -11.23092 -11.23092
 Alpha  occ. eigenvalues --  -11.22866 -11.22861 -11.21899 -11.21898 -11.21488
 Alpha  occ. eigenvalues --   -8.97098  -6.65249  -6.65180  -6.65099  -1.29433
 Alpha  occ. eigenvalues --   -1.17062  -1.17003  -1.13911  -1.08167  -1.03722
 Alpha  occ. eigenvalues --   -1.02816  -1.02614  -1.01399  -0.98433  -0.92967
 Alpha  occ. eigenvalues --   -0.85589  -0.85499  -0.82810  -0.82007  -0.81520
 Alpha  occ. eigenvalues --   -0.77424  -0.72512  -0.72332  -0.68228  -0.66427
 Alpha  occ. eigenvalues --   -0.66086  -0.64663  -0.63823  -0.62251  -0.61451
 Alpha  occ. eigenvalues --   -0.61032  -0.59437  -0.58468  -0.58159  -0.55989
 Alpha  occ. eigenvalues --   -0.55237  -0.52927  -0.51999  -0.51673  -0.51293
 Alpha  occ. eigenvalues --   -0.50724  -0.49214  -0.48255  -0.46955  -0.44377
 Alpha  occ. eigenvalues --   -0.41920  -0.35123  -0.35110  -0.34261  -0.33647
 Alpha  occ. eigenvalues --   -0.30896  -0.29279
 Alpha virt. eigenvalues --    0.10753   0.11146   0.11229   0.11867   0.14086
 Alpha virt. eigenvalues --    0.14097   0.15954   0.16306   0.17276   0.18095
 Alpha virt. eigenvalues --    0.18434   0.18665   0.19258   0.20292   0.20344

 Mulliken charges:
               1
     1  C   -0.186626
     2  C   -0.139171
     3  C   -0.168038
     4  C    0.308781
     5  C   -0.373198
     6  C   -0.060276
     7  C    0.309162
     8  C   -0.168239
     9  C   -0.139148
    10  H    0.169110
    11  C   -0.186660
    12  C   -0.060236
    13  C   -0.373320
    14  H    0.169109
    15  H    0.163640
    16  H    0.165659
    17  H    0.167012
    18  H    0.165656
    19  C    0.341663
    20  C   -0.386653
    21  C   -0.084372
    22  C   -0.084451
    23  C   -0.250574
    24  H    0.162564
    25  H    0.162562
    26  H    0.163810
    27  H    0.160361
    28  H    0.167014
    29  N   -0.041981
    30  H    0.163681
    31  S   -0.014178
    32  C   -0.386489
    33  H    0.163827
 Sum of Mulliken charges =  -0.00000

 Dipole moment (field-independent basis, Debye):
    X=             -0.9983    Y=              0.0004    Z=              1.8518  Tot=              2.1037
 Quadrupole moment (field-independent basis, Debye-Ang):
   XX=           -118.8920   YY=            -99.7429   ZZ=           -124.2554
   XY=              0.0061   XZ=              2.1532   YZ=              0.0047

 Normal termination of Gaussian 09 at Sun Apr  4 00:52:13 2021.
