 Gaussian 09, Revision E.01,

 ----------------------------------------------------------------------
 #p PBEPBE/def2TZVP opt freq=noraman nosymm int=ultrafine scrf=(SMD,sol
 vent=n,n-DiMethylAcetamide) EmpiricalDispersion=GD3BJ
 ----------------------------------------------------------------------

 -----
 Title
 -----
 Symbolic Z-matrix:
 Charge =  0 Multiplicity = 1

 SCF Done:  E(RPBE-PBE) =  -1145.91105166     A.U. after   13 cycles
 SCF Done:  E(RPBE-PBE) =  -1145.91118364     A.U. after   10 cycles
 SCF Done:  E(RPBE-PBE) =  -1145.91121742     A.U. after    9 cycles
 SCF Done:  E(RPBE-PBE) =  -1145.91123612     A.U. after    9 cycles
 SCF Done:  E(RPBE-PBE) =  -1145.91125129     A.U. after    9 cycles
 SCF Done:  E(RPBE-PBE) =  -1145.91125743     A.U. after    9 cycles
 SCF Done:  E(RPBE-PBE) =  -1145.91125949     A.U. after    8 cycles
 SCF Done:  E(RPBE-PBE) =  -1145.91125971     A.U. after    7 cycles
 Optimization completed.
    -- Stationary point found.
 Normal termination of Gaussian 09 at Sat Mar 27 20:20:54 2021.

 ---------------------------------------------------------------------
 #P Geom=AllCheck Guess=TCheck SCRF=Check GenChk RPBEPBE/def2TZVP Freq
 ---------------------------------------------------------------------

 Structure from the checkpoint file:  "cp.chk"
 -----
 Title
 -----
 Charge =  0 Multiplicity = 1

 SCF Done:  E(RPBE-PBE) =  -1145.91125971     A.U. after    1 cycles

  Exact polarizability: 404.748  -0.398 451.348 -25.698  -0.648 266.769
 Approx polarizability: 520.639  -0.549 580.158 -52.621  -0.910 369.913

                      1                      2                      3
                      A                      A                      A
 Frequencies --     29.5540                37.7130                64.3805
 Red. masses --      3.7121                 5.9222                 5.9232
 Frc consts  --      0.0019                 0.0050                 0.0145
 IR Inten    --      0.0137                 1.6975                 2.8062

                      4                      5                      6
                      A                      A                      A
 Frequencies --     79.1227               143.8747               150.4388
 Red. masses --      4.6331                 4.2149                 4.3470
 Frc consts  --      0.0171                 0.0514                 0.0580
 IR Inten    --      0.0104                 0.8178                 2.8597

                      7                      8                      9
                      A                      A                      A
 Frequencies --    175.9434               219.5238               248.4743
 Red. masses --      5.1799                 5.8819                 5.1914
 Frc consts  --      0.0945                 0.1670                 0.1888
 IR Inten    --      0.2944                 4.6083                 0.8506

                     10                     11                     12
                      A                      A                      A
 Frequencies --    307.1934               309.8432               342.1936
 Red. masses --      4.9642                 5.6321                 6.2268
 Frc consts  --      0.2760                 0.3186                 0.4296
 IR Inten    --      2.9765                 6.2717                 4.1976

                     13                     14                     15
                      A                      A                      A
 Frequencies --    379.8300               380.8129               405.0437
 Red. masses --      9.1781                 4.9602                 3.0433
 Frc consts  --      0.7802                 0.4238                 0.2942
 IR Inten    --      2.0232                 1.9317                 0.0571

                     16                     17                     18
                      A                      A                      A
 Frequencies --    435.1528               441.6453               457.2621
 Red. masses --      7.3501                 3.9921                 3.7724
 Frc consts  --      0.8200                 0.4588                 0.4647
 IR Inten    --      0.2086                 0.9309                37.0568

                     19                     20                     21
                      A                      A                      A
 Frequencies --    486.2737               519.2871               522.5343
 Red. masses --      2.9821                 5.6419                 4.1793
 Frc consts  --      0.4155                 0.8964                 0.6723
 IR Inten    --     11.7253                 2.6582                 1.7669

                     22                     23                     24
                      A                      A                      A
 Frequencies --    549.8212               608.3572               615.0309
 Red. masses --      4.7713                 6.1901                 5.5699
 Frc consts  --      0.8498                 1.3498                 1.2413
 IR Inten    --      7.6222                 1.0678                40.1962

                     25                     26                     27
                      A                      A                      A
 Frequencies --    617.8734               671.8456               679.7159
 Red. masses --      6.6069                 6.0681                 1.9420
 Frc consts  --      1.4861                 1.6138                 0.5286
 IR Inten    --     12.2093                 0.9666                67.7133

                     28                     29                     30
                      A                      A                      A
 Frequencies --    687.5819               724.7871               727.2372
 Red. masses --      6.3378                 2.5472                 2.6671
 Frc consts  --      1.7654                 0.7884                 0.8311
 IR Inten    --     10.0464                51.3017                12.1442

                     31                     32                     33
                      A                      A                      A
 Frequencies --    729.9448               737.8594               738.6327
 Red. masses --      2.2849                 2.3538                 1.5765
 Frc consts  --      0.7173                 0.7550                 0.5068
 IR Inten    --     96.1580                66.6699                38.1029

                     34                     35                     36
                      A                      A                      A
 Frequencies --    748.8244               800.5937               846.8303
 Red. masses --      2.2350                 1.2595                 1.4521
 Frc consts  --      0.7384                 0.4756                 0.6135
 IR Inten    --     63.3774                 0.8031                 5.3503

                     37                     38                     39
                      A                      A                      A
 Frequencies --    848.7779               857.0726               908.8020
 Red. masses --      1.3651                 1.4757                 4.5848
 Frc consts  --      0.5794                 0.6387                 2.2310
 IR Inten    --      0.1427                11.4441                 0.2218

                     40                     41                     42
                      A                      A                      A
 Frequencies --    909.8022               924.5336               930.1394
 Red. masses --      2.9426                 1.4833                 1.7494
 Frc consts  --      1.4351                 0.7470                 0.8917
 IR Inten    --      1.4106                 1.8464                 4.8029

                     43                     44                     45
                      A                      A                      A
 Frequencies --    934.0710               939.6358               947.8047
 Red. masses --      1.3443                 1.2323                 1.2681
 Frc consts  --      0.6910                 0.6411                 0.6712
 IR Inten    --      0.9686                 0.1264                 0.2145

                     46                     47                     48
                      A                      A                      A
 Frequencies --    948.4827               978.7351              1028.1348
 Red. masses --      1.2760                 5.2353                 2.9889
 Frc consts  --      0.6763                 2.9548                 1.8615
 IR Inten    --      0.2256                 7.9472                47.0642

                     49                     50                     51
                      A                      A                      A
 Frequencies --   1029.3515              1031.9832              1046.3437
 Red. masses --      2.3217                 2.2567                 2.7492
 Frc consts  --      1.4494                 1.4160                 1.7734
 IR Inten    --     21.8552                17.5954                 8.1267

                     52                     53                     54
                      A                      A                      A
 Frequencies --   1062.2540              1086.1529              1109.2354
 Red. masses --      3.8907                 1.4989                 1.5810
 Frc consts  --      2.5866                 1.0418                 1.1461
 IR Inten    --     19.2681                 5.4792                30.5886

                     55                     56                     57
                      A                      A                      A
 Frequencies --   1116.1681              1134.2753              1135.9295
 Red. masses --      1.5549                 1.0547                 1.0730
 Frc consts  --      1.1414                 0.7995                 0.8157
 IR Inten    --      5.1632                 0.6571                 0.1428

                     58                     59                     60
                      A                      A                      A
 Frequencies --   1136.0073              1168.1207              1181.4704
 Red. masses --      1.0747                 1.1589                 2.6777
 Frc consts  --      0.8171                 0.9317                 2.2022
 IR Inten    --      0.2984                28.2603                22.0060

                     61                     62                     63
                      A                      A                      A
 Frequencies --   1217.9055              1247.4489              1267.1647
 Red. masses --      1.8462                 1.6281                 2.0942
 Frc consts  --      1.6134                 1.4927                 1.9812
 IR Inten    --     60.8871               103.7488                90.1200

                     64                     65                     66
                      A                      A                      A
 Frequencies --   1290.8524              1315.3046              1331.9998
 Red. masses --      4.0031                 2.0155                 3.9051
 Frc consts  --      3.9300                 2.0544                 4.0822
 IR Inten    --    497.4245                36.5104                 0.9916

                     67                     68                     69
                      A                      A                      A
 Frequencies --   1339.9410              1347.3307              1420.9490
 Red. masses --     10.5539                 7.0005                 2.2839
 Frc consts  --     11.1643                 7.4873                 2.7169
 IR Inten    --     15.2410                 6.0995                 0.0870

                     70                     71                     72
                      A                      A                      A
 Frequencies --   1428.3496              1441.6822              1447.2023
 Red. masses --      2.3424                 2.5134                 2.8952
 Frc consts  --      2.8156                 3.0779                 3.5726
 IR Inten    --     65.3116               209.5527                69.4665

                     73                     74                     75
                      A                      A                      A
 Frequencies --   1464.3594              1476.0806              1557.9876
 Red. masses --      2.8043                 2.2683                 6.1292
 Frc consts  --      3.5430                 2.9119                 8.7655
 IR Inten    --    118.5990               342.1771                27.7615

                     76                     77                     78
                      A                      A                      A
 Frequencies --   1568.5859              1572.4550              1572.6700
 Red. masses --      6.0829                 7.0980                 6.4923
 Frc consts  --      8.8182                10.3405                 9.4607
 IR Inten    --      0.2185                 4.8064                 2.5603

                     79                     80                     81
                      A                      A                      A
 Frequencies --   1579.5931              1598.9368              3101.3525
 Red. masses --      6.1946                 6.3843                 1.0855
 Frc consts  --      9.1066                 9.6168                 6.1516
 IR Inten    --    176.1889               124.7845                 5.1029

                     82                     83                     84
                      A                      A                      A
 Frequencies --   3107.0053              3110.2269              3110.2486
 Red. masses --      1.0896                 1.0859                 1.0859
 Frc consts  --      6.1975                 6.1893                 6.1892
 IR Inten    --     19.8442                 0.0415                 0.2455

                     85                     86                     87
                      A                      A                      A
 Frequencies --   3117.3090              3117.4057              3126.1470
 Red. masses --      1.0893                 1.0893                 1.0937
 Frc consts  --      6.2366                 6.2372                 6.2977
 IR Inten    --      4.6491                 5.3664                39.8580

                     88                     89                     90
                      A                      A                      A
 Frequencies --   3126.4102              3126.9052              3134.1520
 Red. masses --      1.0932                 1.0944                 1.0977
 Frc consts  --      6.2954                 6.3044                 6.3528
 IR Inten    --     13.0648                 4.2456                15.7240

                     91                     92                     93
                      A                      A                      A
 Frequencies --   3134.3334              3144.1659              3145.0212
 Red. masses --      1.0977                 1.0911                 1.0911
 Frc consts  --      6.3535                 6.3553                 6.3584
 IR Inten    --      3.9560                 4.4855                 3.7248

 - Thermochemistry -
 -------------------
 Temperature   298.150 Kelvin.  Pressure   1.00000 Atm.
 Atom     1 has atomic number  6 and mass  12.00000

 Molecular mass:   275.07687 amu.
 Principal axes and moments of inertia in atomic units:
                           1         2         3
     Eigenvalues --  4744.099935325.047728533.57857
           X            0.99979  -0.00541  -0.01991
           Y            0.00546   0.99998   0.00232
           Z            0.01989  -0.00243   0.99980
 This molecule is an asymmetric top.
 Rotational symmetry number  1.
 Warning -- assumption of classical behavior for rotation
           may cause significant error
 Rotational temperatures (Kelvin)      0.01826     0.01627     0.01015
 Rotational constants (GHZ):           0.38042     0.33892     0.21149
 Zero-point vibrational energy     658555.0 (Joules/Mol)
                                  157.39842 (Kcal/Mol)
 Warning -- explicit consideration of  25 degrees of freedom as
           vibrations may cause significant error
 Vibrational temperatures:     42.52    54.26    92.63   113.84   207.00
          (Kelvin)            216.45   253.14   315.85   357.50   441.98
                              445.79   492.34   546.49   547.90   582.77
                              626.09   635.43   657.90   699.64   747.14
                              751.81   791.07   875.29   884.89   888.98
                              966.63   977.96   989.28  1042.81  1046.33
                             1050.23  1061.61  1062.73  1077.39  1151.87
                             1218.40  1221.20  1233.13  1307.56  1309.00
                             1330.20  1338.26  1343.92  1351.92  1363.68
                             1364.65  1408.18  1479.25  1481.01  1484.79
                             1505.45  1528.34  1562.73  1595.94  1605.91
                             1631.97  1634.35  1634.46  1680.66  1699.87
                             1752.29  1794.80  1823.17  1857.25  1892.43
                             1916.45  1927.87  1938.51  2044.43  2055.07
                             2074.26  2082.20  2106.88  2123.75  2241.59
                             2256.84  2262.41  2262.72  2272.68  2300.51
                             4462.15  4470.28  4474.92  4474.95  4485.11
                             4485.25  4497.82  4498.20  4498.91  4509.34
                             4509.60  4523.75  4524.98

 Zero-point correction=                           0.250830 (Hartree/Particle)
 Thermal correction to Energy=                    0.266300
 Thermal correction to Enthalpy=                  0.267244
 Thermal correction to Gibbs Free Energy=         0.207295
 Sum of electronic and zero-point Energies=          -1145.660429
 Sum of electronic and thermal Energies=             -1145.644960
 Sum of electronic and thermal Enthalpies=           -1145.644015
 Sum of electronic and thermal Free Energies=        -1145.703965

                     E (Thermal)             CV                S
                      KCal/Mol        Cal/Mol-Kelvin    Cal/Mol-Kelvin
 Total                  167.106             63.916            126.174
 Electronic               0.000              0.000              0.000
 Translational            0.889              2.981             42.734
 Rotational               0.889              2.981             33.733
 Vibrational            165.328             57.955             49.707
 Vibration     1          0.593              1.984              5.859
 Vibration     2          0.594              1.982              5.376
 Vibration     3          0.597              1.971              4.318
 Vibration     4          0.600              1.963              3.913
 Vibration     5          0.616              1.909              2.752
 Vibration     6          0.618              1.902              2.667
 Vibration     7          0.628              1.872              2.371
 Vibration     8          0.647              1.811              1.963
 Vibration     9          0.662              1.765              1.741
 Vibration    10          0.697              1.660              1.377
 Vibration    11          0.699              1.655              1.363
 Vibration    12          0.721              1.591              1.202
 Vibration    13          0.750              1.513              1.040
 Vibration    14          0.751              1.511              1.036
 Vibration    15          0.770              1.459              0.944
 Vibration    16          0.796              1.394              0.842
 Vibration    17          0.801              1.379              0.821
 Vibration    18          0.815              1.345              0.774
 Vibration    19          0.842              1.280              0.693
 Vibration    20          0.874              1.207              0.612
 Vibration    21          0.878              1.200              0.604
 Vibration    22          0.905              1.140              0.545
 Vibration    23          0.967              1.014              0.436
 Vibration    24          0.975              1.000              0.425
 Vibration    25          0.978              0.994              0.420

 Optimization completed.
    -- Stationary point found.
 Normal termination of Gaussian 09 at Sat Mar 27 21:41:33 2021.
 Gaussian 09:  ES64L-G09RevE.01 30-Nov-2015

 ----------------------------------------------------------------------
 #p PBEPBE chkbasis geom=allcheck Guess=Read int=ultrafine scrf=(SMD,so
 lvent=n,n-DiMethylAcetamide) td=(NStates=30) EmpiricalDispersion=GD3BJ
 ----------------------------------------------------------------------

 Structure from the checkpoint file:  "cp.chk"
 -----
 Title
 -----
 Charge =  0 Multiplicity = 1

                         Standard orientation:
 ---------------------------------------------------------------------
 Center     Atomic      Atomic             Coordinates (Angstroms)
 Number     Number       Type             X           Y           Z
 ---------------------------------------------------------------------
      1          6           0       -1.988974   -3.544527    0.374480
      2          6           0       -2.296898   -2.506562   -0.505405
      3          6           0       -1.526835   -1.337805   -0.495338
      4          6           0       -0.451937   -1.200660    0.400098
      5          6           0       -0.191340   -2.224048    1.319411
      6          6           0       -0.944975   -3.397949    1.293860
      7          6           0       -0.448280    1.201384    0.400353
      8          6           0       -1.522579    1.342215   -0.495213
      9          6           0       -2.288621    2.513624   -0.505235
     10          1           0       -3.126447    2.607126   -1.198687
     11          6           0       -1.977347    3.550401    0.374873
     12          6           0       -0.934094    3.400124    1.294508
     13          6           0       -0.184439    2.223692    1.319939
     14          1           0       -3.135278   -2.596875   -1.198634
     15          1           0        0.615046   -2.096406    2.042938
     16          1           0       -0.722065   -4.196907    2.002773
     17          1           0       -2.568304    4.467578    0.358067
     18          1           0       -0.708617    4.198218    2.003574
     19          6           0        1.688902   -0.002613    0.060814
     20          6           0        2.395407    1.204939   -0.123273
     21          6           0        3.751490    1.194681   -0.447397
     22          6           0        3.748812   -1.204610   -0.446854
     23          6           0        4.448714   -0.005782   -0.604810
     24          1           0        4.264777    2.149270   -0.582791
     25          1           0        4.260063   -2.160355   -0.581786
     26          1           0        1.883592    2.160782   -0.027710
     27          1           0        5.510975   -0.007039   -0.853245
     28          1           0       -2.582960   -4.459750    0.357651
     29          7           0        0.315387   -0.000801    0.373342
     30          1           0        0.621478    2.093162    2.043474
     31         16           0       -1.901059    0.002833   -1.594019
     32          6           0        2.392677   -1.211827   -0.122760
     33          1           0        1.878873   -2.166592   -0.027017
 ---------------------------------------------------------------------

 SCF Done:  E(RPBE-PBE) =  -1145.91125737     A.U. after    6 cycles

 Excitation energies and oscillator strengths:

 Excited State   1:      Singlet-A      3.2607 eV  380.23 nm  f=0.0445  <S**2>=0.000
      72 -> 73         0.67577
      72 -> 75         0.18860
 This state for optimization and/or second-order correction.
 Total Energy, E(TD-HF/TD-KS) =  -1145.79142712
 Copying the excited state density for this state as the 1-particle RhoCI density.

 Excited State   2:      Singlet-A      3.3169 eV  373.80 nm  f=0.0002  <S**2>=0.000
      72 -> 74         0.70315

 Excited State   3:      Singlet-A      3.4614 eV  358.19 nm  f=0.0097  <S**2>=0.000
      72 -> 76         0.69025
      72 -> 77         0.10333

 Excited State   4:      Singlet-A      3.5077 eV  353.47 nm  f=0.1414  <S**2>=0.000
      72 -> 73        -0.19060
      72 -> 75         0.66508

 Excited State   5:      Singlet-A      3.9433 eV  314.42 nm  f=0.0137  <S**2>=0.000
      71 -> 76         0.21705
      72 -> 77         0.64377

 Excited State   6:      Singlet-A      3.9794 eV  311.56 nm  f=0.0086  <S**2>=0.000
      71 -> 73         0.68703

 Excited State   7:      Singlet-A      4.1537 eV  298.49 nm  f=0.0276  <S**2>=0.000
      71 -> 74         0.41810
      71 -> 76         0.53817
      72 -> 77        -0.11291

 Excited State   8:      Singlet-A      4.2174 eV  293.98 nm  f=0.1866  <S**2>=0.000
      67 -> 75         0.11736
      70 -> 73        -0.10101
      71 -> 74         0.53830
      71 -> 76        -0.37373
      72 -> 77         0.17833

 Excited State   9:      Singlet-A      4.3206 eV  286.96 nm  f=0.0208  <S**2>=0.000
      67 -> 74         0.15683
      71 -> 75         0.63206
      71 -> 78         0.10910
      72 -> 78        -0.20002

 Excited State  10:      Singlet-A      4.4759 eV  277.01 nm  f=0.0000  <S**2>=0.000
      72 -> 79         0.70113

 Excited State  11:      Singlet-A      4.5381 eV  273.21 nm  f=0.1532  <S**2>=0.000
      71 -> 75         0.21299
      71 -> 78        -0.25929
      72 -> 78         0.58132

 Excited State  12:      Singlet-A      4.5719 eV  271.19 nm  f=0.0016  <S**2>=0.000
      67 -> 73        -0.12362
      70 -> 73        -0.12959
      71 -> 77         0.66375

 Excited State  13:      Singlet-A      4.7020 eV  263.68 nm  f=0.0260  <S**2>=0.000
      69 -> 73         0.11828
      70 -> 73         0.64941
      70 -> 75         0.17171
      71 -> 77         0.10225

 Excited State  14:      Singlet-A      4.7830 eV  259.22 nm  f=0.0008  <S**2>=0.000
      69 -> 74         0.15258
      70 -> 74         0.68155

 Excited State  15:      Singlet-A      4.8786 eV  254.14 nm  f=0.0108  <S**2>=0.000
      68 -> 76        -0.14365
      69 -> 73         0.15575
      69 -> 75         0.13042
      70 -> 73        -0.15422
      70 -> 75         0.62442

 Excited State  16:      Singlet-A      4.9235 eV  251.82 nm  f=0.0089  <S**2>=0.000
      68 -> 73         0.38355
      69 -> 76        -0.23161
      70 -> 76         0.25170
      71 -> 78         0.44745
      72 -> 78         0.11671

 Excited State  17:      Singlet-A      4.9336 eV  251.31 nm  f=0.0362  <S**2>=0.000
      67 -> 73         0.14749
      67 -> 75        -0.14228
      68 -> 74        -0.17524
      68 -> 76        -0.20371
      68 -> 77        -0.10756
      69 -> 73         0.56168
      70 -> 75        -0.20738

 Excited State  18:      Singlet-A      4.9793 eV  249.00 nm  f=0.0116  <S**2>=0.000
      67 -> 74         0.13990
      68 -> 73        -0.13007
      68 -> 75        -0.28293
      69 -> 74        -0.33113
      69 -> 76         0.42631
      71 -> 78         0.25566
      72 -> 78         0.11883

 Excited State  19:      Singlet-A      4.9875 eV  248.59 nm  f=0.0229  <S**2>=0.000
      67 -> 74        -0.10383
      68 -> 73        -0.23457
      69 -> 74         0.18387
      69 -> 76         0.21310
      70 -> 76         0.51167
      70 -> 77         0.27078

 Excited State  20:      Singlet-A      4.9921 eV  248.36 nm  f=0.0003  <S**2>=0.000
      67 -> 73         0.26426
      67 -> 75        -0.15126
      68 -> 74         0.31099
      69 -> 75         0.54437

 Excited State  21:      Singlet-A      5.0720 eV  244.45 nm  f=0.0012  <S**2>=0.000
      67 -> 73         0.46686
      68 -> 74        -0.39103
      68 -> 76         0.31852

 Excited State  22:      Singlet-A      5.0727 eV  244.42 nm  f=0.1346  <S**2>=0.000
      67 -> 74        -0.16098
      67 -> 76        -0.15010
      68 -> 75         0.18583
      68 -> 78        -0.10938
      69 -> 74         0.35606
      69 -> 76         0.18948
      69 -> 77        -0.11629
      70 -> 76        -0.24166
      70 -> 77        -0.14338
      71 -> 78         0.32380
      72 -> 78         0.14526

 Excited State  23:      Singlet-A      5.1430 eV  241.07 nm  f=0.0007  <S**2>=0.000
      67 -> 74         0.14616
      67 -> 76         0.42532
      68 -> 73         0.24181
      68 -> 75         0.37567
      69 -> 76         0.24133
      69 -> 77        -0.14126
      70 -> 77         0.12521

 Excited State  24:      Singlet-A      5.2183 eV  237.60 nm  f=0.0001  <S**2>=0.000
      67 -> 75        -0.21520
      71 -> 79         0.66522

 Excited State  25:      Singlet-A      5.2988 eV  233.99 nm  f=0.0176  <S**2>=0.000
      67 -> 76         0.29819
      67 -> 77        -0.10555
      68 -> 73        -0.26653
      68 -> 75         0.17407
      69 -> 76        -0.14093
      69 -> 77         0.46609
      70 -> 77        -0.13200
      71 -> 78         0.13345
      72 -> 78         0.10420

 Excited State  26:      Singlet-A      5.3456 eV  231.94 nm  f=0.0028  <S**2>=0.000
      66 -> 74        -0.17093
      67 -> 75         0.36645
      68 -> 74        -0.28935
      68 -> 76        -0.25810
      69 -> 73        -0.12104
      69 -> 75         0.27775
      69 -> 78         0.15586
      70 -> 75        -0.10079
      71 -> 79         0.19709

 Excited State  27:      Singlet-A      5.4268 eV  228.47 nm  f=0.0254  <S**2>=0.000
      66 -> 73        -0.10627
      67 -> 74         0.28222
      67 -> 76        -0.28408
      67 -> 77         0.39393
      68 -> 75         0.24291
      69 -> 77         0.19138
      70 -> 77        -0.17925

 Excited State  28:      Singlet-A      5.4452 eV  227.69 nm  f=0.0083  <S**2>=0.000
      72 -> 80         0.68983

 Excited State  29:      Singlet-A      5.4952 eV  225.62 nm  f=0.1347  <S**2>=0.000
      66 -> 74        -0.14835
      67 -> 73        -0.12647
      67 -> 75         0.22781
      68 -> 76         0.36268
      68 -> 77        -0.34113
      69 -> 73         0.16487
      69 -> 75         0.10245
      69 -> 78        -0.10903
      70 -> 78        -0.29618

 Excited State  30:      Singlet-A      5.5540 eV  223.23 nm  f=0.0691  <S**2>=0.000
      66 -> 75        -0.25480
      67 -> 74         0.43148
      67 -> 77        -0.19706
      68 -> 75        -0.19399
      69 -> 74         0.28470
      69 -> 77         0.12721
      70 -> 74        -0.11207
      71 -> 75        -0.13443

 The electronic state is 1-A.
 Alpha  occ. eigenvalues --  -88.06349 -14.02889  -9.93573  -9.93571  -9.93442
 Alpha  occ. eigenvalues --   -9.92714  -9.92713  -9.89605  -9.89605  -9.89386
 Alpha  occ. eigenvalues --   -9.89386  -9.89088  -9.89088  -9.89045  -9.89045
 Alpha  occ. eigenvalues --   -9.88395  -9.88394  -9.88097  -9.88095  -9.87565
 Alpha  occ. eigenvalues --   -7.68899  -5.71095  -5.70701  -5.70071  -0.89881
 Alpha  occ. eigenvalues --   -0.79453  -0.79074  -0.76636  -0.73654  -0.69543
 Alpha  occ. eigenvalues --   -0.68641  -0.68434  -0.67001  -0.65613  -0.62219
 Alpha  occ. eigenvalues --   -0.57440  -0.57427  -0.54615  -0.53807  -0.53727
 Alpha  occ. eigenvalues --   -0.50717  -0.48811  -0.48484  -0.44505  -0.43290
 Alpha  occ. eigenvalues --   -0.43009  -0.41826  -0.41371  -0.39762  -0.39219
 Alpha  occ. eigenvalues --   -0.39126  -0.38022  -0.37973  -0.36808  -0.36544
 Alpha  occ. eigenvalues --   -0.34950  -0.33718  -0.33704  -0.33019  -0.31719
 Alpha  occ. eigenvalues --   -0.31103  -0.30794  -0.30364  -0.29229  -0.28306
 Alpha  occ. eigenvalues --   -0.27092  -0.24048  -0.24020  -0.23289  -0.22930
 Alpha  occ. eigenvalues --   -0.20027  -0.17418
 Alpha virt. eigenvalues --   -0.05850  -0.05404  -0.05184  -0.05107  -0.03500
 Alpha virt. eigenvalues --   -0.02304  -0.01100   0.02350   0.04002   0.05204
 Alpha virt. eigenvalues --    0.05346   0.06113   0.06624   0.06922   0.07814

 Mulliken charges:
               1
     1  C   -0.163156
     2  C   -0.176496
     3  C   -0.009930
     4  C    0.185946
     5  C   -0.304550
     6  C   -0.095862
     7  C    0.185849
     8  C   -0.009885
     9  C   -0.176553
    10  H    0.145219
    11  C   -0.163161
    12  C   -0.095878
    13  C   -0.304432
    14  H    0.145209
    15  H    0.159125
    16  H    0.147344
    17  H    0.147761
    18  H    0.147342
    19  C    0.200327
    20  C   -0.284596
    21  C   -0.142668
    22  C   -0.142555
    23  C   -0.203499
    24  H    0.141845
    25  H    0.141848
    26  H    0.159240
    27  H    0.138424
    28  H    0.147753
    29  N    0.137193
    30  H    0.159091
    31  S   -0.090732
    32  C   -0.284790
    33  H    0.159226
 Sum of Mulliken charges =  -0.00000

 Dipole moment (field-independent basis, Debye):
    X=             -1.0889    Y=              0.0014    Z=              1.8840  Tot=              2.1760
 Quadrupole moment (field-independent basis, Debye-Ang):
   XX=           -118.3100   YY=           -100.8890   ZZ=           -124.2806
   XY=              0.0260   XZ=              3.1215   YZ=             -0.0085

 1\1\GINC-CN032\SP\RPBEPBE TD-FC\Gen\C18H13N1S1\PNG4RJV\27-Mar-2021\0\\
 #p PBEPBE chkbasis geom=allcheck Guess=Read int=ultrafine scrf=(SMD,so
 lvent=n,n-DiMethylAcetamide) td=(NStates=30) EmpiricalDispersion=GD3BJ
 \\Title\\0,1\C,0,-1.9885588196,3.5475748466,-0.4322459033\C,0,-2.31196
 13366,2.5100168738,0.4425499141\C,0,-1.5357495911,1.3453441712,0.45371
 16147\C,0,-0.4390580281,1.2118487495,-0.4154645857\C,0,-0.1619491931,2
 .234488743,-1.330772253\C,0,-0.9221347747,3.4044275947,-1.3260742332\C
 ,0,-0.4227793703,-1.1901364846,-0.4098046229\C,0,-1.5174150636,-1.3346

 Normal termination of Gaussian 09 at Sat Mar 27 22:45:30 2021.
