                         Program Version 5.0.2 -  RELEASE  -
|  1> %maxcore 20000
|  2> %pal
|  3>  nprocs= 6
|  4> end
|  5> ! RI-SCS-PBE-QIDH   def2-TZVP def2/J def2-TZVP/C RIJCOSX CPCM TightSCF
|  6> %TDDFT
|  7>    NROOTS   30
|  8>    dcorr 4
|  9>    doscs true
| 10>    TDA      FALSE
| 11> END
| 12>
| 13> %CPCM
| 14>    SMD          TRUE
| 15>    SMDsolvent   "N,N-DIMETHYLACETAMIDE"
| 16> END
| 17>
| 18>
| 19> * xyz 0 1
| 20> C                  -1.98589800   -3.51504200    0.40705300
| 21> C                  -2.31200200   -2.48851100   -0.46337400
| 22> C                  -1.54247500   -1.33041800   -0.48678600
| 23> C                  -0.44503300   -1.19499400    0.36625500
| 24> C                  -0.16507700   -2.20792500    1.27822400
| 25> C                  -0.92043200   -3.36871700    1.28559100
| 26> C                  -0.44145600    1.19547900    0.36664600
| 27> C                  -1.53847900    1.33474300   -0.48627200
| 28> C                  -2.30428000    2.49531300   -0.46230800
| 29> H                  -3.15501300    2.58856900   -1.12552100
| 30> C                  -1.97479200    3.52043000    0.40852000
| 31> C                  -0.90964500    3.37037900    1.28685000
| 32> C                  -0.15806600    2.20718300    1.27889800
| 33> H                  -3.16304600   -2.57866500   -1.12662700
| 34> H                   0.65940400   -2.08237300    1.96828700
| 35> H                  -0.68155100   -4.15715700    1.98746100
| 36> H                  -2.56561700    4.42717700    0.41647300
| 37> H                  -0.66811400    4.15786700    1.98887300
| 38> C                   1.69426700   -0.00255600    0.03223200
| 39> C                   2.40135600    1.19602700   -0.14061700
| 40> C                   3.75393700    1.18574800   -0.43602500
| 41> C                   3.75216800   -1.19487200   -0.43319400
| 42> C                   4.45068100   -0.00525400   -0.57565400
| 43> H                   4.26428400    2.13287000   -0.56325800
| 44> H                   4.26120800   -2.14300500   -0.55808500
| 45> H                   1.89362500    2.14573600   -0.06318200
| 46> H                   5.50890500   -0.00630200   -0.80086200
| 47> H                  -2.57953900   -4.41995300    0.41461000
| 48> N                   0.31932000   -0.00088800    0.31069100
| 49> H                   0.66632000    2.07877000    1.96855300
| 50> S                  -1.94327000    0.00297700   -1.57207900
| 51> C                   2.39952400   -1.20260300   -0.13774400
| 52> H                   1.89042200   -2.15141900   -0.05805500
| 53> *
| 54>
| 55>
| 56>                          ****END OF INPUT****

CARTESIAN COORDINATES (ANGSTROEM)
---------------------------------
  C     -1.985898   -3.515042    0.407053
  C     -2.312002   -2.488511   -0.463374
  C     -1.542475   -1.330418   -0.486786
  C     -0.445033   -1.194994    0.366255
  C     -0.165077   -2.207925    1.278224
  C     -0.920432   -3.368717    1.285591
  C     -0.441456    1.195479    0.366646
  C     -1.538479    1.334743   -0.486272
  C     -2.304280    2.495313   -0.462308
  H     -3.155013    2.588569   -1.125521
  C     -1.974792    3.520430    0.408520
  C     -0.909645    3.370379    1.286850
  C     -0.158066    2.207183    1.278898
  H     -3.163046   -2.578665   -1.126627
  H      0.659404   -2.082373    1.968287
  H     -0.681551   -4.157157    1.987461
  H     -2.565617    4.427177    0.416473
  H     -0.668114    4.157867    1.988873
  C      1.694267   -0.002556    0.032232
  C      2.401356    1.196027   -0.140617
  C      3.753937    1.185748   -0.436025
  C      3.752168   -1.194872   -0.433194
  C      4.450681   -0.005254   -0.575654
  H      4.264284    2.132870   -0.563258
  H      4.261208   -2.143005   -0.558085
  H      1.893625    2.145736   -0.063182
  H      5.508905   -0.006302   -0.800862
  H     -2.579539   -4.419953    0.414610
  N      0.319320   -0.000888    0.310691
  H      0.666320    2.078770    1.968553
  S     -1.943270    0.002977   -1.572079
  C      2.399524   -1.202603   -0.137744
  H      1.890422   -2.151419   -0.058055

 Total Charge           Charge          ....    0
 Multiplicity           Mult            ....    1
 Number of Electrons    NEL             ....  144
 Basis Dimension        Dim             ....  704

ORBITAL ENERGIES
----------------

  NO   OCC          E(Eh)            E(eV)
   0   2.0000     -90.759951     -2469.7038
   1   2.0000     -15.117996      -411.3816
   2   2.0000     -10.877598      -295.9945
   3   2.0000     -10.874294      -295.9046
   4   2.0000     -10.874267      -295.9039
   5   2.0000     -10.863067      -295.5991
   6   2.0000     -10.863059      -295.5989
   7   2.0000     -10.830857      -294.7226
   8   2.0000     -10.830856      -294.7226
   9   2.0000     -10.827399      -294.6285
  10   2.0000     -10.827386      -294.6281
  11   2.0000     -10.825469      -294.5760
  12   2.0000     -10.825465      -294.5759
  13   2.0000     -10.824336      -294.5451
  14   2.0000     -10.824335      -294.5451
  15   2.0000     -10.820772      -294.4482
  16   2.0000     -10.820742      -294.4473
  17   2.0000     -10.814173      -294.2686
  18   2.0000     -10.814151      -294.2680
  19   2.0000     -10.809046      -294.1291
  20   2.0000      -8.589197      -233.7239
  21   2.0000      -6.375646      -173.4902
  22   2.0000      -6.373600      -173.4345
  23   2.0000      -6.371339      -173.3729
  24   2.0000      -1.190780       -32.4028
  25   2.0000      -1.069802       -29.1108
  26   2.0000      -1.067309       -29.0429
  27   2.0000      -1.039042       -28.2738
  28   2.0000      -0.991221       -26.9725
  29   2.0000      -0.946868       -25.7656
  30   2.0000      -0.936795       -25.4915
  31   2.0000      -0.934346       -25.4249
  32   2.0000      -0.921620       -25.0786
  33   2.0000      -0.897784       -24.4300
  34   2.0000      -0.848902       -23.0998
  35   2.0000      -0.786448       -21.4003
  36   2.0000      -0.784635       -21.3510
  37   2.0000      -0.755079       -20.5467
  38   2.0000      -0.744728       -20.2651
  39   2.0000      -0.740976       -20.1630
  40   2.0000      -0.704854       -19.1801
  41   2.0000      -0.666348       -18.1322
  42   2.0000      -0.666035       -18.1237
  43   2.0000      -0.622332       -16.9345
  44   2.0000      -0.604235       -16.4421
  45   2.0000      -0.604128       -16.4392
  46   2.0000      -0.588058       -16.0019
  47   2.0000      -0.581436       -15.8217
  48   2.0000      -0.565289       -15.3823
  49   2.0000      -0.558125       -15.1874
  50   2.0000      -0.555020       -15.1028
  51   2.0000      -0.540304       -14.7024
  52   2.0000      -0.533006       -14.5038
  53   2.0000      -0.528100       -14.3703
  54   2.0000      -0.516149       -14.0451
  55   2.0000      -0.501693       -13.6518
  56   2.0000      -0.480448       -13.0737
  57   2.0000      -0.479023       -13.0349
  58   2.0000      -0.476126       -12.9560
  59   2.0000      -0.463935       -12.6243
  60   2.0000      -0.457515       -12.4496
  61   2.0000      -0.446308       -12.1447
  62   2.0000      -0.434501       -11.8234
  63   2.0000      -0.431678       -11.7465
  64   2.0000      -0.411997       -11.2110
  65   2.0000      -0.386641       -10.5210
  66   2.0000      -0.333539        -9.0761
  67   2.0000      -0.332055        -9.0357
  68   2.0000      -0.323579        -8.8050
  69   2.0000      -0.320637        -8.7250
  70   2.0000      -0.289465        -7.8767
  71   2.0000      -0.261172        -7.1069
  72   0.0000       0.041352         1.1252
  73   0.0000       0.047435         1.2908
  74   0.0000       0.048857         1.3295
  75   0.0000       0.050546         1.3754
  76   0.0000       0.072030         1.9600

MULLIKEN ATOMIC CHARGES
-----------------------
   0 C :   -0.201722
   1 C :   -0.151419
   2 C :   -0.135665
   3 C :    0.284820
   4 C :   -0.392352
   5 C :   -0.088992
   6 C :    0.285158
   7 C :   -0.136275
   8 C :   -0.150923
   9 H :    0.176892
  10 C :   -0.201927
  11 C :   -0.089020
  12 C :   -0.391801
  13 H :    0.176710
  14 H :    0.190343
  15 H :    0.174136
  16 H :    0.174913
  17 H :    0.174112
  18 C :    0.335333
  19 C :   -0.398877
  20 C :   -0.109070
  21 C :   -0.108673
  22 C :   -0.262063
  23 H :    0.170552
  24 H :    0.170582
  25 H :    0.182926
  26 H :    0.167510
  27 H :    0.174860
  28 N :    0.036112
  29 H :    0.190097
  30 S :   -0.029953
  31 C :   -0.399340
  32 H :    0.183018
Sum of atomic charges:    0.0000000

LOEWDIN ATOMIC CHARGES
----------------------
   0 C :   -0.144845
   1 C :   -0.142409
   2 C :   -0.330613
   3 C :   -0.168868
   4 C :   -0.107173
   5 C :   -0.140818
   6 C :   -0.168927
   7 C :   -0.330624
   8 C :   -0.142404
   9 H :    0.157872
  10 C :   -0.144846
  11 C :   -0.140830
  12 C :   -0.107142
  13 H :    0.157872
  14 H :    0.164811
  15 H :    0.157091
  16 H :    0.156717
  17 H :    0.157088
  18 C :   -0.159171
  19 C :   -0.136246
  20 C :   -0.148960
  21 C :   -0.148951
  22 C :   -0.180991
  23 H :    0.155358
  24 H :    0.155355
  25 H :    0.160501
  26 H :    0.150025
  27 H :    0.156719
  28 N :    0.264268
  29 H :    0.164818
  30 S :    0.661120
  31 C :   -0.136267
  32 H :    0.160472

  Mayer bond orders larger than 0.100000
B(  0-C ,  1-C ) :   1.4143 B(  0-C ,  5-C ) :   1.3833 B(  0-C , 27-H ) :   0.9773
B(  1-C ,  2-C ) :   1.3577 B(  1-C , 13-H ) :   0.9703 B(  2-C ,  3-C ) :   1.3386
B(  2-C , 30-S ) :   1.0900 B(  3-C ,  4-C ) :   1.3764 B(  3-C , 28-N ) :   0.9116
B(  4-C ,  5-C ) :   1.4264 B(  4-C , 14-H ) :   0.9798 B(  5-C , 15-H ) :   0.9744
B(  6-C ,  7-C ) :   1.3376 B(  6-C , 12-C ) :   1.3762 B(  6-C , 28-N ) :   0.9116
B(  7-C ,  8-C ) :   1.3576 B(  7-C , 30-S ) :   1.0896 B(  8-C ,  9-H ) :   0.9700
B(  8-C , 10-C ) :   1.4150 B( 10-C , 11-C ) :   1.3832 B( 10-C , 16-H ) :   0.9772
B( 11-C , 12-C ) :   1.4260 B( 11-C , 17-H ) :   0.9746 B( 12-C , 29-H ) :   0.9800
B( 18-C , 19-C ) :   1.3318 B( 18-C , 28-N ) :   1.1362 B( 18-C , 31-C ) :   1.3321
B( 19-C , 20-C ) :   1.4503 B( 19-C , 25-H ) :   0.9699 B( 19-C , 31-C ) :   0.1132
B( 20-C , 22-C ) :   1.3969 B( 20-C , 23-H ) :   0.9734 B( 21-C , 22-C ) :   1.3971
B( 21-C , 24-H ) :   0.9733 B( 21-C , 31-C ) :   1.4505 B( 22-C , 26-H ) :   0.9826
B( 31-C , 32-H ) :   0.9696

MP2 TOTAL ENERGY:    -1145.741647653 Eh

-----------------------------------------------------------------------------
         ABSORPTION SPECTRUM VIA TRANSITION ELECTRIC DIPOLE MOMENTS
-----------------------------------------------------------------------------
State   Energy    Wavelength  fosc         T2        TX        TY        TZ
        (cm-1)      (nm)                 (au**2)    (au)      (au)      (au)
-----------------------------------------------------------------------------
   1   35125.6    284.7   0.256542710   2.40442   1.53518   0.00064  -0.21828
   2   36180.1    276.4   0.018418941   0.16760  -0.01248   0.40920   0.00087
   3   35561.1    281.2   0.000481322   0.00446   0.00722   0.06634   0.00180
   4   35712.5    280.0   0.059708708   0.55042  -0.69079   0.00232  -0.27058
   5   37401.1    267.4   0.005076998   0.04469   0.00010  -0.21140   0.00040
   6   43401.5    230.4   0.112352222   0.85222   0.51609  -0.06926  -0.76228
   7   42520.9    235.2   0.304939703   2.36095   0.02562   1.53595  -0.03415
   8   42296.5    236.4   0.238849501   1.85907   1.14436  -0.00317   0.74129
   9   45926.6    217.7   0.336101630   2.40925  -0.00409  -1.55217  -0.00129
  10   45116.1    221.7   0.062146761   0.45348  -0.66333   0.00330   0.11608
  11   45007.8    222.2   0.100032976   0.73170   0.00243   0.85539   0.00049
  12   50140.2    199.4   0.799655987   5.25040  -2.26290   0.00049   0.36012
  13   49567.3    201.7   0.946035058   6.28330   0.00118   2.50665   0.00058
  14   48213.2    207.4   0.014441630   0.09861  -0.00272   0.31400  -0.00280
  15   49168.1    203.4   0.119897268   0.80279   0.76929   0.00214   0.45932
  16   49990.2    200.0   0.119760891   0.78869  -0.18936   0.01230   0.86757
  17   48945.4    204.3   0.080157222   0.53915  -0.00317  -0.73401   0.01891
  18   52212.0    191.5   0.402583705   2.53841  -0.00340  -1.59323   0.00069
  19   52126.1    191.8   0.000014991   0.00009  -0.00526   0.00386  -0.00721
  20   54474.8    183.6   0.451637686   2.72942   0.96169  -0.00001   1.34335
  21   55386.2    180.6   0.083618994   0.49703  -0.68300   0.00275  -0.17474
  22   55353.5    180.7   0.066233193   0.39392  -0.43934   0.00170  -0.44821
  23   52464.4    190.6   0.059204770   0.37151   0.00005   0.60951  -0.00068
  24   52363.7    191.0   0.024796097   0.15589   0.00216   0.39483  -0.00034
  25   55107.4    181.5   0.161437027   0.96443   0.97463  -0.00043   0.12052
  26   55647.3    179.7   0.023427607   0.13860   0.18015  -0.00180   0.32580
  27   58942.1    169.7   0.003107411   0.01736  -0.06065  -0.00190  -0.11693
  28   55275.0    180.9   0.019193389   0.11431   0.01695   0.33701   0.02129
  29   55649.7    179.7   0.057953984   0.34284  -0.36846   0.01705  -0.45475
  30   55717.3    179.5   0.007289524   0.04307   0.00010  -0.20753   0.00051

FINAL SINGLE POINT ENERGY     -1144.400296122844

DIPOLE MOMENT
-------------
                                X             Y             Z
Electronic contribution:     -6.48660       0.00798      -3.57164
Nuclear contribution   :      6.27875      -0.00784       4.41851
                        -----------------------------------------
Total Dipole Moment    :     -0.20785       0.00014       0.84687
                        -----------------------------------------
Magnitude (a.u.)       :      0.87200
Magnitude (Debye)      :      2.21645

Rotational constants in cm-1:     0.012934     0.011295     0.007075
Rotational constants in MHz :   387.761121   338.628638   212.103272

                             ****ORCA TERMINATED NORMALLY****
TOTAL RUN TIME: 0 days 2 hours 44 minutes 59 seconds 976 msec
