 Gaussian 09, Revision E.01,

 ----------------------------------------------------------------------
 #p m06l/def2TZVP opt freq=noraman nosymm int=ultrafine scrf=(SMD,solve
 nt=n,n-DiMethylAcetamide)
 ----------------------------------------------------------------------

 -----
 Title
 -----
 Symbolic Z-matrix:
 Charge =  0 Multiplicity = 1

 SCF Done:  E(RM06L) =  -1146.86300031     A.U. after   15 cycles
 SCF Done:  E(RM06L) =  -1146.86567636     A.U. after   12 cycles
 SCF Done:  E(RM06L) =  -1146.86576290     A.U. after   11 cycles
 SCF Done:  E(RM06L) =  -1146.86583083     A.U. after   12 cycles
 SCF Done:  E(RM06L) =  -1146.86587296     A.U. after   12 cycles
 SCF Done:  E(RM06L) =  -1146.86589352     A.U. after   12 cycles
 SCF Done:  E(RM06L) =  -1146.86589962     A.U. after   10 cycles
 SCF Done:  E(RM06L) =  -1146.86589997     A.U. after    8 cycles
 SCF Done:  E(RM06L) =  -1146.86590028     A.U. after    7 cycles
 Optimization completed.
    -- Stationary point found.
 Normal termination of Gaussian 09 at Wed Feb 17 10:23:42 2021.

 -------------------------------------------------------------------
 #P Geom=AllCheck Guess=TCheck SCRF=Check GenChk RM06L/def2TZVP Freq
 -------------------------------------------------------------------

 Structure from the checkpoint file:  "cp.chk"
 -----
 Title
 -----
 Charge =  0 Multiplicity = 1

 SCF Done:  E(RM06L) =  -1146.86590028     A.U. after    1 cycles

  Exact polarizability: 389.729  -0.319 428.874 -27.125  -0.662 258.400
 Approx polarizability: 475.470  -0.418 521.801 -50.698  -0.918 329.130

                      1                      2                      3
                      A                      A                      A
 Frequencies --     33.3647                38.9528                68.3102
 Red. masses --      3.7333                 5.8907                 6.0759
 Frc consts  --      0.0024                 0.0053                 0.0167
 IR Inten    --      0.0507                 1.4830                 2.4534

                      4                      5                      6
                      A                      A                      A
 Frequencies --     84.7880               156.5023               158.3233
 Red. masses --      4.5853                 4.2371                 4.3260
 Frc consts  --      0.0194                 0.0611                 0.0639
 IR Inten    --      0.0082                 0.7929                 2.1684

                      7                      8                      9
                      A                      A                      A
 Frequencies --    184.4856               227.4417               259.3960
 Red. masses --      5.2257                 5.8539                 5.2274
 Frc consts  --      0.1048                 0.1784                 0.2072
 IR Inten    --      0.5220                 4.3519                 1.0934

                     10                     11                     12
                      A                      A                      A
 Frequencies --    314.8585               323.7340               354.2934
 Red. masses --      4.9173                 5.6544                 6.3323
 Frc consts  --      0.2872                 0.3491                 0.4683
 IR Inten    --      2.9875                 6.9385                 5.0445

                     13                     14                     15
                      A                      A                      A
 Frequencies --    385.6621               393.6088               422.7479
 Red. masses --      9.3154                 5.0187                 3.0055
 Frc consts  --      0.8163                 0.4581                 0.3165
 IR Inten    --      1.3471                 2.8990                 0.0964

                     16                     17                     18
                      A                      A                      A
 Frequencies --    446.7498               461.2560               475.7008
 Red. masses --      9.4936                 3.5775                 3.7672
 Frc consts  --      1.1164                 0.4485                 0.5023
 IR Inten    --      0.6952                 1.0557                34.1120

                     19                     20                     21
                      A                      A                      A
 Frequencies --    507.8653               535.8725               542.6618
 Red. masses --      2.9753                 5.7981                 4.1403
 Frc consts  --      0.4521                 0.9810                 0.7184
 IR Inten    --      8.8802                 5.4228                 1.5752

                     22                     23                     24
                      A                      A                      A
 Frequencies --    567.3750               627.9930               635.2287
 Red. masses --      4.5647                 6.1799                 5.4668
 Frc consts  --      0.8658                 1.4360                 1.2997
 IR Inten    --      4.9200                 2.3266                38.7781

                     25                     26                     27
                      A                      A                      A
 Frequencies --    637.7544               688.7619               705.0708
 Red. masses --      6.5754                 6.2482                 6.4375
 Frc consts  --      1.5757                 1.7464                 1.8855
 IR Inten    --     10.8188                 2.5501                10.2803

                     28                     29                     30
                      A                      A                      A
 Frequencies --    712.3974               746.9508               755.9733
 Red. masses --      1.8358                 4.7801                 3.3973
 Frc consts  --      0.5489                 1.5714                 1.1439
 IR Inten    --     65.3901                14.1946                 6.5742

                     31                     32                     33
                      A                      A                      A
 Frequencies --    763.0306               766.7971               769.7889
 Red. masses --      2.1411                 2.0720                 1.4028
 Frc consts  --      0.7345                 0.7178                 0.4898
 IR Inten    --    106.8461                63.2513                37.4987

                     34                     35                     36
                      A                      A                      A
 Frequencies --    778.8389               835.7623               884.0604
 Red. masses --      1.9840                 1.2620                 1.4259
 Frc consts  --      0.7091                 0.5194                 0.6566
 IR Inten    --     67.8898                 1.2003                 7.9023

                     37                     38                     39
                      A                      A                      A
 Frequencies --    887.9422               895.8320               935.7853
 Red. masses --      1.3396                 1.4308                 6.0910
 Frc consts  --      0.6223                 0.6765                 3.1426
 IR Inten    --      0.2229                 8.3050                 0.6422

                     40                     41                     42
                      A                      A                      A
 Frequencies --    942.0772               972.5089               975.6947
 Red. masses --      4.4050                 1.3812                 1.4617
 Frc consts  --      2.3034                 0.7697                 0.8199
 IR Inten    --      0.6751                 1.0685                 3.6017

                     43                     44                     45
                      A                      A                      A
 Frequencies --    988.5812              1000.2617              1006.3763
 Red. masses --      1.3450                 1.2567                 1.2933
 Frc consts  --      0.7744                 0.7408                 0.7717
 IR Inten    --      0.7344                 0.3342                 0.0887

                     46                     47                     48
                      A                      A                      A
 Frequencies --   1006.7655              1009.5154              1056.3329
 Red. masses --      1.3109                 4.8108                 3.6025
 Frc consts  --      0.7828                 2.8886                 2.3684
 IR Inten    --      0.1715                10.8544                47.6377

                     49                     50                     51
                      A                      A                      A
 Frequencies --   1058.8083              1063.1714              1075.7991
 Red. masses --      2.4830                 2.2730                 2.5178
 Frc consts  --      1.6401                 1.5137                 1.7168
 IR Inten    --     15.8980                17.3333                 4.8658

                     52                     53                     54
                      A                      A                      A
 Frequencies --   1091.5828              1121.1912              1143.3622
 Red. masses --      3.9216                 1.5212                 1.6176
 Frc consts  --      2.7531                 1.1266                 1.2459
 IR Inten    --     20.6473                 2.9203                35.7022

                     55                     56                     57
                      A                      A                      A
 Frequencies --   1150.8212              1172.0678              1173.1688
 Red. masses --      1.5721                 1.0675                 1.0863
 Frc consts  --      1.2267                 0.8640                 0.8809
 IR Inten    --      3.8701                 0.4781                 0.0613

                     58                     59                     60
                      A                      A                      A
 Frequencies --   1173.3466              1206.0299              1213.3928
 Red. masses --      1.0794                 1.3201                 2.1008
 Frc consts  --      0.8755                 1.1313                 1.8224
 IR Inten    --      0.0351                47.0010                 6.1663

                     61                     62                     63
                      A                      A                      A
 Frequencies --   1253.0954              1284.9023              1301.3929
 Red. masses --      1.9538                 1.7096                 2.0313
 Frc consts  --      1.8075                 1.6630                 2.0269
 IR Inten    --     88.8441               182.2574                91.5593

                     64                     65                     66
                      A                      A                      A
 Frequencies --   1325.3073              1346.9043              1364.8482
 Red. masses --      3.6624                 4.4498                 7.3119
 Frc consts  --      3.7901                 4.7563                 8.0251
 IR Inten    --    500.0257                25.3602                28.8653

                     67                     68                     69
                      A                      A                      A
 Frequencies --   1365.4139              1377.9255              1466.2727
 Red. masses --      2.4619                 3.9866                 2.2016
 Frc consts  --      2.7043                 4.4597                 2.7888
 IR Inten    --     14.5050                13.9593                 0.1159

                     70                     71                     72
                      A                      A                      A
 Frequencies --   1473.5609              1490.4179              1494.2491
 Red. masses --      2.2688                 2.4661                 2.7330
 Frc consts  --      2.9025                 3.2276                 3.5953
 IR Inten    --     51.1006               194.1559                53.2769

                     73                     74                     75
                      A                      A                      A
 Frequencies --   1512.8662              1526.2798              1608.2610
 Red. masses --      2.6976                 2.2255                 5.9160
 Frc consts  --      3.6377                 3.0545                 9.0155
 IR Inten    --    113.7444               307.4932                29.1033

                     76                     77                     78
                      A                      A                      A
 Frequencies --   1620.4389              1622.4174              1626.5136
 Red. masses --      5.7797                 6.8514                 6.2150
 Frc consts  --      8.9416                10.6256                 9.6874
 IR Inten    --      0.0156                 9.1037                 4.6889

                     79                     80                     81
                      A                      A                      A
 Frequencies --   1631.7044              1651.5735              3180.5442
 Red. masses --      5.9086                 6.1213                 1.0854
 Frc consts  --      9.2686                 9.8376                 6.4692
 IR Inten    --    178.7929               137.9114                 6.3961

                     82                     83                     84
                      A                      A                      A
 Frequencies --   3186.1826              3186.7085              3186.7495
 Red. masses --      1.0898                 1.0857                 1.0860
 Frc consts  --      6.5184                 6.4957                 6.4977
 IR Inten    --     19.4871                 2.1903                 3.2789

                     85                     86                     87
                      A                      A                      A
 Frequencies --   3192.9963              3193.0666              3201.6741
 Red. masses --      1.0893                 1.0893                 1.0937
 Frc consts  --      6.5432                 6.5438                 6.6055
 IR Inten    --      6.1354                 3.2773                16.9713

                     88                     89                     90
                      A                      A                      A
 Frequencies --   3201.7433              3207.9374              3211.2318
 Red. masses --      1.0937                 1.0956                 1.0984
 Frc consts  --      6.6057                 6.6428                 6.6736
 IR Inten    --     23.7777                26.5024                27.2351

                     91                     92                     93
                      A                      A                      A
 Frequencies --   3211.4166              3225.6757              3226.9915
 Red. masses --      1.0984                 1.0915                 1.0911
 Frc consts  --      6.6742                 6.6913                 6.6943
 IR Inten    --      6.1399                 3.9024                 6.0684

 - Thermochemistry -
 -------------------
 Temperature   298.150 Kelvin.  Pressure   1.00000 Atm.
 Atom     1 has atomic number  6 and mass  12.00000

 Molecular mass:   275.07687 amu.
 Principal axes and moments of inertia in atomic units:
                           1         2         3
     Eigenvalues --  4649.862395323.757438500.82432
           X            0.99989  -0.00547  -0.01399
           Y            0.00550   0.99998   0.00235
           Z            0.01398  -0.00243   0.99990
 This molecule is an asymmetric top.
 Rotational symmetry number  1.
 Warning -- assumption of classical behavior for rotation
           may cause significant error
 Rotational temperatures (Kelvin)      0.01863     0.01627     0.01019
 Rotational constants (GHZ):           0.38813     0.33900     0.21230
 Zero-point vibrational energy     679060.4 (Joules/Mol)
                                  162.29933 (Kcal/Mol)
 Warning -- explicit consideration of  22 degrees of freedom as
           vibrations may cause significant error
 Vibrational temperatures:     48.00    56.04    98.28   121.99   225.17
          (Kelvin)            227.79   265.43   327.24   373.21   453.01
                              465.78   509.75   554.88   566.31   608.24
                              642.77   663.64   684.43   730.70   771.00
                              780.77   816.33   903.54   913.95   917.59
                              990.97  1014.44  1024.98  1074.69  1087.68
                             1097.83  1103.25  1107.55  1120.57  1202.47
                             1271.96  1277.55  1288.90  1346.38  1355.44
                             1399.22  1403.81  1422.35  1439.15  1447.95
                             1448.51  1452.47  1519.83  1523.39  1529.66
                             1547.83  1570.54  1613.14  1645.04  1655.77
                             1686.34  1687.93  1688.18  1735.21  1745.80
                             1802.92  1848.69  1872.41  1906.82  1937.89
                             1963.71  1964.52  1982.52  2109.64  2120.12
                             2144.38  2149.89  2176.67  2195.97  2313.93
                             2331.45  2334.29  2340.19  2347.66  2376.24
                             4576.09  4584.20  4584.96  4585.02  4594.00
                             4594.10  4606.49  4606.59  4615.50  4620.24
                             4620.51  4641.02  4642.92

 Zero-point correction=                           0.258640 (Hartree/Particle)
 Thermal correction to Energy=                    0.273550
 Thermal correction to Enthalpy=                  0.274495
 Thermal correction to Gibbs Free Energy=         0.215722
 Sum of electronic and zero-point Energies=          -1146.607260
 Sum of electronic and thermal Energies=             -1146.592350
 Sum of electronic and thermal Enthalpies=           -1146.591406
 Sum of electronic and thermal Free Energies=        -1146.650178

                     E (Thermal)             CV                S
                      KCal/Mol        Cal/Mol-Kelvin    Cal/Mol-Kelvin
 Total                  171.655             61.515            123.698
 Electronic               0.000              0.000              0.000
 Translational            0.889              2.981             42.734
 Rotational               0.889              2.981             33.709
 Vibrational            169.878             55.554             47.255
 Vibration     1          0.594              1.983              5.619
 Vibration     2          0.594              1.981              5.312
 Vibration     3          0.598              1.969              4.201
 Vibration     4          0.601              1.960              3.777
 Vibration     5          0.620              1.895              2.592
 Vibration     6          0.621              1.893              2.570
 Vibration     7          0.631              1.861              2.283
 Vibration     8          0.651              1.799              1.899
 Vibration     9          0.668              1.747              1.666
 Vibration    10          0.702              1.645              1.337
 Vibration    11          0.708              1.628              1.291
 Vibration    12          0.730              1.566              1.147
 Vibration    13          0.754              1.501              1.017
 Vibration    14          0.761              1.484              0.986
 Vibration    15          0.785              1.421              0.883
 Vibration    16          0.806              1.368              0.806
 Vibration    17          0.819              1.336              0.762
 Vibration    18          0.832              1.304              0.722
 Vibration    19          0.863              1.233              0.639
 Vibration    20          0.891              1.171              0.574
 Vibration    21          0.898              1.156              0.560
 Vibration    22          0.923              1.102              0.509

 Optimization completed.
    -- Stationary point found.
 Normal termination of Gaussian 09 at Wed Feb 17 12:18:24 2021.
 Gaussian 09:  ES64L-G09RevE.01 30-Nov-2015

 ----------------------------------------------------------------------
 #p m06l chkbasis geom=allcheck Guess=Read int=ultrafine scrf=(SMD,solv
 ent=n,n-DiMethylAcetamide) td=(NStates=30)
 ----------------------------------------------------------------------

 Structure from the checkpoint file:  "cp.chk"
 -----
 Title
 -----
 Charge =  0 Multiplicity = 1

                         Standard orientation:
 ---------------------------------------------------------------------
 Center     Atomic      Atomic             Coordinates (Angstroms)
 Number     Number       Type             X           Y           Z
 ---------------------------------------------------------------------
      1          6           0       -1.985898   -3.515042    0.407053
      2          6           0       -2.312002   -2.488511   -0.463374
      3          6           0       -1.542475   -1.330418   -0.486786
      4          6           0       -0.445033   -1.194994    0.366255
      5          6           0       -0.165077   -2.207925    1.278224
      6          6           0       -0.920432   -3.368717    1.285591
      7          6           0       -0.441456    1.195479    0.366646
      8          6           0       -1.538479    1.334743   -0.486272
      9          6           0       -2.304280    2.495313   -0.462308
     10          1           0       -3.155013    2.588569   -1.125521
     11          6           0       -1.974792    3.520430    0.408520
     12          6           0       -0.909645    3.370379    1.286850
     13          6           0       -0.158066    2.207183    1.278898
     14          1           0       -3.163046   -2.578665   -1.126627
     15          1           0        0.659404   -2.082373    1.968287
     16          1           0       -0.681551   -4.157157    1.987461
     17          1           0       -2.565617    4.427177    0.416473
     18          1           0       -0.668114    4.157867    1.988873
     19          6           0        1.694267   -0.002556    0.032232
     20          6           0        2.401356    1.196027   -0.140617
     21          6           0        3.753937    1.185748   -0.436025
     22          6           0        3.752168   -1.194872   -0.433194
     23          6           0        4.450681   -0.005254   -0.575654
     24          1           0        4.264284    2.132870   -0.563258
     25          1           0        4.261208   -2.143005   -0.558085
     26          1           0        1.893625    2.145736   -0.063182
     27          1           0        5.508905   -0.006302   -0.800862
     28          1           0       -2.579539   -4.419953    0.414610
     29          7           0        0.319320   -0.000888    0.310691
     30          1           0        0.666320    2.078770    1.968553
     31         16           0       -1.943270    0.002977   -1.572079
     32          6           0        2.399524   -1.202603   -0.137744
     33          1           0        1.890422   -2.151419   -0.058055
 ---------------------------------------------------------------------

 SCF Done:  E(RM06L) =  -1146.86591226     A.U. after    7 cycles

 Excitation energies and oscillator strengths:

 Excited State   1:      Singlet-A      3.6150 eV  342.98 nm  f=0.0622  <S**2>=0.000
      72 -> 73         0.67467
      72 -> 75         0.19216
 This state for optimization and/or second-order correction.
 Total Energy, E(TD-HF/TD-KS) =  -1146.73306490
 Copying the excited state density for this state as the 1-particle RhoCI density.

 Excited State   2:      Singlet-A      3.6707 eV  337.77 nm  f=0.0000  <S**2>=0.000
      72 -> 74         0.70431

 Excited State   3:      Singlet-A      3.8149 eV  325.00 nm  f=0.0090  <S**2>=0.000
      72 -> 76         0.69267

 Excited State   4:      Singlet-A      3.8553 eV  321.59 nm  f=0.1689  <S**2>=0.000
      72 -> 73        -0.19489
      72 -> 75         0.66525

 Excited State   5:      Singlet-A      4.2730 eV  290.16 nm  f=0.0246  <S**2>=0.000
      71 -> 74        -0.10591
      71 -> 76         0.12315
      72 -> 77         0.66763

 Excited State   6:      Singlet-A      4.3694 eV  283.75 nm  f=0.0103  <S**2>=0.000
      71 -> 73         0.68474

 Excited State   7:      Singlet-A      4.5436 eV  272.88 nm  f=0.0455  <S**2>=0.000
      71 -> 74         0.41330
      71 -> 76         0.55382

 Excited State   8:      Singlet-A      4.5959 eV  269.77 nm  f=0.1828  <S**2>=0.000
      67 -> 75         0.10353
      70 -> 73         0.10358
      71 -> 74         0.53740
      71 -> 76        -0.39463
      72 -> 77         0.14077

 Excited State   9:      Singlet-A      4.7002 eV  263.78 nm  f=0.0216  <S**2>=0.000
      67 -> 74         0.15352
      71 -> 75         0.64175
      72 -> 78        -0.18865

 Excited State  10:      Singlet-A      4.9006 eV  253.00 nm  f=0.1697  <S**2>=0.000
      69 -> 74         0.11861
      71 -> 75         0.19483
      71 -> 78        -0.18580
      72 -> 78         0.60819

 Excited State  11:      Singlet-A      4.9531 eV  250.32 nm  f=0.0008  <S**2>=0.000
      70 -> 73         0.12516
      71 -> 77         0.63898
      72 -> 79        -0.21819

 Excited State  12:      Singlet-A      4.9788 eV  249.02 nm  f=0.0001  <S**2>=0.000
      71 -> 77         0.19178
      72 -> 79         0.66889

 Excited State  13:      Singlet-A      5.1373 eV  241.34 nm  f=0.0304  <S**2>=0.000
      69 -> 73        -0.13372
      70 -> 73         0.63987
      70 -> 75         0.18081
      71 -> 77        -0.11390

 Excited State  14:      Singlet-A      5.2157 eV  237.71 nm  f=0.0008  <S**2>=0.000
      69 -> 74        -0.18925
      70 -> 74         0.67386

 Excited State  15:      Singlet-A      5.2681 eV  235.35 nm  f=0.0466  <S**2>=0.000
      67 -> 73         0.26323
      67 -> 75        -0.12817
      68 -> 74        -0.14683
      68 -> 76        -0.16944
      69 -> 73         0.47872
      69 -> 75         0.22939
      70 -> 73         0.12271
      70 -> 75        -0.23948

 Excited State  16:      Singlet-A      5.3141 eV  233.31 nm  f=0.0010  <S**2>=0.000
      67 -> 73         0.17064
      67 -> 75        -0.13331
      69 -> 73         0.20138
      70 -> 73        -0.10088
      70 -> 75         0.60648

 Excited State  17:      Singlet-A      5.3344 eV  232.42 nm  f=0.0020  <S**2>=0.000
      67 -> 74        -0.11087
      68 -> 73         0.40482
      69 -> 76        -0.37403
      70 -> 76        -0.19459
      71 -> 78         0.36703

 Excited State  18:      Singlet-A      5.3544 eV  231.55 nm  f=0.0103  <S**2>=0.000
      67 -> 74        -0.17086
      67 -> 76        -0.17251
      68 -> 75         0.20968
      69 -> 74         0.40454
      69 -> 76        -0.27034
      71 -> 78        -0.34598
      72 -> 78        -0.10933

 Excited State  19:      Singlet-A      5.3628 eV  231.19 nm  f=0.0117  <S**2>=0.000
      67 -> 73         0.31641
      68 -> 74         0.19151
      68 -> 76         0.15202
      69 -> 73        -0.28840
      69 -> 75         0.49367

 Excited State  20:      Singlet-A      5.4054 eV  229.37 nm  f=0.0024  <S**2>=0.000
      67 -> 74         0.11228
      67 -> 76         0.13260
      68 -> 73         0.21104
      69 -> 74        -0.15363
      69 -> 76        -0.31665
      70 -> 76         0.44151
      70 -> 77         0.22201
      71 -> 78        -0.22496

 Excited State  21:      Singlet-A      5.4511 eV  227.45 nm  f=0.0026  <S**2>=0.000
      67 -> 73        -0.33588
      68 -> 74         0.47446
      68 -> 76        -0.26493
      69 -> 73         0.15553
      69 -> 75         0.20456

 Excited State  22:      Singlet-A      5.4756 eV  226.43 nm  f=0.1106  <S**2>=0.000
      68 -> 75         0.27860
      69 -> 74         0.29241
      69 -> 76         0.22455
      69 -> 77        -0.17038
      70 -> 76         0.34538
      70 -> 77         0.16381
      71 -> 78         0.27852

 Excited State  23:      Singlet-A      5.5175 eV  224.71 nm  f=0.0219  <S**2>=0.000
      67 -> 74         0.13411
      67 -> 76         0.42632
      68 -> 73         0.22784
      68 -> 75         0.39498
      69 -> 76         0.11181
      70 -> 76        -0.15113
      70 -> 77        -0.17333
      71 -> 78        -0.13219

 Excited State  24:      Singlet-A      5.6520 eV  219.36 nm  f=0.0000  <S**2>=0.000
      67 -> 75         0.43307
      68 -> 74        -0.23845
      68 -> 76        -0.31272
      69 -> 75         0.20158
      70 -> 75         0.10753
      71 -> 79        -0.26354

 Excited State  25:      Singlet-A      5.6586 eV  219.11 nm  f=0.0203  <S**2>=0.000
      67 -> 76         0.21112
      68 -> 73        -0.30133
      68 -> 75         0.20659
      69 -> 76        -0.17347
      69 -> 77         0.43192
      70 -> 77         0.21121
      71 -> 78         0.16448
      72 -> 78         0.11801

 Excited State  26:      Singlet-A      5.7421 eV  215.92 nm  f=0.0184  <S**2>=0.000
      68 -> 74        -0.14370
      68 -> 76        -0.22126
      71 -> 79         0.62126

 Excited State  27:      Singlet-A      5.7782 eV  214.57 nm  f=0.0363  <S**2>=0.000
      67 -> 74         0.35923
      67 -> 76        -0.34110
      67 -> 77         0.33650
      68 -> 75         0.16691
      69 -> 77         0.20075
      70 -> 77         0.17126

 Excited State  28:      Singlet-A      5.8548 eV  211.76 nm  f=0.1113  <S**2>=0.000
      66 -> 74         0.13816
      67 -> 73         0.16417
      67 -> 75        -0.23861
      68 -> 76        -0.31465
      68 -> 77         0.33902
      69 -> 73        -0.12072
      69 -> 75        -0.15607
      70 -> 78        -0.30551
      71 -> 79        -0.15160

 Excited State  29:      Singlet-A      5.8826 eV  210.76 nm  f=0.0732  <S**2>=0.000
      66 -> 75        -0.16658
      67 -> 74         0.37557
      67 -> 77        -0.30895
      68 -> 75        -0.21542
      69 -> 74         0.26734
      69 -> 77         0.20660
      70 -> 74         0.11137
      71 -> 75        -0.11105

 Excited State  30:      Singlet-A      6.0056 eV  206.45 nm  f=0.0025  <S**2>=0.000
      72 -> 80         0.70190

 The electronic state is 1-A.
 Alpha  occ. eigenvalues --  -88.54121 -14.21250 -10.09769 -10.09711 -10.09708
 Alpha  occ. eigenvalues --  -10.08647 -10.08646 -10.05649 -10.05649 -10.05430
 Alpha  occ. eigenvalues --  -10.05429 -10.05166 -10.05165 -10.05116 -10.05116
 Alpha  occ. eigenvalues --  -10.04574 -10.04573 -10.04162 -10.04160 -10.03662
 Alpha  occ. eigenvalues --   -7.90278  -5.81425  -5.81020  -5.80372  -0.94439
 Alpha  occ. eigenvalues --   -0.83497  -0.83173  -0.80749  -0.77158  -0.73052
 Alpha  occ. eigenvalues --   -0.72188  -0.72059  -0.70741  -0.69066  -0.65202
 Alpha  occ. eigenvalues --   -0.59802  -0.59743  -0.57107  -0.56219  -0.56011
 Alpha  occ. eigenvalues --   -0.52971  -0.50095  -0.49918  -0.45989  -0.44704
 Alpha  occ. eigenvalues --   -0.44411  -0.43206  -0.42646  -0.41119  -0.40534
 Alpha  occ. eigenvalues --   -0.40444  -0.39126  -0.39013  -0.37959  -0.37586
 Alpha  occ. eigenvalues --   -0.36029  -0.34675  -0.34565  -0.34003  -0.32598
 Alpha  occ. eigenvalues --   -0.32024  -0.31558  -0.31028  -0.30072  -0.29090
 Alpha  occ. eigenvalues --   -0.27574  -0.24304  -0.24297  -0.23510  -0.23294
 Alpha  occ. eigenvalues --   -0.20337  -0.17550
 Alpha virt. eigenvalues --   -0.04618  -0.04165  -0.03960  -0.03849  -0.02305
 Alpha virt. eigenvalues --   -0.00902   0.00712   0.04370   0.06457   0.07558
 Alpha virt. eigenvalues --    0.08149   0.08943   0.09362   0.09408   0.10282

 Mulliken charges:
               1
     1  C   -0.136018
     2  C   -0.030302
     3  C   -0.093703
     4  C    0.412044
     5  C   -0.438775
     6  C    0.036997
     7  C    0.411303
     8  C   -0.093438
     9  C   -0.030337
    10  H    0.101724
    11  C   -0.135914
    12  C    0.036597
    13  C   -0.437925
    14  H    0.101726
    15  H    0.122683
    16  H    0.096514
    17  H    0.096137
    18  H    0.096492
    19  C    0.504358
    20  C   -0.413303
    21  C   -0.013399
    22  C   -0.013317
    23  C   -0.216786
    24  H    0.093035
    25  H    0.093039
    26  H    0.158428
    27  H    0.088200
    28  H    0.096124
    29  N   -0.212891
    30  H    0.122568
    31  S   -0.146846
    32  C   -0.413741
    33  H    0.158727
 Sum of Mulliken charges =  -0.00000

 Dipole moment (field-independent basis, Debye):
    X=             -0.8890    Y=              0.0006    Z=              1.8857  Tot=              2.0847
 Quadrupole moment (field-independent basis, Debye-Ang):
   XX=           -117.9300   YY=           -102.3218   ZZ=           -123.4837
   XY=              0.0225   XZ=              2.2623   YZ=             -0.0129

 Normal termination of Gaussian 09 at Wed Feb 17 14:04:41 2021.
