 Gaussian 09, Revision E.01,

 ----------------------------------------------------------------------
 #p TPSSTPSS/def2TZVP opt freq=noraman nosymm int=ultrafine scrf=(SMD,s
 olvent=n,n-DiMethylAcetamide)
 ----------------------------------------------------------------------

 -----
 Title
 -----
 Symbolic Z-matrix:
 Charge =  0 Multiplicity = 1

 SCF Done:  E(RTPSS-TPSS) =  -1147.13892823     A.U. after   14 cycles
 SCF Done:  E(RTPSS-TPSS) =  -1147.13939617     A.U. after   10 cycles
 SCF Done:  E(RTPSS-TPSS) =  -1147.13945744     A.U. after    9 cycles
 SCF Done:  E(RTPSS-TPSS) =  -1147.13952191     A.U. after   10 cycles
 SCF Done:  E(RTPSS-TPSS) =  -1147.13954410     A.U. after    9 cycles
 SCF Done:  E(RTPSS-TPSS) =  -1147.13955190     A.U. after    9 cycles
 SCF Done:  E(RTPSS-TPSS) =  -1147.13955304     A.U. after    8 cycles
 SCF Done:  E(RTPSS-TPSS) =  -1147.13955312     A.U. after    7 cycles
 Optimization completed.
    -- Stationary point found.
 Normal termination of Gaussian 09 at Wed Mar 31 06:49:39 2021.

 ----------------------------------------------------------------------
 #P Geom=AllCheck Guess=TCheck SCRF=Check GenChk RTPSSTPSS/def2TZVP Fre
 q
 ----------------------------------------------------------------------

 Structure from the checkpoint file:  "cp.chk"
 -----
 Title
 -----
 Charge =  0 Multiplicity = 1

 SCF Done:  E(RTPSS-TPSS) =  -1147.13955312     A.U. after    1 cycles

  Exact polarizability: 403.765  -0.340 443.246 -26.097  -0.666 262.251
 Approx polarizability: 504.884  -0.439 551.830 -50.740  -0.911 351.489

                      1                      2                      3
                      A                      A                      A
 Frequencies --     29.8674                41.8490                65.2222
 Red. masses --      3.7237                 5.8563                 5.9797
 Frc consts  --      0.0020                 0.0060                 0.0150
 IR Inten    --      0.0182                 1.9559                 2.8213

                      4                      5                      6
                      A                      A                      A
 Frequencies --     81.2195               145.6036               152.4430
 Red. masses --      4.6244                 4.2236                 4.3380
 Frc consts  --      0.0180                 0.0528                 0.0594
 IR Inten    --      0.0275                 0.8649                 2.4860

                      7                      8                      9
                      A                      A                      A
 Frequencies --    180.0430               218.5986               248.6663
 Red. masses --      5.2890                 5.8947                 5.2177
 Frc consts  --      0.1010                 0.1660                 0.1901
 IR Inten    --      0.3571                 4.3692                 0.7173

                     10                     11                     12
                      A                      A                      A
 Frequencies --    303.9356               311.1730               342.3740
 Red. masses --      4.9649                 5.8543                 6.1818
 Frc consts  --      0.2702                 0.3340                 0.4269
 IR Inten    --      2.6666                 7.3263                 4.4811

                     13                     14                     15
                      A                      A                      A
 Frequencies --    373.0336               381.0954               410.1681
 Red. masses --      9.0403                 5.0584                 3.0624
 Frc consts  --      0.7412                 0.4328                 0.3036
 IR Inten    --      1.4795                 2.6650                 0.0368

                     16                     17                     18
                      A                      A                      A
 Frequencies --    433.1259               445.3129               461.0235
 Red. masses --      9.1758                 3.6220                 3.8308
 Frc consts  --      1.0142                 0.4232                 0.4797
 IR Inten    --      0.4681                 0.7217                37.0410

                     19                     20                     21
                      A                      A                      A
 Frequencies --    493.0365               520.7719               526.7390
 Red. masses --      3.0873                 5.9206                 4.2235
 Frc consts  --      0.4422                 0.9460                 0.6904
 IR Inten    --      9.8258                 5.3404                 1.6999

                     22                     23                     24
                      A                      A                      A
 Frequencies --    548.4108               610.4327               617.1958
 Red. masses --      4.6867                 6.2200                 5.5787
 Frc consts  --      0.8305                 1.3656                 1.2521
 IR Inten    --      4.1467                 1.2827                40.0012

                     25                     26                     27
                      A                      A                      A
 Frequencies --    620.5690               671.6657               687.4063
 Red. masses --      6.6166                 6.2915                 6.4708
 Frc consts  --      1.5013                 1.6723                 1.8015
 IR Inten    --     12.0942                 2.2218                 9.0800

                     28                     29                     30
                      A                      A                      A
 Frequencies --    691.0895               728.1719               733.2869
 Red. masses --      2.2322                 4.8713                 4.5019
 Frc consts  --      0.6281                 1.5218                 1.4262
 IR Inten    --     47.1019                14.5580                 2.0808

                     31                     32                     33
                      A                      A                      A
 Frequencies --    742.7080               746.2191               755.2535
 Red. masses --      2.1530                 2.5676                 1.2820
 Frc consts  --      0.6997                 0.8424                 0.4308
 IR Inten    --    110.6975                51.4537                49.2277

                     34                     35                     36
                      A                      A                      A
 Frequencies --    761.7145               820.9283               865.2742
 Red. masses --      1.4511                 1.2578                 1.4242
 Frc consts  --      0.4960                 0.4994                 0.6282
 IR Inten    --    122.0529                 0.8009                 6.2677

                     37                     38                     39
                      A                      A                      A
 Frequencies --    868.6809               877.6683               912.8801
 Red. masses --      1.3417                 1.4364                 6.1362
 Frc consts  --      0.5965                 0.6519                 3.0128
 IR Inten    --      0.2446                 9.0228                 0.9478

                     40                     41                     42
                      A                      A                      A
 Frequencies --    918.2682               947.0325               950.3169
 Red. masses --      4.3401                 1.3775                 1.4561
 Frc consts  --      2.1562                 0.7279                 0.7748
 IR Inten    --      1.2089                 1.2919                 3.6066

                     43                     44                     45
                      A                      A                      A
 Frequencies --    959.3262               965.7797               974.0125
 Red. masses --      1.3347                 1.2241                 1.2680
 Frc consts  --      0.7237                 0.6727                 0.7088
 IR Inten    --      0.7398                 0.2317                 0.1202

                     46                     47                     48
                      A                      A                      A
 Frequencies --    974.7419               990.5586              1033.1085
 Red. masses --      1.2681                 5.5719                 3.5557
 Frc consts  --      0.7099                 3.2212                 2.2360
 IR Inten    --      0.1123                12.8856                47.4380

                     49                     50                     51
                      A                      A                      A
 Frequencies --   1035.2287              1038.7107              1054.0169
 Red. masses --      2.6135                 2.3338                 2.7269
 Frc consts  --      1.6502                 1.4835                 1.7849
 IR Inten    --     12.7104                21.4189                 4.4456

                     52                     53                     54
                      A                      A                      A
 Frequencies --   1069.7097              1098.8499              1122.2542
 Red. masses --      4.1068                 1.5848                 1.6909
 Frc consts  --      2.7687                 1.1274                 1.2548
 IR Inten    --     18.1263                 3.2182                35.4829

                     55                     56                     57
                      A                      A                      A
 Frequencies --   1129.9827              1157.2449              1158.2497
 Red. masses --      1.6539                 1.0671                 1.0968
 Frc consts  --      1.2442                 0.8420                 0.8669
 IR Inten    --      5.8873                 0.6744                 0.5032

                     58                     59                     60
                      A                      A                      A
 Frequencies --   1158.5400              1181.7029              1191.8980
 Red. masses --      1.0830                 2.3820                 1.2353
 Frc consts  --      0.8565                 1.9598                 1.0339
 IR Inten    --      0.1934                54.4980                12.8759

                     61                     62                     63
                      A                      A                      A
 Frequencies --   1226.8268              1261.6473              1277.6706
 Red. masses --      2.2535                 2.1506                 2.0009
 Frc consts  --      1.9983                 2.0170                 1.9245
 IR Inten    --    120.9371               373.4946                82.6082

                     64                     65                     66
                      A                      A                      A
 Frequencies --   1291.6294              1315.6119              1329.4594
 Red. masses --      2.7341                 7.3061                 9.9485
 Frc consts  --      2.6874                 7.4506                10.3600
 IR Inten    --    332.2743                 5.8239                17.9020

                     67                     68                     69
                      A                      A                      A
 Frequencies --   1336.1890              1353.3781              1444.2703
 Red. masses --      6.5529                 1.5586                 2.0423
 Frc consts  --      6.8932                 1.6820                 2.5100
 IR Inten    --      0.3588                21.6868                 0.1330

                     70                     71                     72
                      A                      A                      A
 Frequencies --   1451.2757              1461.6958              1467.6696
 Red. masses --      2.1087                 2.4554                 2.3921
 Frc consts  --      2.6167                 3.0910                 3.0359
 IR Inten    --     57.6112               244.0799                 0.5032

                     73                     74                     75
                      A                      A                      A
 Frequencies --   1483.0401              1500.3163              1570.8865
 Red. masses --      2.5305                 2.0561                 5.4096
 Frc consts  --      3.2792                 2.7268                 7.8651
 IR Inten    --    126.1756               279.2158                21.7585

                     76                     77                     78
                      A                      A                      A
 Frequencies --   1578.6296              1583.1729              1585.6886
 Red. masses --      5.4013                 6.3130                 5.8079
 Frc consts  --      7.9307                 9.3228                 8.6042
 IR Inten    --      0.0042                 3.9441                 3.8850

                     79                     80                     81
                      A                      A                      A
 Frequencies --   1589.3947              1607.9617              3129.9377
 Red. masses --      5.5594                 5.7170                 1.0854
 Frc consts  --      8.2745                 8.7090                 6.2649
 IR Inten    --    146.3111               129.6047                 5.4518

                     82                     83                     84
                      A                      A                      A
 Frequencies --   3135.9395              3139.6048              3139.6960
 Red. masses --      1.0896                 1.0857                 1.0857
 Frc consts  --      6.3131                 6.3055                 6.3057
 IR Inten    --     27.2251                 0.2121                 0.2375

                     85                     86                     87
                      A                      A                      A
 Frequencies --   3147.4825              3147.6147              3155.5231
 Red. masses --      1.0895                 1.0895                 1.0948
 Frc consts  --      6.3590                 6.3596                 6.4226
 IR Inten    --      9.0134                 9.2333                54.0778

                     88                     89                     90
                      A                      A                      A
 Frequencies --   3157.1872              3157.3663              3164.6030
 Red. masses --      1.0933                 1.0935                 1.0971
 Frc consts  --      6.4211                 6.4229                 6.4733
 IR Inten    --     21.2150                21.0534                21.6148

                     91                     92                     93
                      A                      A                      A
 Frequencies --   3164.8680              3175.3859              3176.1055
 Red. masses --      1.0971                 1.0907                 1.0911
 Frc consts  --      6.4743                 6.4793                 6.4849
 IR Inten    --      7.2308                13.1332                 4.2714

 - Thermochemistry -
 -------------------
 Temperature   298.150 Kelvin.  Pressure   1.00000 Atm.
 Atom     1 has atomic number  6 and mass  12.00000

 Molecular mass:   275.07687 amu.
 Principal axes and moments of inertia in atomic units:
                           1         2         3
     Eigenvalues --  4707.274915391.759018585.35690
           X            0.99984  -0.00551  -0.01724
           Y            0.00555   0.99998   0.00235
           Z            0.01723  -0.00244   0.99985
 This molecule is an asymmetric top.
 Rotational symmetry number  1.
 Warning -- assumption of classical behavior for rotation
           may cause significant error
 Rotational temperatures (Kelvin)      0.01840     0.01606     0.01009
 Rotational constants (GHZ):           0.38339     0.33472     0.21021
 Zero-point vibrational energy     665375.6 (Joules/Mol)
                                  159.02859 (Kcal/Mol)
 Warning -- explicit consideration of  25 degrees of freedom as
           vibrations may cause significant error
 Vibrational temperatures:     42.97    60.21    93.84   116.86   209.49
          (Kelvin)            219.33   259.04   314.51   357.77   437.29
                              447.71   492.60   536.71   548.31   590.14
                              623.17   640.71   663.31   709.37   749.27
                              757.86   789.04   878.28   888.01   892.86
                              966.38   989.02   994.32  1047.68  1055.03
                             1068.59  1073.64  1086.64  1095.94  1181.13
                             1244.93  1249.84  1262.77  1313.43  1321.18
                             1362.57  1367.29  1380.25  1389.54  1401.38
                             1402.43  1425.19  1486.41  1489.46  1494.47
                             1516.49  1539.07  1581.00  1614.67  1625.79
                             1665.02  1666.46  1666.88  1700.20  1714.87
                             1765.13  1815.23  1838.28  1858.36  1892.87
                             1912.79  1922.48  1947.21  2077.98  2088.06
                             2103.05  2111.65  2133.76  2158.62  2260.15
                             2271.29  2277.83  2281.45  2286.78  2313.50
                             4503.28  4511.91  4517.19  4517.32  4528.52
                             4528.71  4540.09  4542.48  4542.74  4553.15
                             4553.53  4568.67  4569.70

 Zero-point correction=                           0.253428 (Hartree/Particle)
 Thermal correction to Energy=                    0.268763
 Thermal correction to Enthalpy=                  0.269707
 Thermal correction to Gibbs Free Energy=         0.210079
 Sum of electronic and zero-point Energies=          -1146.886125
 Sum of electronic and thermal Energies=             -1146.870790
 Sum of electronic and thermal Enthalpies=           -1146.869846
 Sum of electronic and thermal Free Energies=        -1146.929474

                     E (Thermal)             CV                S
                      KCal/Mol        Cal/Mol-Kelvin    Cal/Mol-Kelvin
 Total                  168.651             63.196            125.498
 Electronic               0.000              0.000              0.000
 Translational            0.889              2.981             42.734
 Rotational               0.889              2.981             33.743
 Vibrational            166.874             57.234             49.021
 Vibration     1          0.594              1.984              5.838
 Vibration     2          0.594              1.980              5.170
 Vibration     3          0.597              1.971              4.293
 Vibration     4          0.600              1.962              3.861
 Vibration     5          0.617              1.907              2.729
 Vibration     6          0.619              1.900              2.642
 Vibration     7          0.629              1.867              2.328
 Vibration     8          0.646              1.813              1.971
 Vibration     9          0.662              1.765              1.740
 Vibration    10          0.695              1.666              1.395
 Vibration    11          0.700              1.652              1.356
 Vibration    12          0.722              1.591              1.201
 Vibration    13          0.744              1.527              1.067
 Vibration    14          0.751              1.510              1.035
 Vibration    15          0.774              1.448              0.926
 Vibration    16          0.794              1.398              0.849
 Vibration    17          0.805              1.371              0.810
 Vibration    18          0.819              1.337              0.763
 Vibration    19          0.849              1.265              0.676
 Vibration    20          0.876              1.204              0.608
 Vibration    21          0.882              1.191              0.595
 Vibration    22          0.904              1.143              0.547
 Vibration    23          0.969              1.010              0.432
 Vibration    24          0.977              0.996              0.421
 Vibration    25          0.981              0.988              0.416

 Optimization completed.
    -- Stationary point found.
 Normal termination of Gaussian 09 at Wed Mar 31 08:36:21 2021.
 Gaussian 09:  ES64L-G09RevE.01 30-Nov-2015

 ----------------------------------------------------------------------
 #p TPSSTPSS chkbasis geom=allcheck Guess=Read int=ultrafine scrf=(SMD,
 solvent=n,n-DiMethylAcetamide) td=(NStates=30)
 ----------------------------------------------------------------------

 Structure from the checkpoint file:  "cp.chk"
 -----
 Title
 -----
 Charge =  0 Multiplicity = 1

                         Standard orientation:
 ---------------------------------------------------------------------
 Center     Atomic      Atomic             Coordinates (Angstroms)
 Number     Number       Type             X           Y           Z
 ---------------------------------------------------------------------
      1          6           0       -2.010636   -3.529520    0.405359
      2          6           0       -2.326398   -2.496881   -0.476703
      3          6           0       -1.542817   -1.338145   -0.495656
      4          6           0       -0.447618   -1.203346    0.372731
      5          6           0       -0.177644   -2.220690    1.295995
      6          6           0       -0.944685   -3.385319    1.297936
      7          6           0       -0.444230    1.203838    0.373080
      8          6           0       -1.538901    1.342240   -0.495372
      9          6           0       -2.318805    2.503466   -0.476150
     10          1           0       -3.168573    2.594357   -1.147240
     11          6           0       -1.999926    3.534818    0.406300
     12          6           0       -0.934582    3.387002    1.299025
     13          6           0       -0.171168    2.220015    1.296713
     14          1           0       -3.176655   -2.584657   -1.147610
     15          1           0        0.639521   -2.098561    2.000642
     16          1           0       -0.715703   -4.175961    2.007067
     17          1           0       -2.598590    4.441445    0.412284
     18          1           0       -0.703211    4.176719    2.008406
     19          6           0        1.707093   -0.002424    0.038628
     20          6           0        2.416145    1.204214   -0.133460
     21          6           0        3.777150    1.194103   -0.434069
     22          6           0        3.775198   -1.202883   -0.432296
     23          6           0        4.477185   -0.005073   -0.578640
     24          1           0        4.289586    2.144987   -0.560314
     25          1           0        4.286179   -2.154739   -0.557095
     26          1           0        1.905958    2.156550   -0.048698
     27          1           0        5.539046   -0.006122   -0.807727
     28          1           0       -2.612067   -4.434320    0.411129
     29          7           0        0.322567   -0.000828    0.322730
     30          1           0        0.645674    2.095063    2.001245
     31         16           0       -1.921798    0.002706   -1.598505
     32          6           0        2.414152   -1.210468   -0.131666
     33          1           0        1.902568   -2.161945   -0.045628
 ---------------------------------------------------------------------

 SCF Done:  E(RTPSS-TPSS) =  -1147.13955231     A.U. after    6 cycles

 Excitation energies and oscillator strengths:

 Excited State   1:      Singlet-A      3.4100 eV  363.59 nm  f=0.0502  <S**2>=0.000
      72 -> 73         0.66525
      72 -> 75         0.22327
 This state for optimization and/or second-order correction.
 Total Energy, E(TD-HF/TD-KS) =  -1147.01423726
 Copying the excited state density for this state as the 1-particle RhoCI density.

 Excited State   2:      Singlet-A      3.4725 eV  357.04 nm  f=0.0009  <S**2>=0.000
      72 -> 74         0.70323

 Excited State   3:      Singlet-A      3.6256 eV  341.97 nm  f=0.0102  <S**2>=0.000
      72 -> 76         0.68986
      72 -> 77         0.10237

 Excited State   4:      Singlet-A      3.6289 eV  341.66 nm  f=0.1608  <S**2>=0.000
      72 -> 73        -0.22466
      72 -> 75         0.65614

 Excited State   5:      Singlet-A      4.1008 eV  302.34 nm  f=0.0194  <S**2>=0.000
      71 -> 76         0.16258
      72 -> 77         0.65851

 Excited State   6:      Singlet-A      4.1497 eV  298.78 nm  f=0.0105  <S**2>=0.000
      71 -> 73         0.68622

 Excited State   7:      Singlet-A      4.3270 eV  286.53 nm  f=0.0464  <S**2>=0.000
      71 -> 74        -0.47990
      71 -> 76         0.49551

 Excited State   8:      Singlet-A      4.3882 eV  282.54 nm  f=0.1606  <S**2>=0.000
      68 -> 75         0.11646
      70 -> 73         0.10614
      71 -> 74         0.48336
      71 -> 76         0.45102
      72 -> 77        -0.15576

 Excited State   9:      Singlet-A      4.4642 eV  277.73 nm  f=0.0213  <S**2>=0.000
      68 -> 74         0.15646
      71 -> 75         0.64963
      72 -> 78        -0.15706

 Excited State  10:      Singlet-A      4.6787 eV  265.00 nm  f=0.0001  <S**2>=0.000
      72 -> 79         0.70087

 Excited State  11:      Singlet-A      4.6962 eV  264.01 nm  f=0.1718  <S**2>=0.000
      67 -> 73         0.10632
      69 -> 74        -0.10558
      71 -> 75         0.16575
      71 -> 78        -0.21853
      72 -> 78         0.60707

 Excited State  12:      Singlet-A      4.7445 eV  261.32 nm  f=0.0007  <S**2>=0.000
      68 -> 73         0.12166
      70 -> 73        -0.14632
      71 -> 77         0.66085

 Excited State  13:      Singlet-A      4.8652 eV  254.84 nm  f=0.0274  <S**2>=0.000
      69 -> 73         0.11710
      70 -> 73         0.63511
      70 -> 75         0.20827
      71 -> 77         0.11852

 Excited State  14:      Singlet-A      4.9503 eV  250.46 nm  f=0.0006  <S**2>=0.000
      69 -> 74         0.15824
      70 -> 74         0.68115

 Excited State  15:      Singlet-A      5.0150 eV  247.23 nm  f=0.0137  <S**2>=0.000
      67 -> 76        -0.13520
      69 -> 73         0.15836
      69 -> 75         0.15442
      70 -> 73        -0.18447
      70 -> 75         0.60839

 Excited State  16:      Singlet-A      5.0656 eV  244.76 nm  f=0.0316  <S**2>=0.000
      67 -> 74         0.15234
      67 -> 76        -0.12291
      68 -> 73        -0.24874
      68 -> 75         0.18300
      69 -> 73         0.52282
      69 -> 75         0.14998
      70 -> 75        -0.22631

 Excited State  17:      Singlet-A      5.0895 eV  243.61 nm  f=0.0050  <S**2>=0.000
      67 -> 73         0.39010
      69 -> 76        -0.22413
      70 -> 76         0.19665
      71 -> 78         0.47728

 Excited State  18:      Singlet-A      5.1232 eV  242.00 nm  f=0.0061  <S**2>=0.000
      67 -> 74        -0.27136
      67 -> 76         0.11183
      68 -> 73        -0.29488
      68 -> 75         0.10423
      69 -> 73        -0.22324
      69 -> 75         0.50712

 Excited State  19:      Singlet-A      5.1326 eV  241.56 nm  f=0.0113  <S**2>=0.000
      67 -> 75        -0.27023
      68 -> 74         0.19955
      69 -> 74         0.37694
      69 -> 76         0.37488
      70 -> 76        -0.18105
      71 -> 78         0.19365

 Excited State  20:      Singlet-A      5.1555 eV  240.49 nm  f=0.0081  <S**2>=0.000
      67 -> 73        -0.24838
      69 -> 76         0.31262
      70 -> 76         0.48091
      70 -> 77         0.25233
      71 -> 78         0.13318

 Excited State  21:      Singlet-A      5.2224 eV  237.41 nm  f=0.0018  <S**2>=0.000
      67 -> 74         0.40986
      67 -> 76         0.33018
      68 -> 73        -0.40786
      69 -> 73        -0.13729
      69 -> 75        -0.14565

 Excited State  22:      Singlet-A      5.2304 eV  237.05 nm  f=0.1328  <S**2>=0.000
      67 -> 75         0.21417
      67 -> 78        -0.10003
      68 -> 74        -0.14275
      68 -> 76         0.11081
      69 -> 74        -0.32453
      69 -> 76         0.20613
      69 -> 77        -0.13215
      70 -> 76        -0.27912
      70 -> 77        -0.15573
      71 -> 78         0.33403
      72 -> 78         0.12766

 Excited State  23:      Singlet-A      5.2803 eV  234.81 nm  f=0.0033  <S**2>=0.000
      67 -> 73        -0.22959
      67 -> 75        -0.40148
      68 -> 74        -0.17454
      68 -> 76         0.42401
      69 -> 76        -0.20846
      70 -> 77        -0.13141

 Excited State  24:      Singlet-A      5.3976 eV  229.70 nm  f=0.0023  <S**2>=0.000
      67 -> 74        -0.17149
      67 -> 76         0.12434
      68 -> 75         0.36124
      69 -> 75        -0.16048
      71 -> 79         0.52946

 Excited State  25:      Singlet-A      5.4444 eV  227.73 nm  f=0.0156  <S**2>=0.000
      67 -> 73        -0.28632
      67 -> 75         0.17035
      68 -> 76        -0.25408
      69 -> 76        -0.15962
      69 -> 77         0.46599
      70 -> 77        -0.16539
      71 -> 78         0.13809
      72 -> 78         0.11341

 Excited State  26:      Singlet-A      5.4808 eV  226.22 nm  f=0.0017  <S**2>=0.000
      66 -> 74         0.13385
      67 -> 74         0.26641
      67 -> 76        -0.24230
      68 -> 75        -0.24573
      69 -> 73        -0.10229
      69 -> 75         0.22135
      69 -> 78         0.12453
      71 -> 79         0.43942

 Excited State  27:      Singlet-A      5.5600 eV  222.99 nm  f=0.0322  <S**2>=0.000
      66 -> 73         0.10427
      67 -> 75        -0.20750
      68 -> 74        -0.29541
      68 -> 76        -0.33905
      68 -> 77         0.38224
      69 -> 77        -0.18372
      70 -> 77         0.17345

 Excited State  28:      Singlet-A      5.6370 eV  219.95 nm  f=0.1467  <S**2>=0.000
      66 -> 74         0.14051
      67 -> 76         0.36908
      67 -> 77        -0.33105
      68 -> 73         0.13587
      68 -> 75        -0.20931
      69 -> 73         0.15405
      69 -> 75         0.11487
      69 -> 78        -0.11256
      70 -> 78        -0.30575

 Excited State  29:      Singlet-A      5.6396 eV  219.85 nm  f=0.0043  <S**2>=0.000
      72 -> 80         0.69924

 Excited State  30:      Singlet-A      5.6707 eV  218.64 nm  f=0.0708  <S**2>=0.000
      66 -> 73         0.10406
      66 -> 75        -0.22956
      67 -> 75        -0.19687
      68 -> 74         0.40911
      68 -> 77         0.23884
      69 -> 74        -0.29678
      69 -> 77         0.15133
      70 -> 74         0.11447
      71 -> 75        -0.12514

 The electronic state is 1-A.
 Alpha  occ. eigenvalues --  -88.37052 -14.14064 -10.03684 -10.03683 -10.03571
 Alpha  occ. eigenvalues --  -10.02615 -10.02614  -9.99756  -9.99756  -9.99544
 Alpha  occ. eigenvalues --   -9.99544  -9.99228  -9.99228  -9.99190  -9.99190
 Alpha  occ. eigenvalues --   -9.98579  -9.98578  -9.98281  -9.98280  -9.97730
 Alpha  occ. eigenvalues --   -7.75046  -5.73111  -5.72723  -5.72083  -0.91069
 Alpha  occ. eigenvalues --   -0.80813  -0.80527  -0.78105  -0.74786  -0.70825
 Alpha  occ. eigenvalues --   -0.69927  -0.69769  -0.68502  -0.66910  -0.63294
 Alpha  occ. eigenvalues --   -0.58283  -0.58197  -0.55715  -0.54779  -0.54653
 Alpha  occ. eigenvalues --   -0.51682  -0.49247  -0.49082  -0.45279  -0.43984
 Alpha  occ. eigenvalues --   -0.43386  -0.42572  -0.41694  -0.40269  -0.40082
 Alpha  occ. eigenvalues --   -0.39851  -0.38523  -0.38238  -0.37469  -0.36898
 Alpha  occ. eigenvalues --   -0.35424  -0.34031  -0.33919  -0.33589  -0.32245
 Alpha  occ. eigenvalues --   -0.31603  -0.31162  -0.30529  -0.29766  -0.28445
 Alpha  occ. eigenvalues --   -0.27092  -0.23971  -0.23932  -0.23208  -0.22877
 Alpha  occ. eigenvalues --   -0.20062  -0.17352
 Alpha virt. eigenvalues --   -0.05212  -0.04730  -0.04624  -0.04401  -0.02838
 Alpha virt. eigenvalues --   -0.01592  -0.00237   0.03169   0.05046   0.06226
 Alpha virt. eigenvalues --    0.06393   0.07168   0.07662   0.07985   0.08865

 Mulliken charges:
               1
     1  C   -0.156567
     2  C   -0.164538
     3  C   -0.028515
     4  C    0.221703
     5  C   -0.294736
     6  C   -0.081051
     7  C    0.221538
     8  C   -0.028395
     9  C   -0.164618
    10  H    0.141132
    11  C   -0.156567
    12  C   -0.080992
    13  C   -0.294543
    14  H    0.141125
    15  H    0.153794
    16  H    0.143384
    17  H    0.144010
    18  H    0.143387
    19  C    0.246258
    20  C   -0.295198
    21  C   -0.130351
    22  C   -0.130261
    23  C   -0.200916
    24  H    0.138274
    25  H    0.138279
    26  H    0.157543
    27  H    0.135118
    28  H    0.144002
    29  N    0.024707
    30  H    0.153658
    31  S   -0.102754
    32  C   -0.295441
    33  H    0.157532
 Sum of Mulliken charges =  -0.00000

 Dipole moment (field-independent basis, Debye):
    X=             -0.9142    Y=              0.0009    Z=              2.0492  Tot=              2.2439
 Quadrupole moment (field-independent basis, Debye-Ang):
   XX=           -117.2886   YY=           -100.5766   ZZ=           -124.2251
   XY=              0.0219   XZ=              2.6853   YZ=             -0.0114

 Normal termination of Gaussian 09 at Wed Mar 31 10:09:08 2021.
