                         Program Version 5.0.2 -  RELEASE  -
|  1> %maxcore 3200
|  2> %pal
|  3>  nprocs= 8
|  4> end
|  5> ! RI-B2PLYP D3BJ def2-TZVP def2/J def2-TZVP/C RIJCOSX CPCM TightSCF
|  6> %TDDFT DCORR 4
|  7>    NROOTS   30
|  8>
|  9>    TDA      FALSE
| 10> END
| 11>
| 12> %CPCM
| 13>    SMD          TRUE
| 14>    SMDsolvent   "N,N-DIMETHYLACETAMIDE"
| 15> END
| 16>
| 17>
| 18> * xyz 0 1
| 19> C                  -1.98589800   -3.51504200    0.40705300
| 20> C                  -2.31200200   -2.48851100   -0.46337400
| 21> C                  -1.54247500   -1.33041800   -0.48678600
| 22> C                  -0.44503300   -1.19499400    0.36625500
| 23> C                  -0.16507700   -2.20792500    1.27822400
| 24> C                  -0.92043200   -3.36871700    1.28559100
| 25> C                  -0.44145600    1.19547900    0.36664600
| 26> C                  -1.53847900    1.33474300   -0.48627200
| 27> C                  -2.30428000    2.49531300   -0.46230800
| 28> H                  -3.15501300    2.58856900   -1.12552100
| 29> C                  -1.97479200    3.52043000    0.40852000
| 30> C                  -0.90964500    3.37037900    1.28685000
| 31> C                  -0.15806600    2.20718300    1.27889800
| 32> H                  -3.16304600   -2.57866500   -1.12662700
| 33> H                   0.65940400   -2.08237300    1.96828700
| 34> H                  -0.68155100   -4.15715700    1.98746100
| 35> H                  -2.56561700    4.42717700    0.41647300
| 36> H                  -0.66811400    4.15786700    1.98887300
| 37> C                   1.69426700   -0.00255600    0.03223200
| 38> C                   2.40135600    1.19602700   -0.14061700
| 39> C                   3.75393700    1.18574800   -0.43602500
| 40> C                   3.75216800   -1.19487200   -0.43319400
| 41> C                   4.45068100   -0.00525400   -0.57565400
| 42> H                   4.26428400    2.13287000   -0.56325800
| 43> H                   4.26120800   -2.14300500   -0.55808500
| 44> H                   1.89362500    2.14573600   -0.06318200
| 45> H                   5.50890500   -0.00630200   -0.80086200
| 46> H                  -2.57953900   -4.41995300    0.41461000
| 47> N                   0.31932000   -0.00088800    0.31069100
| 48> H                   0.66632000    2.07877000    1.96855300
| 49> S                  -1.94327000    0.00297700   -1.57207900
| 50> C                   2.39952400   -1.20260300   -0.13774400
| 51> H                   1.89042200   -2.15141900   -0.05805500
| 52> *
| 53>
| 54>
| 55>                          ****END OF INPUT****

CARTESIAN COORDINATES (ANGSTROEM)
---------------------------------
  C     -1.985898   -3.515042    0.407053
  C     -2.312002   -2.488511   -0.463374
  C     -1.542475   -1.330418   -0.486786
  C     -0.445033   -1.194994    0.366255
  C     -0.165077   -2.207925    1.278224
  C     -0.920432   -3.368717    1.285591
  C     -0.441456    1.195479    0.366646
  C     -1.538479    1.334743   -0.486272
  C     -2.304280    2.495313   -0.462308
  H     -3.155013    2.588569   -1.125521
  C     -1.974792    3.520430    0.408520
  C     -0.909645    3.370379    1.286850
  C     -0.158066    2.207183    1.278898
  H     -3.163046   -2.578665   -1.126627
  H      0.659404   -2.082373    1.968287
  H     -0.681551   -4.157157    1.987461
  H     -2.565617    4.427177    0.416473
  H     -0.668114    4.157867    1.988873
  C      1.694267   -0.002556    0.032232
  C      2.401356    1.196027   -0.140617
  C      3.753937    1.185748   -0.436025
  C      3.752168   -1.194872   -0.433194
  C      4.450681   -0.005254   -0.575654
  H      4.264284    2.132870   -0.563258
  H      4.261208   -2.143005   -0.558085
  H      1.893625    2.145736   -0.063182
  H      5.508905   -0.006302   -0.800862
  H     -2.579539   -4.419953    0.414610
  N      0.319320   -0.000888    0.310691
  H      0.666320    2.078770    1.968553
  S     -1.943270    0.002977   -1.572079
  C      2.399524   -1.202603   -0.137744
  H      1.890422   -2.151419   -0.058055

 Total Charge           Charge          ....    0
 Multiplicity           Mult            ....    1
 Number of Electrons    NEL             ....  144
 Basis Dimension        Dim             ....  704

ORBITAL ENERGIES
----------------

  NO   OCC          E(Eh)            E(eV)
   0   2.0000     -90.166877     -2453.5655
   1   2.0000     -14.871098      -404.6631
   2   2.0000     -10.669485      -290.3314
   3   2.0000     -10.666689      -290.2554
   4   2.0000     -10.666663      -290.2546
   5   2.0000     -10.654707      -289.9293
   6   2.0000     -10.654697      -289.9290
   7   2.0000     -10.624840      -289.1166
   8   2.0000     -10.624839      -289.1166
   9   2.0000     -10.621558      -289.0273
  10   2.0000     -10.621545      -289.0269
  11   2.0000     -10.619659      -288.9756
  12   2.0000     -10.619655      -288.9755
  13   2.0000     -10.618718      -288.9500
  14   2.0000     -10.618717      -288.9500
  15   2.0000     -10.614570      -288.8371
  16   2.0000     -10.614547      -288.8365
  17   2.0000     -10.608579      -288.6741
  18   2.0000     -10.608558      -288.6735
  19   2.0000     -10.603838      -288.5451
  20   2.0000      -8.372221      -227.8197
  21   2.0000      -6.218908      -169.2251
  22   2.0000      -6.216429      -169.1576
  23   2.0000      -6.213380      -169.0747
  24   2.0000      -1.113346       -30.2957
  25   2.0000      -0.997531       -27.1442
  26   2.0000      -0.994795       -27.0697
  27   2.0000      -0.967844       -26.3364
  28   2.0000      -0.924411       -25.1545
  29   2.0000      -0.880775       -23.9671
  30   2.0000      -0.871049       -23.7024
  31   2.0000      -0.868785       -23.6408
  32   2.0000      -0.856093       -23.2955
  33   2.0000      -0.834568       -22.7098
  34   2.0000      -0.789420       -21.4812
  35   2.0000      -0.730199       -19.8697
  36   2.0000      -0.728576       -19.8256
  37   2.0000      -0.700319       -19.0566
  38   2.0000      -0.690230       -18.7821
  39   2.0000      -0.687256       -18.7012
  40   2.0000      -0.652931       -17.7672
  41   2.0000      -0.617922       -16.8145
  42   2.0000      -0.617893       -16.8137
  43   2.0000      -0.575646       -15.6641
  44   2.0000      -0.558770       -15.2049
  45   2.0000      -0.557895       -15.1811
  46   2.0000      -0.543434       -14.7876
  47   2.0000      -0.537172       -14.6172
  48   2.0000      -0.521479       -14.1902
  49   2.0000      -0.515038       -14.0149
  50   2.0000      -0.511908       -13.9297
  51   2.0000      -0.498579       -13.5670
  52   2.0000      -0.492333       -13.3971
  53   2.0000      -0.486884       -13.2488
  54   2.0000      -0.474530       -12.9126
  55   2.0000      -0.461114       -12.5475
  56   2.0000      -0.440621       -11.9899
  57   2.0000      -0.440084       -11.9753
  58   2.0000      -0.436614       -11.8809
  59   2.0000      -0.426209       -11.5977
  60   2.0000      -0.419836       -11.4243
  61   2.0000      -0.409939       -11.1550
  62   2.0000      -0.397997       -10.8301
  63   2.0000      -0.395216       -10.7544
  64   2.0000      -0.375360       -10.2141
  65   2.0000      -0.352476        -9.5914
  66   2.0000      -0.304575        -8.2879
  67   2.0000      -0.303365        -8.2550
  68   2.0000      -0.294945        -8.0259
  69   2.0000      -0.292376        -7.9560
  70   2.0000      -0.261537        -7.1168
  71   2.0000      -0.233505        -6.3540
  72   0.0000       0.025164         0.6848
  73   0.0000       0.031474         0.8565
  74   0.0000       0.032131         0.8743
  75   0.0000       0.033949         0.9238
  76   0.0000       0.054070         1.4713

MULLIKEN ATOMIC CHARGES
-----------------------
   0 C :   -0.184794
   1 C :   -0.146452
   2 C :   -0.093398
   3 C :    0.261358
   4 C :   -0.354843
   5 C :   -0.090839
   6 C :    0.261658
   7 C :   -0.093884
   8 C :   -0.146070
   9 H :    0.160864
  10 C :   -0.184953
  11 C :   -0.090846
  12 C :   -0.354354
  13 H :    0.160729
  14 H :    0.176110
  15 H :    0.160904
  16 H :    0.161053
  17 H :    0.160893
  18 C :    0.291596
  19 C :   -0.345233
  20 C :   -0.115618
  21 C :   -0.115261
  22 C :   -0.236659
  23 H :    0.155988
  24 H :    0.156015
  25 H :    0.174724
  26 H :    0.152625
  27 H :    0.161012
  28 N :   -0.006474
  29 H :    0.175862
  30 S :   -0.040906
  31 C :   -0.345625
  32 H :    0.174820
Sum of atomic charges:   -0.0000000

LOEWDIN ATOMIC CHARGES
----------------------
   0 C :   -0.142918
   1 C :   -0.141308
   2 C :   -0.327633
   3 C :   -0.165062
   4 C :   -0.104854
   5 C :   -0.139580
   6 C :   -0.165117
   7 C :   -0.327645
   8 C :   -0.141301
   9 H :    0.154085
  10 C :   -0.142920
  11 C :   -0.139593
  12 C :   -0.104823
  13 H :    0.154085
  14 H :    0.161217
  15 H :    0.153592
  16 H :    0.153265
  17 H :    0.153590
  18 C :   -0.157323
  19 C :   -0.133041
  20 C :   -0.148470
  21 C :   -0.148461
  22 C :   -0.178029
  23 H :    0.151682
  24 H :    0.151678
  25 H :    0.157647
  26 H :    0.146531
  27 H :    0.153267
  28 N :    0.268885
  29 H :    0.161224
  30 S :    0.662780
  31 C :   -0.133065
  32 H :    0.157618

  Mayer bond orders larger than 0.100000
B(  0-C ,  1-C ) :   1.4113 B(  0-C ,  5-C ) :   1.3801 B(  0-C , 27-H ) :   0.9794
B(  1-C ,  2-C ) :   1.3307 B(  1-C , 13-H ) :   0.9764 B(  2-C ,  3-C ) :   1.3241
B(  2-C , 30-S ) :   1.0820 B(  3-C ,  4-C ) :   1.3539 B(  3-C , 28-N ) :   0.9108
B(  4-C ,  5-C ) :   1.4130 B(  4-C , 14-H ) :   0.9842 B(  5-C , 15-H ) :   0.9782
B(  6-C ,  7-C ) :   1.3234 B(  6-C , 12-C ) :   1.3537 B(  6-C , 28-N ) :   0.9107
B(  7-C ,  8-C ) :   1.3307 B(  7-C , 30-S ) :   1.0818 B(  8-C ,  9-H ) :   0.9761
B(  8-C , 10-C ) :   1.4119 B( 10-C , 11-C ) :   1.3800 B( 10-C , 16-H ) :   0.9794
B( 11-C , 12-C ) :   1.4127 B( 11-C , 17-H ) :   0.9783 B( 12-C , 29-H ) :   0.9845
B( 18-C , 19-C ) :   1.3323 B( 18-C , 28-N ) :   1.1298 B( 18-C , 31-C ) :   1.3325
B( 19-C , 20-C ) :   1.4401 B( 19-C , 25-H ) :   0.9660 B( 20-C , 22-C ) :   1.3918
B( 20-C , 23-H ) :   0.9782 B( 21-C , 22-C ) :   1.3920 B( 21-C , 24-H ) :   0.9781
B( 21-C , 31-C ) :   1.4402 B( 22-C , 26-H ) :   0.9845 B( 31-C , 32-H ) :   0.9657

MP2 TOTAL ENERGY:    -1146.198599454 Eh

-----------------------------------------------------------------------------
         ABSORPTION SPECTRUM VIA TRANSITION ELECTRIC DIPOLE MOMENTS
-----------------------------------------------------------------------------
State   Energy    Wavelength  fosc         T2        TX        TY        TZ
        (cm-1)      (nm)                 (au**2)    (au)      (au)      (au)
-----------------------------------------------------------------------------
   1   32862.1    304.3   0.217763409   2.18155   1.45561  -0.00112  -0.25051
   2   33984.6    294.3   0.007018288   0.06799  -0.00646   0.26066   0.00030
   3   34223.2    292.2   0.000831662   0.00800   0.00982   0.08888   0.00213
   4   34483.4    290.0   0.093831414   0.89581   0.90062  -0.00328   0.29100
   5   37609.1    265.9   0.005378458   0.04708  -0.00018   0.21698  -0.00045
   6   39885.3    250.7   0.359645777   2.96851   0.00130   1.72293   0.00238
   7   39741.5    251.6   0.099211448   0.82185  -0.05459   0.00441  -0.90490
   8   41780.6    239.3   0.177238798   1.39656   1.18011   0.00059  -0.06248
   9   43094.1    232.1   0.003496870   0.02671  -0.14696  -0.00716  -0.07118
  10   44438.9    225.0   0.173982460   1.28890   0.00112   1.13530   0.00014
  11   42421.1    235.7   0.015018792   0.11655  -0.00270  -0.34139  -0.00055
  12   45786.7    218.4   0.208795640   1.50126  -0.00031  -1.22526   0.00057
  13   46325.2    215.9   0.099063854   0.70400   0.01786   0.83885   0.00256
  14   46797.8    213.7   0.352516891   2.47988  -1.54998   0.00845  -0.27815
  15   48600.6    205.8   0.157013389   1.06358  -0.84020   0.00504   0.59802
  16   47545.8    210.3   0.332549266   2.30261  -0.00071   1.51743  -0.00066
  17   50034.8    199.9   0.318006194   2.09237  -1.33190  -0.00084   0.56429
  18   48959.3    204.3   0.430720880   2.89625  -0.00398  -1.70183   0.00062
  19   50128.9    199.5   0.006118983   0.04019  -0.00076   0.20046  -0.00077
  20   50972.7    196.2   0.028852394   0.18635  -0.10946   0.00240   0.41756
  21   49060.6    203.8   0.042228367   0.28337   0.00072  -0.53230   0.00445
  22   49588.3    201.7   0.297540821   1.97535  -0.00286  -1.40547  -0.00053
  23   52180.4    191.6   0.306334881   1.93270   0.97935  -0.00012   0.98670
  24   51711.4    193.4   0.388772375   2.47505  -1.38555   0.00039  -0.74519
  25   51627.0    193.7   0.053933100   0.34392   0.31889   0.00180  -0.49216
  26   51075.8    195.8   0.005350199   0.03449  -0.06010   0.00121  -0.17570
  27   51035.1    195.9   0.004197481   0.02708   0.00107   0.16454   0.00113
  28   54800.0    182.5   0.000453552   0.00272   0.04563  -0.00462   0.02492
  29   51608.0    193.8   0.070958777   0.45265  -0.00135   0.67279  -0.00008
  30   51945.9    192.5   0.038331287   0.24293  -0.22726   0.00173  -0.43736

Dispersion correction           -0.041472424
FINAL SINGLE POINT ENERGY     -1145.048525243127

DIPOLE MOMENT
-------------
                                X             Y             Z
Electronic contribution:     -6.51603       0.00801      -3.59550
Nuclear contribution   :      6.27875      -0.00784       4.41851
                        -----------------------------------------
Total Dipole Moment    :     -0.23728       0.00017       0.82301
                        -----------------------------------------
Magnitude (a.u.)       :      0.85654
Magnitude (Debye)      :      2.17714

Rotational constants in cm-1:     0.012934     0.011295     0.007075
Rotational constants in MHz :   387.761121   338.628638   212.103272

                             ****ORCA TERMINATED NORMALLY****
TOTAL RUN TIME: 0 days 0 hours 17 minutes 50 seconds 63 msec
