 Gaussian 09, Revision E.01,

 ----------------------------------------------------------------------
 #p m06/def2TZVP opt freq=noraman nosymm int=ultrafine scrf=(SMD,solven
 t=n,n-DiMethylAcetamide)
 ----------------------------------------------------------------------

 -----
 Title
 -----
 Symbolic Z-matrix:
 Charge =  0 Multiplicity = 1

 SCF Done:  E(RM06) =  -1146.37602500     A.U. after   15 cycles
 SCF Done:  E(RM06) =  -1146.37922632     A.U. after   12 cycles
 SCF Done:  E(RM06) =  -1146.37926992     A.U. after   10 cycles
 SCF Done:  E(RM06) =  -1146.37927975     A.U. after   10 cycles
 SCF Done:  E(RM06) =  -1146.37929087     A.U. after   10 cycles
 SCF Done:  E(RM06) =  -1146.37930168     A.U. after   11 cycles
 SCF Done:  E(RM06) =  -1146.37930856     A.U. after   10 cycles
 SCF Done:  E(RM06) =  -1146.37931352     A.U. after   10 cycles
 SCF Done:  E(RM06) =  -1146.37931416     A.U. after    8 cycles
 SCF Done:  E(RM06) =  -1146.37931419     A.U. after    7 cycles
 Optimization completed.
    -- Stationary point found.
 Normal termination of Gaussian 09 at Sun Feb 21 02:57:44 2021.

 ------------------------------------------------------------------
 #P Geom=AllCheck Guess=TCheck SCRF=Check GenChk RM06/def2TZVP Freq
 ------------------------------------------------------------------

 Structure from the checkpoint file:  "cp.chk"
 -----
 Title
 -----
 Charge =  0 Multiplicity = 1

 SCF Done:  E(RM06) =  -1146.37931419     A.U. after    1 cycles

  Exact polarizability: 354.576  -0.571 425.061 -21.995  -0.451 277.665
 Approx polarizability: 352.809  -0.561 418.461 -31.096  -0.418 303.967

                      1                      2                      3
                      A                      A                      A
 Frequencies --     24.1331                38.3089                67.0330
 Red. masses --      6.1512                 3.6978                 5.6869
 Frc consts  --      0.0021                 0.0032                 0.0151
 IR Inten    --      0.8831                 0.0213                 3.1028

                      4                      5                      6
                      A                      A                      A
 Frequencies --     80.7560               142.2308               157.8122
 Red. masses --      4.7429                 4.1293                 4.3898
 Frc consts  --      0.0182                 0.0492                 0.0644
 IR Inten    --      0.0001                 0.2283                 1.3074

                      7                      8                      9
                      A                      A                      A
 Frequencies --    184.7833               230.2643               262.3497
 Red. masses --      5.2170                 5.7286                 5.0683
 Frc consts  --      0.1050                 0.1790                 0.2055
 IR Inten    --      0.4888                 2.7984                 0.2582

                     10                     11                     12
                      A                      A                      A
 Frequencies --    317.2793               321.3001               348.1839
 Red. masses --      5.6303                 4.9991                 5.7867
 Frc consts  --      0.3339                 0.3041                 0.4133
 IR Inten    --      2.9283                 4.4569                 5.4565

                     13                     14                     15
                      A                      A                      A
 Frequencies --    385.6918               408.6250               418.9435
 Red. masses --      5.0405                 9.7769                 2.9794
 Frc consts  --      0.4418                 0.9618                 0.3081
 IR Inten    --      0.6340                 6.0420                 0.0385

                     16                     17                     18
                      A                      A                      A
 Frequencies --    447.0836               454.8703               473.5430
 Red. masses --      9.7837                 3.3630                 3.7399
 Frc consts  --      1.1522                 0.4100                 0.4941
 IR Inten    --      0.9848                 0.1002                34.1740

                     19                     20                     21
                      A                      A                      A
 Frequencies --    504.6999               537.8682               541.8017
 Red. masses --      2.9593                 5.0463                 4.0625
 Frc consts  --      0.4441                 0.8601                 0.7026
 IR Inten    --      9.0525                 0.4772                 1.8158

                     22                     23                     24
                      A                      A                      A
 Frequencies --    583.3246               622.8642               628.7133
 Red. masses --      4.9706                 6.0722                 5.1548
 Frc consts  --      0.9965                 1.3880                 1.2005
 IR Inten    --     11.2327                 0.5502                39.9972

                     25                     26                     27
                      A                      A                      A
 Frequencies --    632.4472               687.4174               702.0638
 Red. masses --      6.4905                 6.3398                 6.4991
 Frc consts  --      1.5296                 1.7651                 1.8874
 IR Inten    --     11.6672                 2.5055                12.2911

                     28                     29                     30
                      A                      A                      A
 Frequencies --    708.8552               743.8613               754.1157
 Red. masses --      1.7706                 4.3287                 2.0090
 Frc consts  --      0.5242                 1.4112                 0.6732
 IR Inten    --     59.0203                 8.4618                21.7249

                     31                     32                     33
                      A                      A                      A
 Frequencies --    760.2212               764.8217               768.3625
 Red. masses --      2.0923                 1.7273                 1.8350
 Frc consts  --      0.7124                 0.5953                 0.6383
 IR Inten    --    120.7962                67.0582                16.9892

                     34                     35                     36
                      A                      A                      A
 Frequencies --    780.6984               832.9616               880.1593
 Red. masses --      2.4044                 1.2565                 1.5059
 Frc consts  --      0.8634                 0.5137                 0.6873
 IR Inten    --     62.2062                 0.2557                 4.4256

                     37                     38                     39
                      A                      A                      A
 Frequencies --    883.5849               897.4190               933.6755
 Red. masses --      1.4007                 1.4811                 5.6232
 Frc consts  --      0.6443                 0.7028                 2.8882
 IR Inten    --      0.0209                14.2287                 0.8576

                     40                     41                     42
                      A                      A                      A
 Frequencies --    935.7851               969.8386               973.1636
 Red. masses --      3.9167                 1.4159                 1.5129
 Frc consts  --      2.0208                 0.7847                 0.8442
 IR Inten    --      3.8724                 1.4139                 5.7857

                     43                     44                     45
                      A                      A                      A
 Frequencies --    984.0189               997.9784              1000.7997
 Red. masses --      1.3527                 1.2953                 4.8271
 Frc consts  --      0.7717                 0.7601                 2.8486
 IR Inten    --      0.1329                 0.7659                 2.7014

                     46                     47                     48
                      A                      A                      A
 Frequencies --   1003.7081              1004.3480              1054.1410
 Red. masses --      1.3273                 1.3352                 2.7296
 Frc consts  --      0.7878                 0.7936                 1.7871
 IR Inten    --      0.0288                 0.0186                34.8707

                     49                     50                     51
                      A                      A                      A
 Frequencies --   1055.5862              1059.0653              1074.0181
 Red. masses --      2.2667                 2.1657                 2.6871
 Frc consts  --      1.4881                 1.4312                 1.8262
 IR Inten    --     10.7975                23.5035                 6.1349

                     52                     53                     54
                      A                      A                      A
 Frequencies --   1087.3341              1112.1071              1132.4872
 Red. masses --      3.5442                 1.4685                 1.5057
 Frc consts  --      2.4688                 1.0701                 1.1378
 IR Inten    --     20.8553                 3.2184                21.4141

                     55                     56                     57
                      A                      A                      A
 Frequencies --   1137.6704              1150.4366              1151.9963
 Red. masses --      1.4963                 1.0681                 1.1094
 Frc consts  --      1.1410                 0.8329                 0.8675
 IR Inten    --      4.8172                 2.0845                 0.8598

                     58                     59                     60
                      A                      A                      A
 Frequencies --   1152.1985              1190.7379              1207.1992
 Red. masses --      1.1021                 1.1389                 2.7794
 Frc consts  --      0.8620                 0.9514                 2.3865
 IR Inten    --      0.6926                19.3856                29.8024

                     61                     62                     63
                      A                      A                      A
 Frequencies --   1247.9485              1274.9075              1299.3848
 Red. masses --      1.7584                 1.5927                 2.1562
 Frc consts  --      1.6135                 1.5253                 2.1449
 IR Inten    --     38.2188                77.1990                70.8555

                     64                     65                     66
                      A                      A                      A
 Frequencies --   1309.0030              1326.2350              1338.5166
 Red. masses --      4.2227                 8.3366                 8.5430
 Frc consts  --      4.2630                 8.6394                 9.0180
 IR Inten    --    441.2168                 5.7753                50.8485

                     67                     68                     69
                      A                      A                      A
 Frequencies --   1342.5104              1355.7762              1460.5988
 Red. masses --      4.2486                 1.7979                 2.3838
 Frc consts  --      4.5116                 1.9472                 2.9963
 IR Inten    --      3.4110                27.2453                 0.4861

                     70                     71                     72
                      A                      A                      A
 Frequencies --   1467.2898              1480.0866              1490.9687
 Red. masses --      2.4566                 2.5837                 3.0941
 Frc consts  --      3.1161                 3.3348                 4.0525
 IR Inten    --     53.3273                53.4259               195.5860

                     73                     74                     75
                      A                      A                      A
 Frequencies --   1505.8250              1516.6757              1616.9455
 Red. masses --      2.9539                 2.3429                 6.6984
 Frc consts  --      3.9464                 3.1753                10.3185
 IR Inten    --     94.9597               295.8060                22.0791

                     76                     77                     78
                      A                      A                      A
 Frequencies --   1629.2009              1630.9926              1632.1835
 Red. masses --      6.4537                 7.4421                 6.6592
 Frc consts  --     10.0927                11.6640                10.4522
 IR Inten    --      9.1049                 2.8646                 0.5459

                     79                     80                     81
                      A                      A                      A
 Frequencies --   1638.7751              1656.7952              3166.7200
 Red. masses --      6.4450                 6.6822                 1.0860
 Frc consts  --     10.1980                10.8071                 6.4167
 IR Inten    --    166.2630                98.5409                 4.2379

                     82                     83                     84
                      A                      A                      A
 Frequencies --   3168.1464              3168.2593              3171.8757
 Red. masses --      1.0878                 1.0878                 1.0902
 Frc consts  --      6.4327                 6.4334                 6.4626
 IR Inten    --      1.2613                 2.2178                15.6361

                     85                     86                     87
                      A                      A                      A
 Frequencies --   3172.6291              3172.7872              3182.3581
 Red. masses --      1.0897                 1.0897                 1.0931
 Frc consts  --      6.4622                 6.4630                 6.5223
 IR Inten    --      4.3883                 0.8238                 9.0654

                     88                     89                     90
                      A                      A                      A
 Frequencies --   3182.5392              3190.9211              3193.4224
 Red. masses --      1.0930                 1.0952                 1.0984
 Frc consts  --      6.5227                 6.5699                 6.5998
 IR Inten    --     15.1434                24.0585                21.1120

                     91                     92                     93
                      A                      A                      A
 Frequencies --   3193.6638              3202.6820              3202.8527
 Red. masses --      1.0984                 1.0918                 1.0925
 Frc consts  --      6.6006                 6.5979                 6.6033
 IR Inten    --      9.4414                 5.7402                 2.0546

 - Thermochemistry -
 -------------------
 Temperature   298.150 Kelvin.  Pressure   1.00000 Atm.
 Atom     1 has atomic number  6 and mass  12.00000

 Molecular mass:   275.07687 amu.
 Principal axes and moments of inertia in atomic units:
                           1         2         3
     Eigenvalues --  4797.465765078.537608149.93845
           X            0.99857  -0.00547  -0.05311
           Y            0.00559   0.99998   0.00205
           Z            0.05310  -0.00234   0.99859
 This molecule is an asymmetric top.
 Rotational symmetry number  1.
 Warning -- assumption of classical behavior for rotation
           may cause significant error
 Rotational temperatures (Kelvin)      0.01805     0.01705     0.01063
 Rotational constants (GHZ):           0.37619     0.35537     0.22144
 Zero-point vibrational energy     675514.6 (Joules/Mol)
                                  161.45186 (Kcal/Mol)
 Warning -- explicit consideration of  22 degrees of freedom as
           vibrations may cause significant error
 Vibrational temperatures:     34.72    55.12    96.45   116.19   204.64
          (Kelvin)            227.06   265.86   331.30   377.46   456.49
                              462.28   500.96   554.92   587.92   602.77
                              643.25   654.46   681.32   726.15   773.87
                              779.53   839.27   896.16   904.58   909.95
                              989.04  1010.11  1019.88  1070.25  1085.00
                             1093.79  1100.41  1105.50  1123.25  1198.44
                             1266.35  1271.28  1291.18  1343.35  1346.38
                             1395.38  1400.16  1415.78  1435.87  1439.93
                             1444.11  1445.03  1516.67  1518.75  1523.76
                             1545.27  1564.43  1600.07  1629.39  1636.85
                             1655.22  1657.46  1657.75  1713.20  1736.89
                             1795.52  1834.31  1869.52  1883.36  1908.15
                             1925.82  1931.57  1950.66  2101.47  2111.10
                             2129.51  2145.17  2166.54  2182.16  2326.42
                             2344.05  2346.63  2348.35  2357.83  2383.76
                             4556.20  4558.25  4558.41  4563.62  4564.70
                             4564.93  4578.70  4578.96  4591.02  4594.62
                             4594.96  4607.94  4608.18

 Zero-point correction=                           0.257290 (Hartree/Particle)
 Thermal correction to Energy=                    0.272282
 Thermal correction to Enthalpy=                  0.273226
 Thermal correction to Gibbs Free Energy=         0.213986
 Sum of electronic and zero-point Energies=          -1146.122024
 Sum of electronic and thermal Energies=             -1146.107032
 Sum of electronic and thermal Enthalpies=           -1146.106088
 Sum of electronic and thermal Free Energies=        -1146.165328

                     E (Thermal)             CV                S
                      KCal/Mol        Cal/Mol-Kelvin    Cal/Mol-Kelvin
 Total                  170.859             61.783            124.681
 Electronic               0.000              0.000              0.000
 Translational            0.889              2.981             42.734
 Rotational               0.889              2.981             33.651
 Vibrational            169.082             55.822             48.296
 Vibration     1          0.593              1.985              6.261
 Vibration     2          0.594              1.982              5.345
 Vibration     3          0.598              1.970              4.239
 Vibration     4          0.600              1.962              3.872
 Vibration     5          0.616              1.911              2.774
 Vibration     6          0.621              1.894              2.576
 Vibration     7          0.631              1.861              2.280
 Vibration     8          0.652              1.795              1.877
 Vibration     9          0.670              1.742              1.646
 Vibration    10          0.704              1.641              1.324
 Vibration    11          0.707              1.633              1.303
 Vibration    12          0.726              1.579              1.174
 Vibration    13          0.754              1.501              1.017
 Vibration    14          0.773              1.451              0.931
 Vibration    15          0.782              1.429              0.896
 Vibration    16          0.806              1.367              0.805
 Vibration    17          0.813              1.350              0.781
 Vibration    18          0.830              1.309              0.728
 Vibration    19          0.860              1.240              0.646
 Vibration    20          0.893              1.166              0.570
 Vibration    21          0.897              1.158              0.561
 Vibration    22          0.940              1.067              0.479

 Optimization completed.
    -- Stationary point found.
 Normal termination of Gaussian 09 at Sun Feb 21 05:26:39 2021.
 Gaussian 09:  ES64L-G09RevE.01 30-Nov-2015

 ----------------------------------------------------------------------
 #p m06 chkbasis geom=allcheck Guess=Read int=ultrafine scrf=(SMD,solve
 nt=n,n-DiMethylAcetamide) td=(NStates=30)
 ----------------------------------------------------------------------

 Structure from the checkpoint file:  "cp.chk"
 -----
 Title
 -----
 Charge =  0 Multiplicity = 1

                         Standard orientation:
 ---------------------------------------------------------------------
 Center     Atomic      Atomic             Coordinates (Angstroms)
 Number     Number       Type             X           Y           Z
 ---------------------------------------------------------------------
      1          6           0       -1.966321   -3.525460    0.256004
      2          6           0       -2.154519   -2.497824   -0.650550
      3          6           0       -1.409033   -1.332839   -0.533396
      4          6           0       -0.480693   -1.192692    0.493970
      5          6           0       -0.333764   -2.210183    1.425033
      6          6           0       -1.063238   -3.378894    1.298679
      7          6           0       -0.476780    1.194241    0.493680
      8          6           0       -1.404480    1.337317   -0.533889
      9          6           0       -2.145830    2.504894   -0.651467
     10          1           0       -2.874654    2.601809   -1.449057
     11          6           0       -1.954205    3.532103    0.254871
     12          6           0       -1.051907    3.382636    1.297794
     13          6           0       -0.326569    2.211390    1.424586
     14          1           0       -2.883856   -2.592326   -1.447964
     15          1           0        0.375575   -2.079279    2.235336
     16          1           0       -0.932026   -4.175889    2.021068
     17          1           0       -2.528750    4.446006    0.158443
     18          1           0       -0.918063    4.179348    2.020006
     19          6           0        1.633265   -0.002686    0.165325
     20          6           0        2.324464    1.194104   -0.045960
     21          6           0        3.650589    1.183652   -0.439410
     22          6           0        3.645802   -1.195592   -0.442526
     23          6           0        4.329042   -0.007083   -0.638510
     24          1           0        4.156147    2.130576   -0.595518
     25          1           0        4.147553   -2.144127   -0.601133
     26          1           0        1.825129    2.144566    0.090229
     27          1           0        5.368175   -0.008776   -0.945157
     28          1           0       -2.544095   -4.437372    0.160019
     29          7           0        0.288152   -0.000489    0.575885
     30          1           0        0.382084    2.078241    2.235111
     31         16           0       -1.638702    0.002428   -1.671680
     32          6           0        2.319605   -1.201699   -0.049211
     33          1           0        1.816390   -2.150514    0.084180
 ---------------------------------------------------------------------

 SCF Done:  E(RM06) =  -1146.37934304     A.U. after    8 cycles

 Excitation energies and oscillator strengths:

 Excited State   1:      Singlet-A      4.1299 eV  300.21 nm  f=0.0700  <S**2>=0.000
      72 -> 73         0.69369
 This state for optimization and/or second-order correction.
 Total Energy, E(TD-HF/TD-KS) =  -1146.22757049
 Copying the excited state density for this state as the 1-particle RhoCI density.

 Excited State   2:      Singlet-A      4.1836 eV  296.36 nm  f=0.0098  <S**2>=0.000
      72 -> 74         0.60999
      72 -> 76        -0.32399

 Excited State   3:      Singlet-A      4.2753 eV  290.00 nm  f=0.0001  <S**2>=0.000
      72 -> 74         0.32853
      72 -> 76         0.60594

 Excited State   4:      Singlet-A      4.3480 eV  285.15 nm  f=0.0785  <S**2>=0.000
      71 -> 73         0.17372
      72 -> 75         0.67051

 Excited State   5:      Singlet-A      4.7259 eV  262.35 nm  f=0.0002  <S**2>=0.000
      71 -> 74        -0.21188
      71 -> 76         0.43101
      72 -> 77         0.45633

 Excited State   6:      Singlet-A      4.7615 eV  260.39 nm  f=0.0372  <S**2>=0.000
      69 -> 74         0.11337
      71 -> 73         0.64882
      72 -> 75        -0.18223

 Excited State   7:      Singlet-A      4.8293 eV  256.73 nm  f=0.2909  <S**2>=0.000
      71 -> 74         0.50973
      71 -> 76        -0.13863
      71 -> 79        -0.11380
      72 -> 77         0.39714
      72 -> 79         0.12557

 Excited State   8:      Singlet-A      5.0147 eV  247.24 nm  f=0.0057  <S**2>=0.000
      71 -> 74         0.37529
      71 -> 76         0.45973
      71 -> 77        -0.13327
      72 -> 77        -0.30799

 Excited State   9:      Singlet-A      5.0181 eV  247.07 nm  f=0.0729  <S**2>=0.000
      71 -> 75         0.67496

 Excited State  10:      Singlet-A      5.1590 eV  240.32 nm  f=0.2017  <S**2>=0.000
      69 -> 76        -0.11230
      72 -> 78         0.67001

 Excited State  11:      Singlet-A      5.2411 eV  236.56 nm  f=0.0322  <S**2>=0.000
      70 -> 73         0.11979
      71 -> 74        -0.13105
      71 -> 79        -0.32316
      72 -> 79         0.55450

 Excited State  12:      Singlet-A      5.4272 eV  228.45 nm  f=0.0082  <S**2>=0.000
      67 -> 73        -0.18860
      68 -> 74        -0.13251
      68 -> 76         0.12376
      69 -> 75         0.23700
      70 -> 73        -0.19513
      70 -> 75         0.10473
      71 -> 76         0.23800
      71 -> 77         0.45376
      72 -> 79         0.16647

 Excited State  13:      Singlet-A      5.6283 eV  220.29 nm  f=0.0544  <S**2>=0.000
      67 -> 73         0.23005
      67 -> 75         0.17389
      68 -> 74         0.16238
      69 -> 73         0.28227
      70 -> 73         0.28582
      71 -> 77         0.40776

 Excited State  14:      Singlet-A      5.6558 eV  219.21 nm  f=0.0336  <S**2>=0.000
      66 -> 73        -0.12257
      67 -> 74        -0.10798
      67 -> 76         0.31804
      67 -> 77        -0.11939
      68 -> 75        -0.22290
      69 -> 74         0.37805
      70 -> 74         0.19926
      70 -> 77        -0.15028
      71 -> 73        -0.16198
      71 -> 75        -0.11258
      71 -> 78        -0.18264

 Excited State  15:      Singlet-A      5.7314 eV  216.33 nm  f=0.1188  <S**2>=0.000
      67 -> 73        -0.22946
      67 -> 75         0.18271
      69 -> 73         0.29133
      69 -> 75         0.24429
      70 -> 73         0.22762
      70 -> 75         0.37901
      71 -> 77        -0.19438

 Excited State  16:      Singlet-A      5.7409 eV  215.97 nm  f=0.0062  <S**2>=0.000
      69 -> 76        -0.11788
      70 -> 74         0.20960
      70 -> 76         0.15670
      71 -> 78         0.61062
      72 -> 78        -0.10414

 Excited State  17:      Singlet-A      5.8275 eV  212.76 nm  f=0.0282  <S**2>=0.000
      68 -> 76        -0.10055
      69 -> 73        -0.14152
      70 -> 73         0.23312
      71 -> 79         0.53307
      72 -> 79         0.31173

 Excited State  18:      Singlet-A      5.8545 eV  211.77 nm  f=0.0283  <S**2>=0.000
      67 -> 74        -0.31570
      68 -> 73         0.29457
      69 -> 76         0.17787
      70 -> 74        -0.27776
      70 -> 76         0.41005

 Excited State  19:      Singlet-A      5.8580 eV  211.65 nm  f=0.0101  <S**2>=0.000
      68 -> 74         0.11886
      69 -> 73         0.42728
      70 -> 73        -0.41071
      70 -> 75        -0.11307
      71 -> 77        -0.11898
      71 -> 79         0.24836
      72 -> 79         0.14160

 Excited State  20:      Singlet-A      5.9929 eV  206.88 nm  f=0.2894  <S**2>=0.000
      68 -> 73         0.12602
      68 -> 75         0.14248
      69 -> 74        -0.32499
      70 -> 74         0.52100
      70 -> 76         0.17726
      71 -> 78        -0.18656

 Excited State  21:      Singlet-A      6.0124 eV  206.21 nm  f=0.0196  <S**2>=0.000
      67 -> 73         0.15680
      68 -> 76        -0.19198
      69 -> 75        -0.34701
      70 -> 73        -0.21340
      70 -> 75         0.47330
      71 -> 77         0.11236

 Excited State  22:      Singlet-A      6.0468 eV  205.04 nm  f=0.0233  <S**2>=0.000
      68 -> 73        -0.35891
      68 -> 75        -0.29231
      69 -> 74        -0.18480
      69 -> 76         0.48553

 Excited State  23:      Singlet-A      6.0583 eV  204.65 nm  f=0.1668  <S**2>=0.000
      67 -> 74         0.22571
      67 -> 76        -0.14528
      68 -> 73        -0.32185
      68 -> 75         0.14768
      69 -> 74         0.18989
      70 -> 76         0.47388
      71 -> 78        -0.13732

 Excited State  24:      Singlet-A      6.0621 eV  204.52 nm  f=0.0634  <S**2>=0.000
      67 -> 73         0.23735
      68 -> 74         0.45918
      69 -> 73        -0.25511
      69 -> 75         0.26505
      70 -> 73        -0.10614
      70 -> 75         0.23036

 Excited State  25:      Singlet-A      6.1016 eV  203.20 nm  f=0.0251  <S**2>=0.000
      67 -> 75         0.28162
      68 -> 76         0.49702
      69 -> 73        -0.15611
      69 -> 75        -0.30943
      70 -> 78        -0.14191

 Excited State  26:      Singlet-A      6.1144 eV  202.77 nm  f=0.0844  <S**2>=0.000
      67 -> 74        -0.23331
      67 -> 76        -0.15266
      68 -> 75         0.38284
      69 -> 74         0.32351
      69 -> 76         0.31185
      70 -> 74         0.11695
      70 -> 76        -0.11926
      70 -> 77         0.10664

 Excited State  27:      Singlet-A      6.1970 eV  200.07 nm  f=0.0290  <S**2>=0.000
      67 -> 74        -0.12211
      72 -> 80         0.66028

 Excited State  28:      Singlet-A      6.2237 eV  199.21 nm  f=0.1386  <S**2>=0.000
      67 -> 73         0.18177
      67 -> 75         0.48337
      68 -> 74        -0.21002
      68 -> 76        -0.10527
      68 -> 77        -0.14168
      69 -> 73        -0.11638
      69 -> 75         0.20077
      69 -> 78        -0.14163
      70 -> 73        -0.10661
      70 -> 75        -0.12446
      70 -> 78         0.20553

 Excited State  29:      Singlet-A      6.3053 eV  196.63 nm  f=0.4419  <S**2>=0.000
      67 -> 73         0.45308
      67 -> 75        -0.23700
      68 -> 74        -0.32637
      68 -> 76         0.23532
      69 -> 75         0.14603

 Excited State  30:      Singlet-A      6.3217 eV  196.12 nm  f=0.0681  <S**2>=0.000
      67 -> 74         0.39475
      68 -> 73         0.32371
      68 -> 75        -0.12279
      69 -> 74         0.10900
      69 -> 76         0.20837
      69 -> 77         0.19441
      70 -> 77         0.32002

 The electronic state is 1-A.
 Alpha  occ. eigenvalues --  -89.05453 -14.42060 -10.28832 -10.28541 -10.28539
 Alpha  occ. eigenvalues --  -10.27688 -10.27686 -10.24748 -10.24748 -10.24483
 Alpha  occ. eigenvalues --  -10.24482 -10.24317 -10.24317 -10.24217 -10.24217
 Alpha  occ. eigenvalues --  -10.23698 -10.23698 -10.23177 -10.23175 -10.22708
 Alpha  occ. eigenvalues --   -8.06836  -5.98533  -5.98175  -5.97579  -0.99359
 Alpha  occ. eigenvalues --   -0.88638  -0.88403  -0.85908  -0.82319  -0.77882
 Alpha  occ. eigenvalues --   -0.76976  -0.76839  -0.75523  -0.73791  -0.70183
 Alpha  occ. eigenvalues --   -0.64544  -0.64409  -0.61739  -0.61110  -0.61019
 Alpha  occ. eigenvalues --   -0.57696  -0.55109  -0.54997  -0.51042  -0.49537
 Alpha  occ. eigenvalues --   -0.49295  -0.47975  -0.47674  -0.45934  -0.45153
 Alpha  occ. eigenvalues --   -0.45093  -0.43999  -0.43517  -0.42876  -0.42183
 Alpha  occ. eigenvalues --   -0.40687  -0.39180  -0.39162  -0.38561  -0.37178
 Alpha  occ. eigenvalues --   -0.36650  -0.35944  -0.35271  -0.34650  -0.32952
 Alpha  occ. eigenvalues --   -0.31714  -0.27935  -0.27787  -0.27109  -0.26749
 Alpha  occ. eigenvalues --   -0.23677  -0.21597
 Alpha virt. eigenvalues --   -0.02300  -0.01977  -0.01744  -0.01658   0.00164
 Alpha virt. eigenvalues --    0.00809   0.02379   0.04811   0.05827   0.06674
 Alpha virt. eigenvalues --    0.07061   0.07703   0.07911   0.08783   0.09195

 Mulliken charges:
               1
     1  C   -0.159543
     2  C   -0.058644
     3  C   -0.057830
     4  C    0.112240
     5  C   -0.323745
     6  C   -0.028088
     7  C    0.113215
     8  C   -0.057848
     9  C   -0.058677
    10  H    0.137611
    11  C   -0.159652
    12  C   -0.027813
    13  C   -0.324759
    14  H    0.137608
    15  H    0.152515
    16  H    0.134323
    17  H    0.134323
    18  H    0.134327
    19  C    0.212809
    20  C   -0.258633
    21  C   -0.127999
    22  C   -0.127912
    23  C   -0.177364
    24  H    0.128082
    25  H    0.128094
    26  H    0.189727
    27  H    0.123674
    28  H    0.134329
    29  N   -0.071265
    30  H    0.152628
    31  S   -0.036761
    32  C   -0.258476
    33  H    0.189503
 Sum of Mulliken charges =  -0.00000

 Dipole moment (field-independent basis, Debye):
    X=             -1.2574    Y=              0.0025    Z=              1.5548  Tot=              1.9996
 Quadrupole moment (field-independent basis, Debye-Ang):
   XX=           -118.4091   YY=           -100.4113   ZZ=           -122.2938
   XY=              0.0338   XZ=              2.5013   YZ=              0.0042

 Normal termination of Gaussian 09 at Sun Feb 21 07:28:59 2021.
