                         Program Version 5.0.2 -  RELEASE  -
|  1> %maxcore 20000
|  2> %pal
|  3>  nprocs= 4
|  4> end
|  5> ! RI-wPBEPP86   def2-TZVP def2/J def2-TZVP/C RIJCOSX CPCM TightSCF
|  6> %TDDFT
|  7>    NROOTS   30
|  8>    dcorr 1
|  9>    TDA      FALSE
| 10> END
| 11>
| 12> %CPCM
| 13>    SMD          TRUE
| 14>    SMDsolvent   "N,N-DIMETHYLACETAMIDE"
| 15> END
| 16>
| 17>
| 18> * xyz 0 1
| 19> C                  -1.98589800   -3.51504200    0.40705300
| 20> C                  -2.31200200   -2.48851100   -0.46337400
| 21> C                  -1.54247500   -1.33041800   -0.48678600
| 22> C                  -0.44503300   -1.19499400    0.36625500
| 23> C                  -0.16507700   -2.20792500    1.27822400
| 24> C                  -0.92043200   -3.36871700    1.28559100
| 25> C                  -0.44145600    1.19547900    0.36664600
| 26> C                  -1.53847900    1.33474300   -0.48627200
| 27> C                  -2.30428000    2.49531300   -0.46230800
| 28> H                  -3.15501300    2.58856900   -1.12552100
| 29> C                  -1.97479200    3.52043000    0.40852000
| 30> C                  -0.90964500    3.37037900    1.28685000
| 31> C                  -0.15806600    2.20718300    1.27889800
| 32> H                  -3.16304600   -2.57866500   -1.12662700
| 33> H                   0.65940400   -2.08237300    1.96828700
| 34> H                  -0.68155100   -4.15715700    1.98746100
| 35> H                  -2.56561700    4.42717700    0.41647300
| 36> H                  -0.66811400    4.15786700    1.98887300
| 37> C                   1.69426700   -0.00255600    0.03223200
| 38> C                   2.40135600    1.19602700   -0.14061700
| 39> C                   3.75393700    1.18574800   -0.43602500
| 40> C                   3.75216800   -1.19487200   -0.43319400
| 41> C                   4.45068100   -0.00525400   -0.57565400
| 42> H                   4.26428400    2.13287000   -0.56325800
| 43> H                   4.26120800   -2.14300500   -0.55808500
| 44> H                   1.89362500    2.14573600   -0.06318200
| 45> H                   5.50890500   -0.00630200   -0.80086200
| 46> H                  -2.57953900   -4.41995300    0.41461000
| 47> N                   0.31932000   -0.00088800    0.31069100
| 48> H                   0.66632000    2.07877000    1.96855300
| 49> S                  -1.94327000    0.00297700   -1.57207900
| 50> C                   2.39952400   -1.20260300   -0.13774400
| 51> H                   1.89042200   -2.15141900   -0.05805500
| 52> *
| 53>
| 54>
| 55>                          ****END OF INPUT****

CARTESIAN COORDINATES (ANGSTROEM)
---------------------------------
  C     -1.985898   -3.515042    0.407053
  C     -2.312002   -2.488511   -0.463374
  C     -1.542475   -1.330418   -0.486786
  C     -0.445033   -1.194994    0.366255
  C     -0.165077   -2.207925    1.278224
  C     -0.920432   -3.368717    1.285591
  C     -0.441456    1.195479    0.366646
  C     -1.538479    1.334743   -0.486272
  C     -2.304280    2.495313   -0.462308
  H     -3.155013    2.588569   -1.125521
  C     -1.974792    3.520430    0.408520
  C     -0.909645    3.370379    1.286850
  C     -0.158066    2.207183    1.278898
  H     -3.163046   -2.578665   -1.126627
  H      0.659404   -2.082373    1.968287
  H     -0.681551   -4.157157    1.987461
  H     -2.565617    4.427177    0.416473
  H     -0.668114    4.157867    1.988873
  C      1.694267   -0.002556    0.032232
  C      2.401356    1.196027   -0.140617
  C      3.753937    1.185748   -0.436025
  C      3.752168   -1.194872   -0.433194
  C      4.450681   -0.005254   -0.575654
  H      4.264284    2.132870   -0.563258
  H      4.261208   -2.143005   -0.558085
  H      1.893625    2.145736   -0.063182
  H      5.508905   -0.006302   -0.800862
  H     -2.579539   -4.419953    0.414610
  N      0.319320   -0.000888    0.310691
  H      0.666320    2.078770    1.968553
  S     -1.943270    0.002977   -1.572079
  C      2.399524   -1.202603   -0.137744
  H      1.890422   -2.151419   -0.058055

 Total Charge           Charge          ....    0
 Multiplicity           Mult            ....    1
 Number of Electrons    NEL             ....  144
 Basis Dimension        Dim             ....  704

ORBITAL ENERGIES
----------------

  NO   OCC          E(Eh)            E(eV)
   0   2.0000     -90.844795     -2472.0125
   1   2.0000     -15.167246      -412.7217
   2   2.0000     -10.924389      -297.2677
   3   2.0000     -10.920577      -297.1640
   4   2.0000     -10.920550      -297.1633
   5   2.0000     -10.909317      -296.8576
   6   2.0000     -10.909308      -296.8574
   7   2.0000     -10.876823      -295.9734
   8   2.0000     -10.876822      -295.9734
   9   2.0000     -10.873380      -295.8797
  10   2.0000     -10.873366      -295.8793
  11   2.0000     -10.871383      -295.8254
  12   2.0000     -10.871379      -295.8253
  13   2.0000     -10.870217      -295.7936
  14   2.0000     -10.870216      -295.7936
  15   2.0000     -10.866915      -295.7038
  16   2.0000     -10.866886      -295.7030
  17   2.0000     -10.860189      -295.5208
  18   2.0000     -10.860167      -295.5202
  19   2.0000     -10.854819      -295.3746
  20   2.0000      -8.638041      -235.0530
  21   2.0000      -6.419361      -174.6797
  22   2.0000      -6.417373      -174.6256
  23   2.0000      -6.415226      -174.5672
  24   2.0000      -1.230491       -33.4833
  25   2.0000      -1.109237       -30.1839
  26   2.0000      -1.106685       -30.1144
  27   2.0000      -1.078256       -29.3408
  28   2.0000      -1.030207       -28.0334
  29   2.0000      -0.985395       -26.8140
  30   2.0000      -0.975174       -26.5358
  31   2.0000      -0.972668       -26.4676
  32   2.0000      -0.959885       -26.1198
  33   2.0000      -0.935846       -25.4657
  34   2.0000      -0.886770       -24.1302
  35   2.0000      -0.823752       -22.4154
  36   2.0000      -0.821922       -22.3656
  37   2.0000      -0.791829       -21.5468
  38   2.0000      -0.781372       -21.2622
  39   2.0000      -0.777914       -21.1681
  40   2.0000      -0.741137       -20.1674
  41   2.0000      -0.702732       -19.1223
  42   2.0000      -0.702365       -19.1123
  43   2.0000      -0.658231       -17.9114
  44   2.0000      -0.640111       -17.4183
  45   2.0000      -0.639380       -17.3984
  46   2.0000      -0.622898       -16.9499
  47   2.0000      -0.616872       -16.7859
  48   2.0000      -0.600433       -16.3386
  49   2.0000      -0.592850       -16.1323
  50   2.0000      -0.590170       -16.0593
  51   2.0000      -0.574894       -15.6437
  52   2.0000      -0.567303       -15.4371
  53   2.0000      -0.562610       -15.3094
  54   2.0000      -0.551423       -15.0050
  55   2.0000      -0.535975       -14.5846
  56   2.0000      -0.515753       -14.0344
  57   2.0000      -0.512639       -13.9496
  58   2.0000      -0.511625       -13.9220
  59   2.0000      -0.497222       -13.5301
  60   2.0000      -0.490781       -13.3548
  61   2.0000      -0.479142       -13.0381
  62   2.0000      -0.467522       -12.7219
  63   2.0000      -0.465586       -12.6692
  64   2.0000      -0.445880       -12.1330
  65   2.0000      -0.419893       -11.4259
  66   2.0000      -0.365000        -9.9322
  67   2.0000      -0.363218        -9.8837
  68   2.0000      -0.354825        -9.6553
  69   2.0000      -0.351344        -9.5606
  70   2.0000      -0.319707        -8.6997
  71   2.0000      -0.291375        -7.9287
  72   0.0000       0.060610         1.6493
  73   0.0000       0.066940         1.8215
  74   0.0000       0.068696         1.8693
  75   0.0000       0.069718         1.8971
  76   0.0000       0.092464         2.5161

MULLIKEN ATOMIC CHARGES
-----------------------
   0 C :   -0.216313
   1 C :   -0.154018
   2 C :   -0.141463
   3 C :    0.262464
   4 C :   -0.402844
   5 C :   -0.104418
   6 C :    0.262695
   7 C :   -0.142137
   8 C :   -0.153455
   9 H :    0.191252
  10 C :   -0.216527
  11 C :   -0.104502
  12 C :   -0.402096
  13 H :    0.191031
  14 H :    0.212020
  15 H :    0.189251
  16 H :    0.189657
  17 H :    0.189229
  18 C :    0.333768
  19 C :   -0.400345
  20 C :   -0.133434
  21 C :   -0.133000
  22 C :   -0.270439
  23 H :    0.184913
  24 H :    0.184956
  25 H :    0.207580
  26 H :    0.182389
  27 H :    0.189588
  28 N :   -0.017081
  29 H :    0.211747
  30 S :    0.002606
  31 C :   -0.400799
  32 H :    0.207723
Sum of atomic charges:   -0.0000000

LOEWDIN ATOMIC CHARGES
----------------------
   0 C :   -0.146745
   1 C :   -0.144191
   2 C :   -0.332077
   3 C :   -0.171206
   4 C :   -0.109447
   5 C :   -0.142582
   6 C :   -0.171267
   7 C :   -0.332088
   8 C :   -0.144185
   9 H :    0.160572
  10 C :   -0.146747
  11 C :   -0.142595
  12 C :   -0.109415
  13 H :    0.160572
  14 H :    0.167501
  15 H :    0.159860
  16 H :    0.159460
  17 H :    0.159858
  18 C :   -0.160061
  19 C :   -0.139142
  20 C :   -0.150175
  21 C :   -0.150168
  22 C :   -0.183309
  23 H :    0.158211
  24 H :    0.158208
  25 H :    0.162673
  26 H :    0.152749
  27 H :    0.159462
  28 N :    0.263190
  29 H :    0.167509
  30 S :    0.662092
  31 C :   -0.139161
  32 H :    0.162644

  Mayer bond orders larger than 0.100000
B(  0-C ,  1-C ) :   1.4171 B(  0-C ,  5-C ) :   1.3826 B(  0-C , 27-H ) :   0.9740
B(  1-C ,  2-C ) :   1.3619 B(  1-C , 13-H ) :   0.9612 B(  2-C ,  3-C ) :   1.3396
B(  2-C , 30-S ) :   1.0974 B(  3-C ,  4-C ) :   1.3636 B(  3-C , 28-N ) :   0.9178
B(  4-C ,  5-C ) :   1.4254 B(  4-C , 14-H ) :   0.9704 B(  5-C , 15-H ) :   0.9713
B(  6-C ,  7-C ) :   1.3386 B(  6-C , 12-C ) :   1.3636 B(  6-C , 28-N ) :   0.9178
B(  7-C ,  8-C ) :   1.3619 B(  7-C , 30-S ) :   1.0970 B(  8-C ,  9-H ) :   0.9608
B(  8-C , 10-C ) :   1.4179 B( 10-C , 11-C ) :   1.3825 B( 10-C , 16-H ) :   0.9740
B( 11-C , 12-C ) :   1.4250 B( 11-C , 17-H ) :   0.9714 B( 12-C , 29-H ) :   0.9707
B( 18-C , 19-C ) :   1.3294 B( 18-C , 28-N ) :   1.1312 B( 18-C , 31-C ) :   1.3298
B( 19-C , 20-C ) :   1.4587 B( 19-C , 25-H ) :   0.9549 B( 19-C , 31-C ) :   0.1004
B( 20-C , 22-C ) :   1.3948 B( 20-C , 23-H ) :   0.9706 B( 21-C , 22-C ) :   1.3950
B( 21-C , 24-H ) :   0.9704 B( 21-C , 31-C ) :   1.4590 B( 22-C , 26-H ) :   0.9792
B( 31-C , 32-H ) :   0.9545

MP2 TOTAL ENERGY:    -1146.199745515 Eh

-----------------------------------------------------------------------------
         ABSORPTION SPECTRUM VIA TRANSITION ELECTRIC DIPOLE MOMENTS
-----------------------------------------------------------------------------
State   Energy    Wavelength  fosc         T2        TX        TY        TZ
        (cm-1)      (nm)                 (au**2)    (au)      (au)      (au)
-----------------------------------------------------------------------------
   1   36353.1    275.1   0.269879881   2.44402  -1.54900  -0.00850   0.21109
   2   37200.9    268.8   0.025931476   0.22948   0.03702  -0.47759  -0.00404
   3   37150.9    269.2   0.000856855   0.00759   0.00611   0.08691   0.00140
   4   37209.8    268.7   0.048593554   0.42993   0.61120  -0.00193   0.23740
   5   38956.5    256.7   0.006194963   0.05235   0.00009  -0.22881   0.00039
   6   45136.4    221.6   0.106271064   0.77511  -0.56231   0.01598   0.67724
   7   43993.1    227.3   0.222863115   1.66774   0.00923   1.29136  -0.00782
   8   43023.6    232.4   0.290207877   2.22064   1.08255  -0.00698   1.02405
   9   46036.8    217.2   0.547943296   3.91838  -0.00581  -1.97948  -0.00342
  10   46321.8    215.9   0.205239048   1.45865   1.20719  -0.00203  -0.03665
  11   46508.5    215.0   0.120086737   0.85004  -0.00165  -0.92197   0.00014
  12   50693.6    197.3   0.831055423   5.39700  -2.27399   0.00101   0.47538
  13   50805.6    196.8   1.008768409   6.53666  -0.00339  -2.55669  -0.00064
  14   51779.1    193.1   0.025505058   0.16216  -0.02859   0.00473  -0.40165
  15   49525.5    201.9   0.144281502   0.95909   0.00024  -0.97933   0.00115
  16   49433.8    202.3   0.003568136   0.02376   0.01309  -0.15301   0.01339
  17   49090.5    203.7   0.210395317   1.41096  -0.74019  -0.00058  -0.92902
  18   55292.0    180.9   0.200851116   1.19588  -0.63799   0.00301  -0.88816
  19   52684.9    189.8   0.239613454   1.49727   0.00423   1.22362   0.00232
  20   55439.6    180.4   0.162341802   0.96402  -0.33133   0.00118  -0.92425
  21   55596.4    179.9   0.069152170   0.40948  -0.53724   0.00170  -0.34764
  22   52372.9    190.9   0.000210081   0.00132  -0.00013  -0.03629  -0.00191
  23   53206.3    187.9   0.014854903   0.09191  -0.00192   0.30317  -0.00073
  24   55705.6    179.5   0.232041063   1.37133   1.12694  -0.00029   0.31835
  25   54046.3    185.0   0.059812216   0.36433   0.00110  -0.60360   0.00222
  26   59946.4    166.8   0.020588482   0.11307   0.18520   0.00167   0.28065
  27   58158.3    171.9   0.005748232   0.03254   0.12951  -0.00317   0.12552
  28   59239.7    168.8   0.019148421   0.10641  -0.03856  -0.00006  -0.32392
  29   60531.7    165.2   0.003313998   0.01802   0.00093  -0.13423  -0.00233
  30   60034.3    166.6   0.034912094   0.19145   0.21705   0.00025  -0.37992

FINAL SINGLE POINT ENERGY     -1144.395817438503

DIPOLE MOMENT
-------------
                                X             Y             Z
Electronic contribution:     -6.47618       0.00797      -3.56473
Nuclear contribution   :      6.27875      -0.00784       4.41851
                        -----------------------------------------
Total Dipole Moment    :     -0.19743       0.00014       0.85378
                        -----------------------------------------
Magnitude (a.u.)       :      0.87631
Magnitude (Debye)      :      2.22740

Rotational constants in cm-1:     0.012934     0.011295     0.007075
Rotational constants in MHz :   387.761121   338.628638   212.103272

                             ****ORCA TERMINATED NORMALLY****
TOTAL RUN TIME: 0 days 4 hours 36 minutes 23 seconds 520 msec
