                         Program Version 5.0.2 -  RELEASE  -
|  1> %maxcore 12800
|  2> %pal
|  3>  nprocs= 8
|  4> end
|  5> ! RI-DSD-BLYP D3BJ def2-TZVP def2/J def2-TZVP/C RIJCOSX CPCM TightSCF
|  6> %TDDFT DCORR 4
|  7>    NROOTS   30
|  8>
|  9>    TDA      FALSE
| 10> END
| 11>
| 12> %CPCM
| 13>    SMD          TRUE
| 14>    SMDsolvent   "N,N-DIMETHYLACETAMIDE"
| 15> END
| 16>
| 17>
| 18> * xyz 0 1
| 19> C                  -1.98589800   -3.51504200    0.40705300
| 20> C                  -2.31200200   -2.48851100   -0.46337400
| 21> C                  -1.54247500   -1.33041800   -0.48678600
| 22> C                  -0.44503300   -1.19499400    0.36625500
| 23> C                  -0.16507700   -2.20792500    1.27822400
| 24> C                  -0.92043200   -3.36871700    1.28559100
| 25> C                  -0.44145600    1.19547900    0.36664600
| 26> C                  -1.53847900    1.33474300   -0.48627200
| 27> C                  -2.30428000    2.49531300   -0.46230800
| 28> H                  -3.15501300    2.58856900   -1.12552100
| 29> C                  -1.97479200    3.52043000    0.40852000
| 30> C                  -0.90964500    3.37037900    1.28685000
| 31> C                  -0.15806600    2.20718300    1.27889800
| 32> H                  -3.16304600   -2.57866500   -1.12662700
| 33> H                   0.65940400   -2.08237300    1.96828700
| 34> H                  -0.68155100   -4.15715700    1.98746100
| 35> H                  -2.56561700    4.42717700    0.41647300
| 36> H                  -0.66811400    4.15786700    1.98887300
| 37> C                   1.69426700   -0.00255600    0.03223200
| 38> C                   2.40135600    1.19602700   -0.14061700
| 39> C                   3.75393700    1.18574800   -0.43602500
| 40> C                   3.75216800   -1.19487200   -0.43319400
| 41> C                   4.45068100   -0.00525400   -0.57565400
| 42> H                   4.26428400    2.13287000   -0.56325800
| 43> H                   4.26120800   -2.14300500   -0.55808500
| 44> H                   1.89362500    2.14573600   -0.06318200
| 45> H                   5.50890500   -0.00630200   -0.80086200
| 46> H                  -2.57953900   -4.41995300    0.41461000
| 47> N                   0.31932000   -0.00088800    0.31069100
| 48> H                   0.66632000    2.07877000    1.96855300
| 49> S                  -1.94327000    0.00297700   -1.57207900
| 50> C                   2.39952400   -1.20260300   -0.13774400
| 51> H                   1.89042200   -2.15141900   -0.05805500
| 52> *
| 53>
| 54>
| 55>                          ****END OF INPUT****

CARTESIAN COORDINATES (ANGSTROEM)
---------------------------------
  C     -1.985898   -3.515042    0.407053
  C     -2.312002   -2.488511   -0.463374
  C     -1.542475   -1.330418   -0.486786
  C     -0.445033   -1.194994    0.366255
  C     -0.165077   -2.207925    1.278224
  C     -0.920432   -3.368717    1.285591
  C     -0.441456    1.195479    0.366646
  C     -1.538479    1.334743   -0.486272
  C     -2.304280    2.495313   -0.462308
  H     -3.155013    2.588569   -1.125521
  C     -1.974792    3.520430    0.408520
  C     -0.909645    3.370379    1.286850
  C     -0.158066    2.207183    1.278898
  H     -3.163046   -2.578665   -1.126627
  H      0.659404   -2.082373    1.968287
  H     -0.681551   -4.157157    1.987461
  H     -2.565617    4.427177    0.416473
  H     -0.668114    4.157867    1.988873
  C      1.694267   -0.002556    0.032232
  C      2.401356    1.196027   -0.140617
  C      3.753937    1.185748   -0.436025
  C      3.752168   -1.194872   -0.433194
  C      4.450681   -0.005254   -0.575654
  H      4.264284    2.132870   -0.563258
  H      4.261208   -2.143005   -0.558085
  H      1.893625    2.145736   -0.063182
  H      5.508905   -0.006302   -0.800862
  H     -2.579539   -4.419953    0.414610
  N      0.319320   -0.000888    0.310691
  H      0.666320    2.078770    1.968553
  S     -1.943270    0.002977   -1.572079
  C      2.399524   -1.202603   -0.137744
  H      1.890422   -2.151419   -0.058055

 Total Charge           Charge          ....    0
 Multiplicity           Mult            ....    1
 Number of Electrons    NEL             ....  144
 Basis Dimension        Dim             ....  704

ORBITAL ENERGIES
----------------

  NO   OCC          E(Eh)            E(eV)
   0   2.0000     -90.781678     -2470.2950
   1   2.0000     -15.118198      -411.3871
   2   2.0000     -10.882579      -296.1300
   3   2.0000     -10.878757      -296.0260
   4   2.0000     -10.878730      -296.0253
   5   2.0000     -10.866335      -295.6880
   6   2.0000     -10.866326      -295.6878
   7   2.0000     -10.836362      -294.8724
   8   2.0000     -10.836361      -294.8724
   9   2.0000     -10.832788      -294.7752
  10   2.0000     -10.832775      -294.7748
  11   2.0000     -10.831122      -294.7298
  12   2.0000     -10.831117      -294.7297
  13   2.0000     -10.830001      -294.6993
  14   2.0000     -10.830000      -294.6993
  15   2.0000     -10.826635      -294.6077
  16   2.0000     -10.826605      -294.6069
  17   2.0000     -10.819523      -294.4142
  18   2.0000     -10.819500      -294.4136
  19   2.0000     -10.814865      -294.2874
  20   2.0000      -8.577957      -233.4181
  21   2.0000      -6.368778      -173.3033
  22   2.0000      -6.366769      -173.2486
  23   2.0000      -6.364589      -173.1893
  24   2.0000      -1.177805       -32.0497
  25   2.0000      -1.057778       -28.7836
  26   2.0000      -1.055217       -28.7139
  27   2.0000      -1.027344       -27.9554
  28   2.0000      -0.979951       -26.6658
  29   2.0000      -0.935771       -25.4636
  30   2.0000      -0.925812       -25.1926
  31   2.0000      -0.923467       -25.1288
  32   2.0000      -0.911065       -24.7914
  33   2.0000      -0.887342       -24.1458
  34   2.0000      -0.838606       -22.8196
  35   2.0000      -0.775884       -21.1129
  36   2.0000      -0.774039       -21.0627
  37   2.0000      -0.745445       -20.2846
  38   2.0000      -0.735149       -20.0044
  39   2.0000      -0.731081       -19.8937
  40   2.0000      -0.695580       -18.9277
  41   2.0000      -0.656177       -17.8555
  42   2.0000      -0.655526       -17.8378
  43   2.0000      -0.613226       -16.6867
  44   2.0000      -0.595373       -16.2009
  45   2.0000      -0.594933       -16.1889
  46   2.0000      -0.579632       -15.7726
  47   2.0000      -0.572868       -15.5885
  48   2.0000      -0.557201       -15.1622
  49   2.0000      -0.550550       -14.9812
  50   2.0000      -0.546600       -14.8738
  51   2.0000      -0.532582       -14.4923
  52   2.0000      -0.524726       -14.2785
  53   2.0000      -0.520939       -14.1755
  54   2.0000      -0.506092       -13.7715
  55   2.0000      -0.493684       -13.4338
  56   2.0000      -0.472187       -12.8489
  57   2.0000      -0.469705       -12.7813
  58   2.0000      -0.465276       -12.6608
  59   2.0000      -0.457503       -12.4493
  60   2.0000      -0.451024       -12.2730
  61   2.0000      -0.439254       -11.9527
  62   2.0000      -0.428244       -11.6531
  63   2.0000      -0.421965       -11.4822
  64   2.0000      -0.402403       -10.9499
  65   2.0000      -0.376657       -10.2493
  66   2.0000      -0.322655        -8.7799
  67   2.0000      -0.321245        -8.7415
  68   2.0000      -0.312915        -8.5148
  69   2.0000      -0.309832        -8.4310
  70   2.0000      -0.279461        -7.6045
  71   2.0000      -0.251396        -6.8408
  72   0.0000       0.050555         1.3757
  73   0.0000       0.056725         1.5436
  74   0.0000       0.058270         1.5856
  75   0.0000       0.059356         1.6152
  76   0.0000       0.080882         2.2009

MULLIKEN ATOMIC CHARGES
-----------------------
   0 C :   -0.192150
   1 C :   -0.140076
   2 C :   -0.125125
   3 C :    0.285626
   4 C :   -0.373301
   5 C :   -0.085835
   6 C :    0.285968
   7 C :   -0.125730
   8 C :   -0.139578
   9 H :    0.166250
  10 C :   -0.192348
  11 C :   -0.085940
  12 C :   -0.372670
  13 H :    0.166064
  14 H :    0.179267
  15 H :    0.165020
  16 H :    0.165369
  17 H :    0.164995
  18 C :    0.321650
  19 C :   -0.372252
  20 C :   -0.103125
  21 C :   -0.102690
  22 C :   -0.249719
  23 H :    0.160759
  24 H :    0.160792
  25 H :    0.174556
  26 H :    0.157185
  27 H :    0.165316
  28 N :   -0.010322
  29 H :    0.179030
  30 S :   -0.028948
  31 C :   -0.372684
  32 H :    0.174647
Sum of atomic charges:   -0.0000000

LOEWDIN ATOMIC CHARGES
----------------------
   0 C :   -0.142551
   1 C :   -0.140574
   2 C :   -0.327453
   3 C :   -0.163845
   4 C :   -0.104148
   5 C :   -0.138560
   6 C :   -0.163901
   7 C :   -0.327464
   8 C :   -0.140568
   9 H :    0.153910
  10 C :   -0.142553
  11 C :   -0.138573
  12 C :   -0.104117
  13 H :    0.153910
  14 H :    0.160816
  15 H :    0.153385
  16 H :    0.152977
  17 H :    0.153382
  18 C :   -0.153730
  19 C :   -0.134115
  20 C :   -0.145870
  21 C :   -0.145861
  22 C :   -0.178735
  23 H :    0.151674
  24 H :    0.151670
  25 H :    0.157115
  26 H :    0.146297
  27 H :    0.152979
  28 N :    0.261605
  29 H :    0.160823
  30 S :    0.659125
  31 C :   -0.134139
  32 H :    0.157086

  Mayer bond orders larger than 0.100000
B(  0-C ,  1-C ) :   1.4155 B(  0-C ,  5-C ) :   1.3846 B(  0-C , 27-H ) :   0.9804
B(  1-C ,  2-C ) :   1.3463 B(  1-C , 13-H ) :   0.9755 B(  2-C ,  3-C ) :   1.3312
B(  2-C , 30-S ) :   1.0816 B(  3-C ,  4-C ) :   1.3679 B(  3-C , 28-N ) :   0.9045
B(  4-C ,  5-C ) :   1.4225 B(  4-C , 14-H ) :   0.9839 B(  5-C , 15-H ) :   0.9791
B(  6-C ,  7-C ) :   1.3303 B(  6-C , 12-C ) :   1.3678 B(  6-C , 28-N ) :   0.9045
B(  7-C ,  8-C ) :   1.3462 B(  7-C , 30-S ) :   1.0813 B(  8-C ,  9-H ) :   0.9752
B(  8-C , 10-C ) :   1.4162 B( 10-C , 11-C ) :   1.3845 B( 10-C , 16-H ) :   0.9804
B( 11-C , 12-C ) :   1.4222 B( 11-C , 17-H ) :   0.9792 B( 12-C , 29-H ) :   0.9841
B( 18-C , 19-C ) :   1.3372 B( 18-C , 28-N ) :   1.1274 B( 18-C , 31-C ) :   1.3375
B( 19-C , 20-C ) :   1.4441 B( 19-C , 25-H ) :   0.9716 B( 19-C , 31-C ) :   0.1026
B( 20-C , 22-C ) :   1.3967 B( 20-C , 23-H ) :   0.9785 B( 21-C , 22-C ) :   1.3969
B( 21-C , 24-H ) :   0.9783 B( 21-C , 31-C ) :   1.4443 B( 22-C , 26-H ) :   0.9858
B( 31-C , 32-H ) :   0.9713

MP2 TOTAL ENERGY:    -1145.743019063 Eh

-----------------------------------------------------------------------------
         ABSORPTION SPECTRUM VIA TRANSITION ELECTRIC DIPOLE MOMENTS
-----------------------------------------------------------------------------
State   Energy    Wavelength  fosc         T2        TX        TY        TZ
        (cm-1)      (nm)                 (au**2)    (au)      (au)      (au)
-----------------------------------------------------------------------------
   1   28280.4    353.6   0.203699205   2.37126   1.52307   0.00133  -0.22695
   2   30718.1    325.5   0.016444800   0.17624   0.01454  -0.41956  -0.00126
   3   28687.0    348.6   0.000329877   0.00379   0.00709   0.06109   0.00171
   4   27869.0    358.8   0.044086828   0.52079  -0.66955   0.00223  -0.26923
   5   30870.3    323.9   0.004710246   0.05023   0.00011  -0.22412   0.00039
   6   40952.2    244.2   0.096832924   0.77843  -0.54649   0.05835   0.69020
   7   37047.5    269.9   0.239458910   2.12788  -0.02416  -1.45827   0.02728
   8   31878.9    313.7   0.184299028   1.90325  -1.11378   0.00379  -0.81408
   9   40210.3    248.7   0.302656578   2.47792   0.00436   1.57414   0.00154
  10   38801.3    257.7   0.070844287   0.60108   0.76445  -0.00334  -0.12916
  11   36889.5    271.1   0.098710224   0.88092   0.00256   0.93857   0.00056
  12   44034.1    227.1   0.692488641   5.17725  -2.24211   0.00029   0.38755
  13   41954.8    238.4   0.814333687   6.38993  -0.00134  -2.52783  -0.00066
  14   37215.7    268.7   0.018114897   0.16025   0.00308  -0.40029   0.00263
  15   41829.3    239.1   0.097026090   0.76363   0.86051   0.00128   0.15217
  16   39007.0    256.4   0.114993307   0.97052  -0.13677  -0.01477  -0.97550
  17   38634.9    258.8   0.066483451   0.56651   0.00184  -0.75233   0.02264
  18   41047.8    243.6   0.291520858   2.33806   0.00270   1.52907   0.00012
  19   45496.5    219.8   0.025680568   0.18582   0.05596   0.00310  -0.42741
  20   40113.4    249.3   0.001495484   0.01227   0.02051   0.10575   0.02589
  21   47133.7    212.2   0.264236723   1.84560  -0.81736   0.00185  -1.08514
  22   45630.5    219.2   0.193215552   1.39400   0.88455  -0.00202   0.78203
  23   37446.0    267.1   0.023615649   0.20762   0.00015  -0.45565   0.00089
  24   37297.6    268.1   0.042592757   0.37595  -0.00002   0.61315  -0.00116
  25   45735.5    218.6   0.102173081   0.73546   0.85713  -0.00076   0.02793
  26   48516.8    206.1   0.054856521   0.37223  -0.53573  -0.00144  -0.29192
  27   44214.7    226.2   0.013943004   0.10382   0.23333  -0.00248   0.22219
  28   41159.8    243.0   0.013175292   0.10538   0.00470   0.32439   0.01149
  29   43274.6    231.1   0.045573540   0.34670   0.24733  -0.00793   0.53429
  30   49739.6    201.0   0.046664460   0.30886  -0.47208   0.00279   0.29325

Dispersion correction           -0.034764625
FINAL SINGLE POINT ENERGY     -1144.086199240178

DIPOLE MOMENT
-------------
                                X             Y             Z
Electronic contribution:     -6.48318       0.00797      -3.57856
Nuclear contribution   :      6.27875      -0.00784       4.41851
                        -----------------------------------------
Total Dipole Moment    :     -0.20443       0.00013       0.83995
                        -----------------------------------------
Magnitude (a.u.)       :      0.86447
Magnitude (Debye)      :      2.19730

Rotational constants in cm-1:     0.012934     0.011295     0.007075
Rotational constants in MHz :   387.761121   338.628638   212.103272

                             ****ORCA TERMINATED NORMALLY****
TOTAL RUN TIME: 0 days 0 hours 22 minutes 40 seconds 950 msec
