 Gaussian 09, Revision E.01,

 ----------------------------------------------------------------------
 #p cam-b3lyp/def2TZVP opt freq=noraman nosymm int=ultrafine scrf=(SMD,
 solvent=n,n-DiMethylAcetamide) EmpiricalDispersion=GD3BJ
 ----------------------------------------------------------------------

 -----
 Title
 -----
 Symbolic Z-matrix:
 Charge =  0 Multiplicity = 1

 SCF Done:  E(RCAM-B3LYP) =  -1146.60858885     A.U. after   14 cycles
 SCF Done:  E(RCAM-B3LYP) =  -1146.61244471     A.U. after   12 cycles
 SCF Done:  E(RCAM-B3LYP) =  -1146.61251208     A.U. after   10 cycles
 SCF Done:  E(RCAM-B3LYP) =  -1146.61252233     A.U. after   10 cycles
 SCF Done:  E(RCAM-B3LYP) =  -1146.61253110     A.U. after   10 cycles
 SCF Done:  E(RCAM-B3LYP) =  -1146.61253641     A.U. after   10 cycles
 SCF Done:  E(RCAM-B3LYP) =  -1146.61253954     A.U. after    9 cycles
 SCF Done:  E(RCAM-B3LYP) =  -1146.61254098     A.U. after    8 cycles
 SCF Done:  E(RCAM-B3LYP) =  -1146.61254110     A.U. after    7 cycles
 Optimization completed.
    -- Stationary point found.
 Normal termination of Gaussian 09 at Thu Feb 25 17:40:10 2021.

 ----------------------------------------------------------------------
 #P Geom=AllCheck Guess=TCheck SCRF=Check GenChk RCAM-B3LYP/def2TZVP Fr
 eq
 ----------------------------------------------------------------------

 Structure from the checkpoint file:  "cp.chk"
 -----
 Title
 -----
 Charge =  0 Multiplicity = 1

 SCF Done:  E(RCAM-B3LYP) =  -1146.61254110     A.U. after    1 cycles

  Exact polarizability: 342.394  -0.508 403.730 -21.865  -0.426 264.365
 Approx polarizability: 282.600  -0.374 325.638 -22.806  -0.299 244.797

                      1                      2                      3
                      A                      A                      A
 Frequencies --     29.3422                42.5127                67.7252
 Red. masses --      6.0783                 3.7102                 5.6958
 Frc consts  --      0.0031                 0.0040                 0.0154
 IR Inten    --      1.1068                 0.0108                 3.4404

                      4                      5                      6
                      A                      A                      A
 Frequencies --     82.1353               144.7443               160.7190
 Red. masses --      4.7230                 4.1170                 4.3758
 Frc consts  --      0.0188                 0.0508                 0.0666
 IR Inten    --      0.0056                 0.2076                 1.3779

                      7                      8                      9
                      A                      A                      A
 Frequencies --    190.1924               234.8372               265.2011
 Red. masses --      5.2170                 5.7821                 5.0654
 Frc consts  --      0.1112                 0.1879                 0.2099
 IR Inten    --      0.2894                 2.6182                 0.1297

                     10                     11                     12
                      A                      A                      A
 Frequencies --    323.9416               326.2367               357.0708
 Red. masses --      5.6189                 4.9900                 5.7453
 Frc consts  --      0.3474                 0.3129                 0.4316
 IR Inten    --      3.0159                 4.1008                 5.2023

                     13                     14                     15
                      A                      A                      A
 Frequencies --    396.2315               413.5280               429.0915
 Red. masses --      5.0432                 9.8070                 2.9693
 Frc consts  --      0.4665                 0.9881                 0.3221
 IR Inten    --      0.6661                 6.6940                 0.0223

                     16                     17                     18
                      A                      A                      A
 Frequencies --    457.9745               466.1898               485.8036
 Red. masses --      9.9494                 3.3104                 3.7265
 Frc consts  --      1.2295                 0.4239                 0.5182
 IR Inten    --      0.8348                 0.0021                37.5674

                     19                     20                     21
                      A                      A                      A
 Frequencies --    518.4884               551.4377               553.9442
 Red. masses --      2.9753                 5.0162                 3.9817
 Frc consts  --      0.4713                 0.8987                 0.7199
 IR Inten    --     10.1075                 1.3480                 2.0375

                     22                     23                     24
                      A                      A                      A
 Frequencies --    591.4292               639.0446               645.5935
 Red. masses --      4.8305                 6.1300                 5.1578
 Frc consts  --      0.9955                 1.4749                 1.2666
 IR Inten    --      9.1314                 0.1837                40.5874

                     25                     26                     27
                      A                      A                      A
 Frequencies --    648.9441               705.1370               721.8048
 Red. masses --      6.5107                 6.3200                 6.4053
 Frc consts  --      1.6154                 1.8515                 1.9662
 IR Inten    --     11.7128                 1.8073                 9.5243

                     28                     29                     30
                      A                      A                      A
 Frequencies --    722.0235               761.2858               773.1762
 Red. masses --      1.8295                 4.5524                 1.9945
 Frc consts  --      0.5619                 1.5545                 0.7025
 IR Inten    --     62.6821                 8.7335                26.3357

                     31                     32                     33
                      A                      A                      A
 Frequencies --    779.7162               783.6317               787.9501
 Red. masses --      1.9618                 1.6535                 1.8108
 Frc consts  --      0.7027                 0.5982                 0.6624
 IR Inten    --    144.1238                85.6986                20.1110

                     34                     35                     36
                      A                      A                      A
 Frequencies --    800.8927               857.4281               904.0652
 Red. masses --      2.4526                 1.2550                 1.5691
 Frc consts  --      0.9269                 0.5436                 0.7556
 IR Inten    --     62.2677                 0.2315                 5.7605

                     37                     38                     39
                      A                      A                      A
 Frequencies --    908.1250               926.2737               952.8690
 Red. masses --      1.4304                 1.4912                 5.6903
 Frc consts  --      0.6950                 0.7538                 3.0440
 IR Inten    --      0.0406                14.6265                 0.5419

                     40                     41                     42
                      A                      A                      A
 Frequencies --    957.9395               996.0390               999.3987
 Red. masses --      3.8547                 1.4102                 1.4975
 Frc consts  --      2.0841                 0.8243                 0.8812
 IR Inten    --      3.3951                 1.8893                 5.7513

                     43                     44                     45
                      A                      A                      A
 Frequencies --   1008.9231              1017.6362              1022.9445
 Red. masses --      1.3551                 1.2892                 5.0286
 Frc consts  --      0.8127                 0.7866                 3.1003
 IR Inten    --      0.1577                 0.4972                 6.4609

                     46                     47                     48
                      A                      A                      A
 Frequencies --   1027.1413              1028.1384              1070.4771
 Red. masses --      1.3389                 1.3560                 2.3119
 Frc consts  --      0.8323                 0.8445                 1.5609
 IR Inten    --      0.0851                 0.0950                11.3239

                     49                     50                     51
                      A                      A                      A
 Frequencies --   1070.8428              1073.1949              1100.1118
 Red. masses --      2.4143                 2.2047                 3.1902
 Frc consts  --      1.6312                 1.4961                 2.2748
 IR Inten    --     28.0483                24.0796                 7.9971

                     52                     53                     54
                      A                      A                      A
 Frequencies --   1114.6013              1130.8753              1156.7575
 Red. masses --      3.5762                 1.5166                 1.5921
 Frc consts  --      2.6176                 1.1428                 1.2552
 IR Inten    --     16.9193                 4.4938                19.3015

                     55                     56                     57
                      A                      A                      A
 Frequencies --   1162.0605              1177.5219              1179.1656
 Red. masses --      1.5987                 1.1161                 1.1459
 Frc consts  --      1.2720                 0.9118                 0.9388
 IR Inten    --      5.2142                 3.3411                 0.9837

                     58                     59                     60
                      A                      A                      A
 Frequencies --   1179.6077              1218.1345              1227.5548
 Red. masses --      1.1366                 1.1635                 2.7767
 Frc consts  --      0.9318                 1.0172                 2.4653
 IR Inten    --      0.6967                27.1793                29.0681

                     61                     62                     63
                      A                      A                      A
 Frequencies --   1274.7268              1305.3017              1306.3194
 Red. masses --      1.8961                 1.9033                 6.7965
 Frc consts  --      1.8153                 1.9107                 6.8333
 IR Inten    --     44.1530               161.5235                 0.2270

                     64                     65                     66
                      A                      A                      A
 Frequencies --   1312.8157              1313.8696              1340.1280
 Red. masses --      4.1842                 3.3880                 4.2217
 Frc consts  --      4.2488                 3.4459                 4.4671
 IR Inten    --     32.8772                47.9724               369.0733

                     67                     68                     69
                      A                      A                      A
 Frequencies --   1343.2502              1387.7881              1492.2130
 Red. masses --      3.1007                 1.4226                 2.2579
 Frc consts  --      3.2963                 1.6143                 2.9622
 IR Inten    --     17.0802                21.2864                 0.2115

                     70                     71                     72
                      A                      A                      A
 Frequencies --   1498.8961              1510.8186              1520.4852
 Red. masses --      2.3295                 2.4657                 2.9110
 Frc consts  --      3.0835                 3.3161                 3.9651
 IR Inten    --     64.1489                51.8040               197.4977

                     73                     74                     75
                      A                      A                      A
 Frequencies --   1535.8351              1547.5218              1641.3421
 Red. masses --      2.7786                 2.2147                 6.2648
 Frc consts  --      3.8616                 3.1249                 9.9439
 IR Inten    --     87.4168               308.6178                17.1086

                     76                     77                     78
                      A                      A                      A
 Frequencies --   1653.7877              1655.6404              1660.1494
 Red. masses --      6.0578                 7.0919                 6.2877
 Frc consts  --      9.7616                11.4537                10.2103
 IR Inten    --      9.8477                10.1231                 0.7362

                     79                     80                     81
                      A                      A                      A
 Frequencies --   1664.6441              1681.8216              3192.1556
 Red. masses --      5.9629                 6.2762                 1.0872
 Frc consts  --      9.7353                10.4594                 6.5273
 IR Inten    --    177.2443                77.6182                 2.6929

                     82                     83                     84
                      A                      A                      A
 Frequencies --   3198.1666              3199.5351              3199.5570
 Red. masses --      1.0913                 1.0877                 1.0877
 Frc consts  --      6.5763                 6.5605                 6.5606
 IR Inten    --     16.3265                 0.0430                 0.0585

                     85                     86                     87
                      A                      A                      A
 Frequencies --   3206.6588              3206.7538              3214.9857
 Red. masses --      1.0906                 1.0907                 1.0944
 Frc consts  --      6.6073                 6.6083                 6.6645
 IR Inten    --      3.3563                 2.9274                 7.5934

                     88                     89                     90
                      A                      A                      A
 Frequencies --   3215.0396              3216.5786              3223.4667
 Red. masses --      1.0944                 1.0965                 1.0985
 Frc consts  --      6.6651                 6.6840                 6.7252
 IR Inten    --     15.5844                17.3352                13.8054

                     91                     92                     93
                      A                      A                      A
 Frequencies --   3223.6198              3242.9962              3243.1546
 Red. masses --      1.0985                 1.0913                 1.0919
 Frc consts  --      6.7257                 6.7625                 6.7663
 IR Inten    --      3.2043                 2.5707                 1.0048

 - Thermochemistry -
 -------------------
 Temperature   298.150 Kelvin.  Pressure   1.00000 Atm.
 Atom     1 has atomic number  6 and mass  12.00000

 Molecular mass:   275.07687 amu.
 Principal axes and moments of inertia in atomic units:
                           1         2         3
     Eigenvalues --  4770.724985114.319598189.70845
           X            0.99880  -0.00597  -0.04861
           Y            0.00608   0.99998   0.00208
           Z            0.04859  -0.00237   0.99882
 This molecule is an asymmetric top.
 Rotational symmetry number  1.
 Warning -- assumption of classical behavior for rotation
           may cause significant error
 Rotational temperatures (Kelvin)      0.01816     0.01694     0.01058
 Rotational constants (GHZ):           0.37829     0.35288     0.22037
 Zero-point vibrational energy     686392.3 (Joules/Mol)
                                  164.05169 (Kcal/Mol)
 Warning -- explicit consideration of  22 degrees of freedom as
           vibrations may cause significant error
 Vibrational temperatures:     42.22    61.17    97.44   118.17   208.25
          (Kelvin)            231.24   273.64   337.88   381.56   466.08
                              469.38   513.74   570.09   594.97   617.37
                              658.92   670.74   698.96   745.99   793.39
                              797.00   850.93   919.44   928.86   933.68
                             1014.53  1038.51  1038.83  1095.32  1112.43
                             1121.84  1127.47  1133.68  1152.30  1233.65
                             1300.75  1306.59  1332.70  1370.96  1378.26
                             1433.08  1437.91  1451.61  1464.15  1471.79
                             1477.83  1479.26  1540.18  1540.70  1544.09
                             1582.81  1603.66  1627.08  1664.31  1671.94
                             1694.19  1696.55  1697.19  1752.62  1766.18
                             1834.05  1878.04  1879.50  1888.85  1890.36
                             1928.14  1932.64  1996.72  2146.96  2156.57
                             2173.73  2187.64  2209.72  2226.54  2361.52
                             2379.43  2382.09  2388.58  2395.05  2419.76
                             4592.79  4601.44  4603.41  4603.44  4613.66
                             4613.80  4625.64  4625.72  4627.93  4637.84
                             4638.06  4665.94  4666.17

 Zero-point correction=                           0.261433 (Hartree/Particle)
 Thermal correction to Energy=                    0.276096
 Thermal correction to Enthalpy=                  0.277041
 Thermal correction to Gibbs Free Energy=         0.218596
 Sum of electronic and zero-point Energies=          -1146.351108
 Sum of electronic and thermal Energies=             -1146.336445
 Sum of electronic and thermal Enthalpies=           -1146.335501
 Sum of electronic and thermal Free Energies=        -1146.393945

                     E (Thermal)             CV                S
                      KCal/Mol        Cal/Mol-Kelvin    Cal/Mol-Kelvin
 Total                  173.253             60.360            123.007
 Electronic               0.000              0.000              0.000
 Translational            0.889              2.981             42.734
 Rotational               0.889              2.981             33.657
 Vibrational            171.476             54.398             46.615
 Vibration     1          0.593              1.984              5.873
 Vibration     2          0.595              1.980              5.138
 Vibration     3          0.598              1.970              4.218
 Vibration     4          0.600              1.961              3.839
 Vibration     5          0.616              1.908              2.740
 Vibration     6          0.622              1.891              2.541
 Vibration     7          0.634              1.853              2.226
 Vibration     8          0.655              1.788              1.842
 Vibration     9          0.671              1.737              1.627
 Vibration    10          0.708              1.628              1.290
 Vibration    11          0.710              1.623              1.279
 Vibration    12          0.732              1.561              1.135
 Vibration    13          0.763              1.478              0.977
 Vibration    14          0.777              1.441              0.914
 Vibration    15          0.790              1.407              0.862
 Vibration    16          0.816              1.343              0.772
 Vibration    17          0.824              1.325              0.748
 Vibration    18          0.842              1.282              0.695
 Vibration    19          0.873              1.209              0.613
 Vibration    20          0.907              1.137              0.541
 Vibration    21          0.909              1.131              0.536
 Vibration    22          0.949              1.050              0.465

 Optimization completed.
    -- Stationary point found.
 Normal termination of Gaussian 09 at Thu Feb 25 20:10:58 2021.
 Gaussian 09:  ES64L-G09RevE.01 30-Nov-2015

 ----------------------------------------------------------------------
 #p cam-b3lyp chkbasis geom=allcheck Guess=Read int=ultrafine scrf=(SMD
 ,solvent=n,n-DiMethylAcetamide) td=(NStates=30) EmpiricalDispersion=GD
 3BJ
 ----------------------------------------------------------------------

 Structure from the checkpoint file:  "cp.chk"
 -----
 Title
 -----
 Charge =  0 Multiplicity = 1

                         Standard orientation:
 ---------------------------------------------------------------------
 Center     Atomic      Atomic             Coordinates (Angstroms)
 Number     Number       Type             X           Y           Z
 ---------------------------------------------------------------------
      1          6           0       -1.973608   -3.520770    0.277530
      2          6           0       -2.176350   -2.494922   -0.628249
      3          6           0       -1.423557   -1.333626   -0.531311
      4          6           0       -0.473508   -1.195123    0.475085
      5          6           0       -0.312395   -2.207507    1.407968
      6          6           0       -1.049105   -3.373696    1.300954
      7          6           0       -0.471328    1.196019    0.474820
      8          6           0       -1.420926    1.336111   -0.531806
      9          6           0       -2.171321    2.498910   -0.629260
     10          1           0       -2.917419    2.595837   -1.407296
     11          6           0       -1.966742    3.524602    0.276285
     12          6           0       -1.042902    3.375903    1.300055
     13          6           0       -0.308573    2.208247    1.407579
     14          1           0       -2.922858   -2.590490   -1.406067
     15          1           0        0.407346   -2.078285    2.205329
     16          1           0       -0.907417   -4.166393    2.023408
     17          1           0       -2.547365    4.433934    0.195168
     18          1           0       -0.899862    4.168474    2.022376
     19          6           0        1.644192   -0.001498    0.146707
     20          6           0        2.335549    1.195529   -0.057122
     21          6           0        3.665850    1.186285   -0.436679
     22          6           0        3.662705   -1.193047   -0.439876
     23          6           0        4.347070   -0.004026   -0.628944
     24          1           0        4.171477    2.131966   -0.587119
     25          1           0        4.165867   -2.139631   -0.592871
     26          1           0        1.836469    2.143052    0.072458
     27          1           0        5.387536   -0.005009   -0.924669
     28          1           0       -2.556082   -4.428963    0.196864
     29          7           0        0.294579   -0.000250    0.540053
     30          1           0        0.410593    2.077791    2.205247
     31         16           0       -1.669088    0.001267   -1.661820
     32          6           0        2.332343   -1.199795   -0.060455
     33          1           0        1.830708   -2.146370    0.066230
 ---------------------------------------------------------------------

 SCF Done:  E(RCAM-B3LYP) =  -1146.61255231     A.U. after    7 cycles

 Excitation energies and oscillator strengths:

 Excited State   1:      Singlet-A      4.6146 eV  268.68 nm  f=0.1423  <S**2>=0.000
      72 -> 73         0.65640
      72 -> 75         0.16111
 This state for optimization and/or second-order correction.
 Total Energy, E(TD-HF/TD-KS) =  -1146.44296763
 Copying the excited state density for this state as the 1-particle RhoCI density.

 Excited State   2:      Singlet-A      4.6705 eV  265.46 nm  f=0.0166  <S**2>=0.000
      71 -> 74        -0.21268
      72 -> 74         0.28476
      72 -> 76         0.57555

 Excited State   3:      Singlet-A      4.6934 eV  264.17 nm  f=0.0016  <S**2>=0.000
      71 -> 77        -0.12283
      72 -> 74         0.56865
      72 -> 76        -0.29190
      72 -> 77        -0.13467

 Excited State   4:      Singlet-A      4.8301 eV  256.69 nm  f=0.0878  <S**2>=0.000
      68 -> 75        -0.11601
      71 -> 73         0.26513
      72 -> 73        -0.10632
      72 -> 75         0.60092

 Excited State   5:      Singlet-A      5.0894 eV  243.61 nm  f=0.0013  <S**2>=0.000
      67 -> 73         0.17470
      67 -> 75         0.10505
      68 -> 74        -0.17726
      69 -> 75        -0.11997
      70 -> 73         0.10227
      70 -> 75        -0.11164
      71 -> 74         0.16194
      71 -> 76         0.40288
      72 -> 74         0.12379
      72 -> 77         0.37604

 Excited State   6:      Singlet-A      5.3132 eV  233.35 nm  f=0.3325  <S**2>=0.000
      71 -> 74         0.41231
      71 -> 76         0.10527
      71 -> 79        -0.21977
      72 -> 76         0.20416
      72 -> 77        -0.37149
      72 -> 79         0.18888

 Excited State   7:      Singlet-A      5.3281 eV  232.70 nm  f=0.0827  <S**2>=0.000
      68 -> 75        -0.10339
      69 -> 74        -0.12019
      70 -> 74        -0.12476
      71 -> 73         0.47876
      71 -> 75         0.26801
      72 -> 73         0.15039
      72 -> 75        -0.28259
      72 -> 78         0.10435

 Excited State   8:      Singlet-A      5.4999 eV  225.43 nm  f=0.2394  <S**2>=0.000
      71 -> 73        -0.29494
      71 -> 75         0.47970
      72 -> 78         0.36807

 Excited State   9:      Singlet-A      5.6502 eV  219.43 nm  f=0.0434  <S**2>=0.000
      69 -> 76        -0.12019
      70 -> 77         0.11038
      71 -> 73         0.10805
      71 -> 75        -0.35051
      71 -> 78         0.13780
      72 -> 78         0.52536

 Excited State  10:      Singlet-A      5.7018 eV  217.45 nm  f=0.0599  <S**2>=0.000
      67 -> 73         0.14948
      69 -> 75        -0.14059
      70 -> 73         0.14540
      71 -> 76         0.20662
      71 -> 77        -0.18924
      71 -> 79         0.31087
      72 -> 74        -0.19153
      72 -> 77        -0.28051
      72 -> 79        -0.27734

 Excited State  11:      Singlet-A      5.7304 eV  216.36 nm  f=0.1015  <S**2>=0.000
      67 -> 75         0.10937
      69 -> 73         0.11760
      70 -> 75         0.11004
      71 -> 74         0.43052
      71 -> 76        -0.17795
      71 -> 77         0.18570
      71 -> 79         0.25492
      72 -> 77         0.14918
      72 -> 79        -0.25492

 Excited State  12:      Singlet-A      6.1781 eV  200.68 nm  f=0.0289  <S**2>=0.000
      67 -> 73        -0.13671
      68 -> 74         0.18295
      69 -> 73        -0.15253
      69 -> 75         0.24455
      70 -> 73        -0.21994
      70 -> 75         0.18642
      71 -> 76         0.43617
      72 -> 74         0.11056
      72 -> 79        -0.13683

 Excited State  13:      Singlet-A      6.2164 eV  199.45 nm  f=0.1523  <S**2>=0.000
      66 -> 73         0.14841
      67 -> 74        -0.13210
      67 -> 76        -0.23336
      68 -> 75         0.28271
      69 -> 74         0.31644
      70 -> 74         0.21012
      70 -> 77         0.15403
      71 -> 73         0.26445
      71 -> 75         0.19234

 Excited State  14:      Singlet-A      6.2672 eV  197.83 nm  f=0.2653  <S**2>=0.000
      67 -> 75         0.15622
      68 -> 76         0.22681
      69 -> 73         0.38074
      69 -> 75         0.16482
      70 -> 73         0.29533
      70 -> 75         0.17102
      70 -> 78        -0.12000
      71 -> 74        -0.18682
      71 -> 76         0.10218
      72 -> 77        -0.16221

 Excited State  15:      Singlet-A      6.3963 eV  193.84 nm  f=0.2515  <S**2>=0.000
      68 -> 74         0.14799
      68 -> 77        -0.10003
      69 -> 78        -0.23637
      70 -> 73         0.21805
      70 -> 75         0.33077
      70 -> 78         0.22628
      71 -> 77        -0.29295
      72 -> 76         0.11382
      72 -> 77         0.24075

 Excited State  16:      Singlet-A      6.4001 eV  193.72 nm  f=0.3348  <S**2>=0.000
      67 -> 74         0.23715
      68 -> 73         0.29944
      69 -> 74         0.15268
      69 -> 77        -0.21549
      70 -> 76         0.47774

 Excited State  17:      Singlet-A      6.4998 eV  190.75 nm  f=0.2786  <S**2>=0.000
      67 -> 74         0.19878
      67 -> 77         0.13307
      68 -> 73         0.15372
      68 -> 78        -0.10181
      69 -> 76         0.33823
      70 -> 74         0.34029
      70 -> 76        -0.14739
      70 -> 77        -0.18568
      71 -> 78        -0.18518
      72 -> 78         0.18623

 Excited State  18:      Singlet-A      6.6624 eV  186.10 nm  f=0.1192  <S**2>=0.000
      67 -> 75         0.13124
      68 -> 79        -0.10049
      71 -> 79         0.39918
      72 -> 79         0.48296

 Excited State  19:      Singlet-A      6.7172 eV  184.58 nm  f=0.0036  <S**2>=0.000
      67 -> 75         0.12004
      69 -> 73        -0.22582
      69 -> 75        -0.16461
      69 -> 78        -0.12899
      70 -> 73         0.11888
      70 -> 75         0.15012
      70 -> 78         0.16833
      71 -> 74        -0.11330
      71 -> 76         0.11160
      71 -> 77         0.51837

 Excited State  20:      Singlet-A      6.7731 eV  183.06 nm  f=0.1906  <S**2>=0.000
      67 -> 74         0.12955
      70 -> 74         0.14447
      70 -> 76        -0.12679
      71 -> 78         0.55588
      72 -> 80        -0.17435
      72 -> 81         0.10155

 Excited State  21:      Singlet-A      6.7897 eV  182.61 nm  f=0.4071  <S**2>=0.000
      67 -> 73         0.32066
      67 -> 75         0.33946
      68 -> 74        -0.11218
      68 -> 76        -0.13346
      69 -> 75         0.20256
      70 -> 73        -0.15336
      70 -> 75         0.21063
      70 -> 78        -0.14608
      71 -> 76        -0.10552
      71 -> 79        -0.17500
      72 -> 79        -0.13011

 Excited State  22:      Singlet-A      6.8055 eV  182.18 nm  f=0.3853  <S**2>=0.000
      66 -> 74         0.12473
      67 -> 73         0.40564
      67 -> 75        -0.35588
      68 -> 74         0.15819
      69 -> 75         0.22389
      70 -> 73         0.25412
      71 -> 77         0.10292

 Excited State  23:      Singlet-A      6.8876 eV  180.01 nm  f=0.3434  <S**2>=0.000
      67 -> 76        -0.21070
      68 -> 73         0.32660
      68 -> 75         0.11801
      69 -> 74        -0.20337
      70 -> 74        -0.22326
      70 -> 76        -0.13970
      71 -> 78         0.21986
      72 -> 80         0.30524

 Excited State  24:      Singlet-A      6.9599 eV  178.14 nm  f=0.1205  <S**2>=0.000
      67 -> 76         0.14881
      68 -> 73        -0.18507
      69 -> 74         0.12251
      70 -> 74         0.16397
      70 -> 76         0.10909
      72 -> 80         0.50536
      72 -> 81         0.18806
      72 -> 84        -0.15103

 Excited State  25:      Singlet-A      7.0070 eV  176.94 nm  f=0.0204  <S**2>=0.000
      67 -> 74        -0.17612
      69 -> 76         0.15964
      70 -> 74        -0.13043
      71 -> 78        -0.13128
      71 -> 80         0.11538
      71 -> 81        -0.11312
      71 -> 83        -0.19327
      72 -> 81         0.42839
      72 -> 83         0.30776

 Excited State  26:      Singlet-A      7.0688 eV  175.40 nm  f=0.0004  <S**2>=0.000
      67 -> 73         0.11583
      68 -> 76        -0.30938
      69 -> 73         0.45376
      69 -> 78        -0.13033
      70 -> 73        -0.29987
      70 -> 78         0.16386
      71 -> 77         0.10610

 Excited State  27:      Singlet-A      7.0744 eV  175.26 nm  f=0.0115  <S**2>=0.000
      67 -> 74        -0.24721
      68 -> 73        -0.20691
      68 -> 75        -0.10518
      69 -> 76         0.47316
      70 -> 74        -0.10580
      70 -> 76         0.22011
      71 -> 78         0.12265
      71 -> 80        -0.10005
      72 -> 81        -0.15144

 Excited State  28:      Singlet-A      7.1534 eV  173.32 nm  f=0.0115  <S**2>=0.000
      67 -> 73         0.21855
      67 -> 75         0.14498
      68 -> 74         0.45735
      68 -> 76         0.28981
      69 -> 75        -0.29200
      70 -> 73        -0.12996

 Excited State  29:      Singlet-A      7.1761 eV  172.77 nm  f=0.0629  <S**2>=0.000
      68 -> 73         0.17007
      68 -> 75        -0.41600
      69 -> 74         0.43113
      70 -> 74        -0.16284
      70 -> 76        -0.23407

 Excited State  30:      Singlet-A      7.2369 eV  171.32 nm  f=0.1654  <S**2>=0.000
      67 -> 73         0.10109
      67 -> 75        -0.24164
      68 -> 74        -0.32560
      68 -> 76         0.33741
      69 -> 75        -0.18589
      70 -> 73        -0.16828
      70 -> 75         0.33077

 The electronic state is 1-A.
 Alpha  occ. eigenvalues --  -88.94294 -14.41868 -10.29528 -10.29293 -10.29291
 Alpha  occ. eigenvalues --  -10.28503 -10.28502 -10.25475 -10.25474 -10.25153
 Alpha  occ. eigenvalues --  -10.25153 -10.25008 -10.25008 -10.24923 -10.24922
 Alpha  occ. eigenvalues --  -10.24371 -10.24371 -10.23831 -10.23830 -10.23382
 Alpha  occ. eigenvalues --   -8.02106  -5.98528  -5.98166  -5.97617  -1.06407
 Alpha  occ. eigenvalues --   -0.95928  -0.95719  -0.93035  -0.89428  -0.84972
 Alpha  occ. eigenvalues --   -0.84005  -0.83893  -0.82496  -0.80589  -0.76770
 Alpha  occ. eigenvalues --   -0.71143  -0.71019  -0.68288  -0.67490  -0.67485
 Alpha  occ. eigenvalues --   -0.63920  -0.61354  -0.61213  -0.57061  -0.55425
 Alpha  occ. eigenvalues --   -0.55271  -0.53871  -0.53423  -0.51744  -0.51111
 Alpha  occ. eigenvalues --   -0.51009  -0.49674  -0.49218  -0.48619  -0.47922
 Alpha  occ. eigenvalues --   -0.46268  -0.44883  -0.44837  -0.43996  -0.42558
 Alpha  occ. eigenvalues --   -0.41971  -0.41235  -0.40519  -0.39918  -0.38002
 Alpha  occ. eigenvalues --   -0.36673  -0.32325  -0.32255  -0.31467  -0.31072
 Alpha  occ. eigenvalues --   -0.27799  -0.25427
 Alpha virt. eigenvalues --    0.01723   0.02142   0.02239   0.02468   0.04479
 Alpha virt. eigenvalues --    0.05082   0.07067   0.09388   0.10304   0.11423
 Alpha virt. eigenvalues --    0.11631   0.11837   0.12561   0.13836   0.13876

 Mulliken charges:
               1
     1  C   -0.180021
     2  C   -0.169282
     3  C   -0.036497
     4  C    0.152582
     5  C   -0.296622
     6  C   -0.106660
     7  C    0.153216
     8  C   -0.036755
     9  C   -0.169239
    10  H    0.166645
    11  C   -0.180099
    12  C   -0.106608
    13  C   -0.297105
    14  H    0.166638
    15  H    0.175713
    16  H    0.168880
    17  H    0.169331
    18  H    0.168879
    19  C    0.207397
    20  C   -0.279147
    21  C   -0.158752
    22  C   -0.158753
    23  C   -0.219279
    24  H    0.162671
    25  H    0.162669
    26  H    0.188003
    27  H    0.160021
    28  H    0.169335
    29  N   -0.033301
    30  H    0.175897
    31  S   -0.028684
    32  C   -0.279017
    33  H    0.187946
 Sum of Mulliken charges =  -0.00000

 Dipole moment (field-independent basis, Debye):
    X=             -1.1616    Y=              0.0015    Z=              1.7701  Tot=              2.1172
 Quadrupole moment (field-independent basis, Debye-Ang):
   XX=           -119.2266   YY=           -100.5731   ZZ=           -123.8023
   XY=              0.0208   XZ=              2.5434   YZ=              0.0073

 Normal termination of Gaussian 09 at Thu Feb 25 21:51:03 2021.
