                         Program Version 5.0.2 -  RELEASE  -
|  1> %maxcore 20000
|  2> %pal
|  3>  nprocs= 4
|  4> end
|  5> ! RI-B2GP-PLYP   def2-TZVP def2/J def2-TZVP/C RIJCOSX CPCM TightSCF
|  6> %TDDFT
|  7>    NROOTS   30
|  8>    dcorr 4
|  9>    TDA      FALSE
| 10> END
| 11>
| 12> %CPCM
| 13>    SMD          TRUE
| 14>    SMDsolvent   "N,N-DIMETHYLACETAMIDE"
| 15> END
| 16>
| 17>
| 18> * xyz 0 1
| 19> C                  -1.98589800   -3.51504200    0.40705300
| 20> C                  -2.31200200   -2.48851100   -0.46337400
| 21> C                  -1.54247500   -1.33041800   -0.48678600
| 22> C                  -0.44503300   -1.19499400    0.36625500
| 23> C                  -0.16507700   -2.20792500    1.27822400
| 24> C                  -0.92043200   -3.36871700    1.28559100
| 25> C                  -0.44145600    1.19547900    0.36664600
| 26> C                  -1.53847900    1.33474300   -0.48627200
| 27> C                  -2.30428000    2.49531300   -0.46230800
| 28> H                  -3.15501300    2.58856900   -1.12552100
| 29> C                  -1.97479200    3.52043000    0.40852000
| 30> C                  -0.90964500    3.37037900    1.28685000
| 31> C                  -0.15806600    2.20718300    1.27889800
| 32> H                  -3.16304600   -2.57866500   -1.12662700
| 33> H                   0.65940400   -2.08237300    1.96828700
| 34> H                  -0.68155100   -4.15715700    1.98746100
| 35> H                  -2.56561700    4.42717700    0.41647300
| 36> H                  -0.66811400    4.15786700    1.98887300
| 37> C                   1.69426700   -0.00255600    0.03223200
| 38> C                   2.40135600    1.19602700   -0.14061700
| 39> C                   3.75393700    1.18574800   -0.43602500
| 40> C                   3.75216800   -1.19487200   -0.43319400
| 41> C                   4.45068100   -0.00525400   -0.57565400
| 42> H                   4.26428400    2.13287000   -0.56325800
| 43> H                   4.26120800   -2.14300500   -0.55808500
| 44> H                   1.89362500    2.14573600   -0.06318200
| 45> H                   5.50890500   -0.00630200   -0.80086200
| 46> H                  -2.57953900   -4.41995300    0.41461000
| 47> N                   0.31932000   -0.00088800    0.31069100
| 48> H                   0.66632000    2.07877000    1.96855300
| 49> S                  -1.94327000    0.00297700   -1.57207900
| 50> C                   2.39952400   -1.20260300   -0.13774400
| 51> H                   1.89042200   -2.15141900   -0.05805500
| 52> *
| 53>
| 54>
| 55>                          ****END OF INPUT****

CARTESIAN COORDINATES (ANGSTROEM)
---------------------------------
  C     -1.985898   -3.515042    0.407053
  C     -2.312002   -2.488511   -0.463374
  C     -1.542475   -1.330418   -0.486786
  C     -0.445033   -1.194994    0.366255
  C     -0.165077   -2.207925    1.278224
  C     -0.920432   -3.368717    1.285591
  C     -0.441456    1.195479    0.366646
  C     -1.538479    1.334743   -0.486272
  C     -2.304280    2.495313   -0.462308
  H     -3.155013    2.588569   -1.125521
  C     -1.974792    3.520430    0.408520
  C     -0.909645    3.370379    1.286850
  C     -0.158066    2.207183    1.278898
  H     -3.163046   -2.578665   -1.126627
  H      0.659404   -2.082373    1.968287
  H     -0.681551   -4.157157    1.987461
  H     -2.565617    4.427177    0.416473
  H     -0.668114    4.157867    1.988873
  C      1.694267   -0.002556    0.032232
  C      2.401356    1.196027   -0.140617
  C      3.753937    1.185748   -0.436025
  C      3.752168   -1.194872   -0.433194
  C      4.450681   -0.005254   -0.575654
  H      4.264284    2.132870   -0.563258
  H      4.261208   -2.143005   -0.558085
  H      1.893625    2.145736   -0.063182
  H      5.508905   -0.006302   -0.800862
  H     -2.579539   -4.419953    0.414610
  N      0.319320   -0.000888    0.310691
  H      0.666320    2.078770    1.968553
  S     -1.943270    0.002977   -1.572079
  C      2.399524   -1.202603   -0.137744
  H      1.890422   -2.151419   -0.058055

 Total Charge           Charge          ....    0
 Multiplicity           Mult            ....    1
 Number of Electrons    NEL             ....  144
 Basis Dimension        Dim             ....  704

ORBITAL ENERGIES
----------------

  NO   OCC          E(Eh)            E(eV)
   0   2.0000     -90.630139     -2466.1715
   1   2.0000     -15.058392      -409.7597
   2   2.0000     -10.831258      -294.7335
   3   2.0000     -10.827706      -294.6369
   4   2.0000     -10.827679      -294.6361
   5   2.0000     -10.815398      -294.3019
   6   2.0000     -10.815389      -294.3017
   7   2.0000     -10.785373      -293.4849
   8   2.0000     -10.785373      -293.4849
   9   2.0000     -10.781885      -293.3900
  10   2.0000     -10.781872      -293.3897
  11   2.0000     -10.780145      -293.3427
  12   2.0000     -10.780141      -293.3426
  13   2.0000     -10.779069      -293.3134
  14   2.0000     -10.779068      -293.3134
  15   2.0000     -10.775488      -293.2159
  16   2.0000     -10.775459      -293.2152
  17   2.0000     -10.768704      -293.0313
  18   2.0000     -10.768682      -293.0307
  19   2.0000     -10.763995      -292.9032
  20   2.0000      -8.528602      -232.0750
  21   2.0000      -6.333473      -172.3426
  22   2.0000      -6.331344      -172.2846
  23   2.0000      -6.328945      -172.2193
  24   2.0000      -1.163446       -31.6590
  25   2.0000      -1.044451       -28.4210
  26   2.0000      -1.041848       -28.3501
  27   2.0000      -1.014201       -27.5978
  28   2.0000      -0.967809       -26.3354
  29   2.0000      -0.923752       -25.1366
  30   2.0000      -0.913847       -24.8670
  31   2.0000      -0.911518       -24.8037
  32   2.0000      -0.899039       -24.4641
  33   2.0000      -0.875874       -23.8337
  34   2.0000      -0.828062       -22.5327
  35   2.0000      -0.766218       -20.8499
  36   2.0000      -0.764428       -20.8011
  37   2.0000      -0.735893       -20.0247
  38   2.0000      -0.725644       -19.7458
  39   2.0000      -0.721869       -19.6431
  40   2.0000      -0.686650       -18.6847
  41   2.0000      -0.648374       -17.6431
  42   2.0000      -0.647896       -17.6302
  43   2.0000      -0.605560       -16.4781
  44   2.0000      -0.587943       -15.9987
  45   2.0000      -0.587434       -15.9849
  46   2.0000      -0.572290       -15.5728
  47   2.0000      -0.565708       -15.3937
  48   2.0000      -0.550009       -14.9665
  49   2.0000      -0.543352       -14.7854
  50   2.0000      -0.539621       -14.6838
  51   2.0000      -0.525806       -14.3079
  52   2.0000      -0.518349       -14.1050
  53   2.0000      -0.514113       -13.9897
  54   2.0000      -0.499918       -13.6035
  55   2.0000      -0.487229       -13.2582
  56   2.0000      -0.465941       -12.6789
  57   2.0000      -0.464056       -12.6276
  58   2.0000      -0.459820       -12.5123
  59   2.0000      -0.451364       -12.2822
  60   2.0000      -0.444917       -12.1068
  61   2.0000      -0.433631       -11.7997
  62   2.0000      -0.422367       -11.4932
  63   2.0000      -0.416967       -11.3463
  64   2.0000      -0.397337       -10.8121
  65   2.0000      -0.372284       -10.1304
  66   2.0000      -0.319859        -8.7038
  67   2.0000      -0.318486        -8.6665
  68   2.0000      -0.310123        -8.4389
  69   2.0000      -0.307190        -8.3591
  70   2.0000      -0.276659        -7.5283
  71   2.0000      -0.248622        -6.7653
  72   0.0000       0.042541         1.1576
  73   0.0000       0.048754         1.3267
  74   0.0000       0.050063         1.3623
  75   0.0000       0.051354         1.3974
  76   0.0000       0.072536         1.9738

MULLIKEN ATOMIC CHARGES
-----------------------
   0 C :   -0.191222
   1 C :   -0.142178
   2 C :   -0.117497
   3 C :    0.277707
   4 C :   -0.369290
   5 C :   -0.088124
   6 C :    0.278032
   7 C :   -0.118055
   8 C :   -0.141722
   9 H :    0.166062
  10 C :   -0.191393
  11 C :   -0.088211
  12 C :   -0.368693
  13 H :    0.165892
  14 H :    0.180001
  15 H :    0.165155
  16 H :    0.165432
  17 H :    0.165134
  18 C :    0.312995
  19 C :   -0.365385
  20 C :   -0.108051
  21 C :   -0.107650
  22 C :   -0.246698
  23 H :    0.160675
  24 H :    0.160707
  25 H :    0.176084
  26 H :    0.157213
  27 H :    0.165383
  28 N :   -0.011823
  29 H :    0.179754
  30 S :   -0.030630
  31 C :   -0.365783
  32 H :    0.176181
Sum of atomic charges:   -0.0000000

LOEWDIN ATOMIC CHARGES
----------------------
   0 C :   -0.142842
   1 C :   -0.140958
   2 C :   -0.327652
   3 C :   -0.164410
   4 C :   -0.104601
   5 C :   -0.139031
   6 C :   -0.164466
   7 C :   -0.327663
   8 C :   -0.140952
   9 H :    0.154277
  10 C :   -0.142844
  11 C :   -0.139044
  12 C :   -0.104570
  13 H :    0.154277
  14 H :    0.161234
  15 H :    0.153759
  16 H :    0.153373
  17 H :    0.153757
  18 C :   -0.154870
  19 C :   -0.134043
  20 C :   -0.146784
  21 C :   -0.146776
  22 C :   -0.178707
  23 H :    0.151997
  24 H :    0.151994
  25 H :    0.157503
  26 H :    0.146682
  27 H :    0.153375
  28 N :    0.263156
  29 H :    0.161241
  30 S :    0.660180
  31 C :   -0.134066
  32 H :    0.157474

  Mayer bond orders larger than 0.100000
B(  0-C ,  1-C ) :   1.4151 B(  0-C ,  5-C ) :   1.3841 B(  0-C , 27-H ) :   0.9794
B(  1-C ,  2-C ) :   1.3435 B(  1-C , 13-H ) :   0.9746 B(  2-C ,  3-C ) :   1.3301
B(  2-C , 30-S ) :   1.0824 B(  3-C ,  4-C ) :   1.3649 B(  3-C , 28-N ) :   0.9067
B(  4-C ,  5-C ) :   1.4207 B(  4-C , 14-H ) :   0.9829 B(  5-C , 15-H ) :   0.9780
B(  6-C ,  7-C ) :   1.3293 B(  6-C , 12-C ) :   1.3647 B(  6-C , 28-N ) :   0.9067
B(  7-C ,  8-C ) :   1.3434 B(  7-C , 30-S ) :   1.0821 B(  8-C ,  9-H ) :   0.9743
B(  8-C , 10-C ) :   1.4158 B( 10-C , 11-C ) :   1.3840 B( 10-C , 16-H ) :   0.9794
B( 11-C , 12-C ) :   1.4203 B( 11-C , 17-H ) :   0.9782 B( 12-C , 29-H ) :   0.9832
B( 18-C , 19-C ) :   1.3369 B( 18-C , 28-N ) :   1.1277 B( 18-C , 31-C ) :   1.3372
B( 19-C , 20-C ) :   1.4441 B( 19-C , 25-H ) :   0.9690 B( 20-C , 22-C ) :   1.3960
B( 20-C , 23-H ) :   0.9777 B( 21-C , 22-C ) :   1.3962 B( 21-C , 24-H ) :   0.9775
B( 21-C , 31-C ) :   1.4443 B( 22-C , 26-H ) :   0.9846 B( 31-C , 32-H ) :   0.9688

MP2 TOTAL ENERGY:    -1146.000856640 Eh

-----------------------------------------------------------------------------
         ABSORPTION SPECTRUM VIA TRANSITION ELECTRIC DIPOLE MOMENTS
-----------------------------------------------------------------------------
State   Energy    Wavelength  fosc         T2        TX        TY        TZ
        (cm-1)      (nm)                 (au**2)    (au)      (au)      (au)
-----------------------------------------------------------------------------
   1   34629.5    288.8   0.247050949   2.34863   1.51466   0.00028  -0.23331
   2   35807.1    279.3   0.016069259   0.14774   0.01138  -0.38420  -0.00085
   3   35699.6    280.1   0.000547473   0.00505  -0.00769  -0.07061  -0.00178
   4   35950.0    278.2   0.067049782   0.61401   0.73373  -0.00251   0.27502
   5   38390.7    260.5   0.005361558   0.04598   0.00014  -0.21442   0.00041
   6   41813.6    239.2   0.307086685   2.41779  -0.00375   1.55489   0.00953
   7   43240.3    231.3   0.109578983   0.83429  -0.48703  -0.01897   0.77248
   8   41542.9    240.7   0.220398657   1.74657   1.14400  -0.00250   0.66170
   9   45461.6    220.0   0.290618640   2.10452  -0.00338  -1.45069  -0.00105
  10   44623.1    224.1   0.039635683   0.29242   0.52657  -0.00271  -0.12303
  11   44257.1    226.0   0.085232154   0.63401   0.00251   0.79624   0.00062
  12   49659.5    201.4   0.733651683   4.86366   2.18133   0.00051  -0.32476
  13   47504.5    210.5   0.629119567   4.35987   0.00182  -2.08803   0.00058
  14   48745.6    205.1   0.192900816   1.30279  -0.00255  -1.14139  -0.00249
  15   47820.2    209.1   0.135571191   0.93332  -0.72295  -0.00172  -0.64083
  16   47993.3    208.4   0.136031565   0.93311   0.00576  -0.96596  -0.00346
  17   50205.3    199.2   0.137708944   0.90300   0.62527   0.00988  -0.71550
  18   51080.2    195.8   0.436599916   2.81388   0.00365   1.67746  -0.00058
  19   51252.9    195.1   0.000625348   0.00402   0.00193   0.06299   0.00678
  20   52729.0    189.6   0.039553569   0.24695   0.00530  -0.00068  -0.49691
  21   53731.2    186.1   0.313840673   1.92291   0.88448  -0.00021   1.06799
  22   53493.0    186.9   0.267418779   1.64577  -0.99530   0.00193  -0.80941
  23   50453.9    198.2   0.048204958   0.31454  -0.00110   0.56083  -0.00152
  24   50646.6    197.4   0.059841087   0.38898  -0.00109  -0.62368   0.00049
  25   53933.5    185.4   0.125581169   0.76655  -0.87547   0.00004   0.01020
  26   56278.4    177.7   0.021813046   0.12760   0.28723   0.00166   0.21235
  27   54042.4    185.0   0.013485317   0.08215  -0.18539   0.00178  -0.21857
  28   53598.7    186.6   0.017149937   0.10534   0.00017  -0.32456  -0.00036
  29   54365.8    183.9   0.076210108   0.46149   0.39705  -0.00200   0.55121
  30   53952.5    185.3   0.021833215   0.13322  -0.00033   0.36500   0.00043

FINAL SINGLE POINT ENERGY     -1144.528994586238

DIPOLE MOMENT
-------------
                                X             Y             Z
Electronic contribution:     -6.49146       0.00798      -3.58355
Nuclear contribution   :      6.27875      -0.00784       4.41851
                        -----------------------------------------
Total Dipole Moment    :     -0.21271       0.00014       0.83496
                        -----------------------------------------
Magnitude (a.u.)       :      0.86163
Magnitude (Debye)      :      2.19008

Rotational constants in cm-1:     0.012934     0.011295     0.007075
Rotational constants in MHz :   387.761121   338.628638   212.103272

                             ****ORCA TERMINATED NORMALLY****
TOTAL RUN TIME: 0 days 3 hours 37 minutes 14 seconds 566 msec
