                         Program Version 5.0.2 -  RELEASE  -
|  1> %maxcore 3200
|  2> %pal
|  3>  nprocs= 8
|  4> end
|  5> ! RI-wB2PLYP def2-TZVP def2/J def2-TZVP/C RIJCOSX CPCM TightSCF
|  6> %TDDFT DCORR 1
|  7>    NROOTS   30
|  8>
|  9>    TDA      FALSE
| 10> END
| 11>
| 12> %CPCM
| 13>    SMD          TRUE
| 14>    SMDsolvent   "N,N-DIMETHYLACETAMIDE"
| 15> END
| 16>
| 17>
| 18> * xyz 0 1
| 19> C                  -1.98589800   -3.51504200    0.40705300
| 20> C                  -2.31200200   -2.48851100   -0.46337400
| 21> C                  -1.54247500   -1.33041800   -0.48678600
| 22> C                  -0.44503300   -1.19499400    0.36625500
| 23> C                  -0.16507700   -2.20792500    1.27822400
| 24> C                  -0.92043200   -3.36871700    1.28559100
| 25> C                  -0.44145600    1.19547900    0.36664600
| 26> C                  -1.53847900    1.33474300   -0.48627200
| 27> C                  -2.30428000    2.49531300   -0.46230800
| 28> H                  -3.15501300    2.58856900   -1.12552100
| 29> C                  -1.97479200    3.52043000    0.40852000
| 30> C                  -0.90964500    3.37037900    1.28685000
| 31> C                  -0.15806600    2.20718300    1.27889800
| 32> H                  -3.16304600   -2.57866500   -1.12662700
| 33> H                   0.65940400   -2.08237300    1.96828700
| 34> H                  -0.68155100   -4.15715700    1.98746100
| 35> H                  -2.56561700    4.42717700    0.41647300
| 36> H                  -0.66811400    4.15786700    1.98887300
| 37> C                   1.69426700   -0.00255600    0.03223200
| 38> C                   2.40135600    1.19602700   -0.14061700
| 39> C                   3.75393700    1.18574800   -0.43602500
| 40> C                   3.75216800   -1.19487200   -0.43319400
| 41> C                   4.45068100   -0.00525400   -0.57565400
| 42> H                   4.26428400    2.13287000   -0.56325800
| 43> H                   4.26120800   -2.14300500   -0.55808500
| 44> H                   1.89362500    2.14573600   -0.06318200
| 45> H                   5.50890500   -0.00630200   -0.80086200
| 46> H                  -2.57953900   -4.41995300    0.41461000
| 47> N                   0.31932000   -0.00088800    0.31069100
| 48> H                   0.66632000    2.07877000    1.96855300
| 49> S                  -1.94327000    0.00297700   -1.57207900
| 50> C                   2.39952400   -1.20260300   -0.13774400
| 51> H                   1.89042200   -2.15141900   -0.05805500
| 52> *
| 53>
| 54>
| 55>                          ****END OF INPUT****

CARTESIAN COORDINATES (ANGSTROEM)
---------------------------------
  C     -1.985898   -3.515042    0.407053
  C     -2.312002   -2.488511   -0.463374
  C     -1.542475   -1.330418   -0.486786
  C     -0.445033   -1.194994    0.366255
  C     -0.165077   -2.207925    1.278224
  C     -0.920432   -3.368717    1.285591
  C     -0.441456    1.195479    0.366646
  C     -1.538479    1.334743   -0.486272
  C     -2.304280    2.495313   -0.462308
  H     -3.155013    2.588569   -1.125521
  C     -1.974792    3.520430    0.408520
  C     -0.909645    3.370379    1.286850
  C     -0.158066    2.207183    1.278898
  H     -3.163046   -2.578665   -1.126627
  H      0.659404   -2.082373    1.968287
  H     -0.681551   -4.157157    1.987461
  H     -2.565617    4.427177    0.416473
  H     -0.668114    4.157867    1.988873
  C      1.694267   -0.002556    0.032232
  C      2.401356    1.196027   -0.140617
  C      3.753937    1.185748   -0.436025
  C      3.752168   -1.194872   -0.433194
  C      4.450681   -0.005254   -0.575654
  H      4.264284    2.132870   -0.563258
  H      4.261208   -2.143005   -0.558085
  H      1.893625    2.145736   -0.063182
  H      5.508905   -0.006302   -0.800862
  H     -2.579539   -4.419953    0.414610
  N      0.319320   -0.000888    0.310691
  H      0.666320    2.078770    1.968553
  S     -1.943270    0.002977   -1.572079
  C      2.399524   -1.202603   -0.137744
  H      1.890422   -2.151419   -0.058055

 Total Charge           Charge          ....    0
 Multiplicity           Mult            ....    1
 Number of Electrons    NEL             ....  144
 Basis Dimension        Dim             ....  704

ORBITAL ENERGIES
----------------

  NO   OCC          E(Eh)            E(eV)
   0   2.0000     -90.239768     -2455.5489
   1   2.0000     -14.942270      -406.5998
   2   2.0000     -10.743084      -292.3342
   3   2.0000     -10.739187      -292.2281
   4   2.0000     -10.739159      -292.2274
   5   2.0000     -10.727451      -291.9088
   6   2.0000     -10.727439      -291.9085
   7   2.0000     -10.696582      -291.0688
   8   2.0000     -10.696581      -291.0688
   9   2.0000     -10.693153      -290.9755
  10   2.0000     -10.693139      -290.9751
  11   2.0000     -10.691330      -290.9259
  12   2.0000     -10.691326      -290.9258
  13   2.0000     -10.690306      -290.8980
  14   2.0000     -10.690306      -290.8980
  15   2.0000     -10.686751      -290.8013
  16   2.0000     -10.686733      -290.8008
  17   2.0000     -10.680035      -290.6185
  18   2.0000     -10.680013      -290.6179
  19   2.0000     -10.675063      -290.4832
  20   2.0000      -8.450702      -229.9553
  21   2.0000      -6.297389      -171.3607
  22   2.0000      -6.294832      -171.2911
  23   2.0000      -6.291762      -171.2075
  24   2.0000      -1.197491       -32.5854
  25   2.0000      -1.082009       -29.4430
  26   2.0000      -1.079171       -29.3657
  27   2.0000      -1.051510       -28.6130
  28   2.0000      -1.007500       -27.4155
  29   2.0000      -0.962162       -26.1818
  30   2.0000      -0.951927       -25.9032
  31   2.0000      -0.949574       -25.8392
  32   2.0000      -0.936814       -25.4920
  33   2.0000      -0.914268       -24.8785
  34   2.0000      -0.868114       -23.6226
  35   2.0000      -0.807083       -21.9618
  36   2.0000      -0.805348       -21.9146
  37   2.0000      -0.775806       -21.1108
  38   2.0000      -0.765467       -20.8294
  39   2.0000      -0.762915       -20.7600
  40   2.0000      -0.726600       -19.7718
  41   2.0000      -0.691645       -18.8206
  42   2.0000      -0.691383       -18.8135
  43   2.0000      -0.648084       -17.6353
  44   2.0000      -0.629907       -17.1407
  45   2.0000      -0.628955       -17.1147
  46   2.0000      -0.612942       -16.6790
  47   2.0000      -0.607260       -16.5244
  48   2.0000      -0.591032       -16.0828
  49   2.0000      -0.584196       -15.8968
  50   2.0000      -0.582134       -15.8407
  51   2.0000      -0.566623       -15.4186
  52   2.0000      -0.559441       -15.2232
  53   2.0000      -0.555044       -15.1035
  54   2.0000      -0.545070       -14.8321
  55   2.0000      -0.528885       -14.3917
  56   2.0000      -0.511229       -13.9113
  57   2.0000      -0.507900       -13.8207
  58   2.0000      -0.505512       -13.7557
  59   2.0000      -0.490508       -13.3474
  60   2.0000      -0.484015       -13.1707
  61   2.0000      -0.472717       -12.8633
  62   2.0000      -0.461382       -12.5548
  63   2.0000      -0.460846       -12.5403
  64   2.0000      -0.440770       -11.9940
  65   2.0000      -0.415947       -11.3185
  66   2.0000      -0.362564        -9.8659
  67   2.0000      -0.360808        -9.8181
  68   2.0000      -0.352540        -9.5931
  69   2.0000      -0.349085        -9.4991
  70   2.0000      -0.316846        -8.6218
  71   2.0000      -0.287887        -7.8338
  72   0.0000       0.067021         1.8237
  73   0.0000       0.073373         1.9966
  74   0.0000       0.075073         2.0428
  75   0.0000       0.076135         2.0717
  76   0.0000       0.098284         2.6744

MULLIKEN ATOMIC CHARGES
-----------------------
   0 C :   -0.207137
   1 C :   -0.156981
   2 C :   -0.110429
   3 C :    0.233354
   4 C :   -0.365052
   5 C :   -0.111514
   6 C :    0.233735
   7 C :   -0.111210
   8 C :   -0.156291
   9 H :    0.183154
  10 C :   -0.207465
  11 C :   -0.111488
  12 C :   -0.364425
  13 H :    0.182948
  14 H :    0.204153
  15 H :    0.183168
  16 H :    0.183093
  17 H :    0.183146
  18 C :    0.297383
  19 C :   -0.357799
  20 C :   -0.142781
  21 C :   -0.142335
  22 C :   -0.254210
  23 H :    0.177850
  24 H :    0.177894
  25 H :    0.200030
  26 H :    0.174853
  27 H :    0.183042
  28 N :   -0.045140
  29 H :    0.203875
  30 S :    0.000577
  31 C :   -0.358162
  32 H :    0.200163
Sum of atomic charges:    0.0000000

LOEWDIN ATOMIC CHARGES
----------------------
   0 C :   -0.145867
   1 C :   -0.143913
   2 C :   -0.329420
   3 C :   -0.168461
   4 C :   -0.108318
   5 C :   -0.142108
   6 C :   -0.168520
   7 C :   -0.329431
   8 C :   -0.143905
   9 H :    0.158279
  10 C :   -0.145869
  11 C :   -0.142120
  12 C :   -0.108286
  13 H :    0.158279
  14 H :    0.165371
  15 H :    0.157753
  16 H :    0.157353
  17 H :    0.157750
  18 C :   -0.157554
  19 C :   -0.137536
  20 C :   -0.149696
  21 C :   -0.149687
  22 C :   -0.181836
  23 H :    0.156042
  24 H :    0.156038
  25 H :    0.161261
  26 H :    0.150603
  27 H :    0.157355
  28 N :    0.265637
  29 H :    0.165378
  30 S :    0.661751
  31 C :   -0.137557
  32 H :    0.161233

  Mayer bond orders larger than 0.100000
B(  0-C ,  1-C ) :   1.4241 B(  0-C ,  5-C ) :   1.3882 B(  0-C , 27-H ) :   0.9730
B(  1-C ,  2-C ) :   1.3471 B(  1-C , 13-H ) :   0.9631 B(  2-C ,  3-C ) :   1.3238
B(  2-C , 30-S ) :   1.0971 B(  3-C ,  4-C ) :   1.3572 B(  3-C , 28-N ) :   0.9169
B(  4-C ,  5-C ) :   1.4206 B(  4-C , 14-H ) :   0.9700 B(  5-C , 15-H ) :   0.9713
B(  6-C ,  7-C ) :   1.3227 B(  6-C , 12-C ) :   1.3571 B(  6-C , 28-N ) :   0.9168
B(  7-C ,  8-C ) :   1.3470 B(  7-C , 30-S ) :   1.0968 B(  8-C ,  9-H ) :   0.9627
B(  8-C , 10-C ) :   1.4248 B( 10-C , 11-C ) :   1.3880 B( 10-C , 16-H ) :   0.9730
B( 11-C , 12-C ) :   1.4201 B( 11-C , 17-H ) :   0.9714 B( 12-C , 29-H ) :   0.9703
B( 18-C , 19-C ) :   1.3316 B( 18-C , 28-N ) :   1.1210 B( 18-C , 31-C ) :   1.3320
B( 19-C , 20-C ) :   1.4549 B( 19-C , 25-H ) :   0.9538 B( 20-C , 22-C ) :   1.3992
B( 20-C , 23-H ) :   0.9718 B( 21-C , 22-C ) :   1.3994 B( 21-C , 24-H ) :   0.9715
B( 21-C , 31-C ) :   1.4552 B( 22-C , 26-H ) :   0.9778 B( 31-C , 32-H ) :   0.9535

MP2 TOTAL ENERGY:    -1145.228105492 Eh

-----------------------------------------------------------------------------
         ABSORPTION SPECTRUM VIA TRANSITION ELECTRIC DIPOLE MOMENTS
-----------------------------------------------------------------------------
State   Energy    Wavelength  fosc         T2        TX        TY        TZ
        (cm-1)      (nm)                 (au**2)    (au)      (au)      (au)
-----------------------------------------------------------------------------
   1   37698.3    265.3   0.287066559   2.50690   1.56677   0.01019  -0.22808
   2   38093.3    262.5   0.023962968   0.20709  -0.04582   0.45273   0.00549
   3   38700.8    258.4   0.001927117   0.01639   0.00571   0.12790   0.00117
   4   39042.4    256.1   0.060693590   0.51178  -0.68137   0.00207  -0.21795
   5   40481.0    247.0   0.006798966   0.05529  -0.00003   0.23514  -0.00034
   6   44606.8    224.2   0.224925930   1.66002  -0.00286   1.28839   0.00736
   7   45480.8    219.9   0.112858547   0.81692  -0.54964  -0.01233   0.71740
   8   45597.3    219.3   0.294198570   2.12411   1.05137  -0.00696   1.00930
   9   47424.5    210.9   0.635107185   4.40879  -0.00635  -2.09970  -0.00330
  10   47742.8    209.5   0.222339328   1.53315  -1.23727   0.00267  -0.04796
  11   48183.7    207.5   0.053882731   0.36815   0.00060   0.60675  -0.00046
  12   52197.2    191.6   0.829119414   5.22932   2.23254  -0.00165  -0.49507
  13   52364.3    191.0   1.058674743   6.65584   0.00425   2.57989   0.00038
  14   53564.6    186.7   0.022283485   0.13696  -0.10140   0.00537  -0.35587
  15   52548.6    190.3   0.088633208   0.55528   0.00136   0.74517   0.00056
  16   52027.7    192.2   0.035365521   0.22378   0.01302  -0.47270   0.01302
  17   52293.0    191.2   0.237132324   1.49287  -0.79070  -0.00356  -0.93148
  18   56576.1    176.8   0.038124828   0.22185   0.38620  -0.00284   0.26960
  19   56607.2    176.7   0.204680026   1.19036  -0.37700  -0.00081  -1.02383
  20   55660.4    179.7   0.235560444   1.39326  -0.00292  -1.18036   0.00040
  21   57260.2    174.6   0.176059379   1.01224  -0.66604   0.00119  -0.75407
  22   56245.1    177.8   0.000161619   0.00095   0.00066   0.03070   0.00179
  23   57092.4    175.2   0.020071270   0.11574  -0.00189  -0.34019   0.00096
  24   59588.9    167.8   0.084426332   0.46643   0.68231  -0.00301   0.02971
  25   59404.5    168.3   0.189442192   1.04986   0.92065   0.00018   0.44973
  26   58290.4    171.6   0.071468193   0.40364   0.00006  -0.63532   0.00204
  27   61210.4    163.4   0.005282871   0.02841   0.16702  -0.00448  -0.02231
  28   61911.9    161.5   0.014992345   0.07972   0.06472  -0.00009  -0.27483
  29   61827.2    161.7   0.039548636   0.21059   0.21396  -0.00239  -0.40596
  30   62608.7    159.7   0.002344305   0.01233  -0.00460  -0.11067   0.00766

FINAL SINGLE POINT ENERGY     -1144.121110031039

DIPOLE MOMENT
-------------
                                X             Y             Z
Electronic contribution:     -6.48538       0.00799      -3.57854
Nuclear contribution   :      6.27875      -0.00784       4.41851
                        -----------------------------------------
Total Dipole Moment    :     -0.20663       0.00015       0.83997
                        -----------------------------------------
Magnitude (a.u.)       :      0.86502
Magnitude (Debye)      :      2.19870

Rotational constants in cm-1:     0.012934     0.011295     0.007075
Rotational constants in MHz :   387.761121   338.628638   212.103272

                             ****ORCA TERMINATED NORMALLY****
TOTAL RUN TIME: 0 days 0 hours 22 minutes 46 seconds 806 msec
