 Gaussian 09, Revision E.01,
 Gaussian 09:  ES64L-G09RevE.01 30-Nov-2015

 ----------------------------------------------------------------------
 #p m06/def2TZVP td=(NStates=50) int=ultrafine scrf=(SMD,solvent=Aceton
 itrile)
 ----------------------------------------------------------------------

 -----
 Title
 -----
 Symbolic Z-matrix:
 Charge =  0 Multiplicity = 1

                         Standard orientation:
 ---------------------------------------------------------------------
 Center     Atomic      Atomic             Coordinates (Angstroms)
 Number     Number       Type             X           Y           Z
 ---------------------------------------------------------------------
      1          6           0        0.176702   -1.152969    0.383353
      2          6           0       -0.511981    0.004848   -0.006487
      3          6           0        0.217156    1.140151   -0.387680
      4          6           0        1.616694    1.097133   -0.406058
      5          6           0        2.305864   -0.041319    0.006700
      6          6           0        1.576501   -1.156763    0.412954
      7          6           0        2.345819    2.197509   -0.938862
      8          6           0        2.264763   -2.280669    0.950530
      9          7           0        2.940276    3.076580   -1.381651
     10          7           0        2.825758   -3.180404    1.395477
     11          7           0       -0.508970   -2.308708    0.772223
     12          6           0       -1.480766   -2.390184    1.773738
     13          6           0       -0.518589   -3.514762    0.056549
     14          6           0       -1.786194   -1.481638    2.771913
     15          6           0       -2.124018   -3.633522    1.683440
     16          6           0        0.236824   -3.895255   -1.040796
     17          6           0       -1.511272   -4.348305    0.594017
     18          6           0       -2.800807   -1.813713    3.652120
     19          1           0       -1.249868   -0.545374    2.867836
     20          6           0       -3.134995   -3.951166    2.581888
     21          6           0       -0.012606   -5.142108   -1.587480
     22          1           0        0.988176   -3.244343   -1.474740
     23          6           0       -1.743656   -5.595982    0.029441
     24          6           0       -3.476979   -3.030460    3.554604
     25          1           0       -3.067444   -1.114321    4.436777
     26          1           0       -3.639647   -4.909294    2.519150
     27          6           0       -0.988945   -5.987178   -1.059915
     28          1           0        0.565656   -5.465130   -2.445442
     29          1           0       -2.512014   -6.243928    0.437475
     30          1           0       -4.266258   -3.259994    4.260849
     31          1           0       -1.156356   -6.957101   -1.513311
     32          7           0       -1.913502    0.025742   -0.014361
     33          6           0       -2.728045    0.829138    0.787117
     34          6           0       -2.737132   -0.769311   -0.814541
     35          6           0       -2.376224    1.734851    1.775155
     36          6           0       -4.071725    0.546025    0.494759
     37          6           0       -2.394858   -1.673151   -1.807688
     38          6           0       -4.077422   -0.475726   -0.518415
     39          6           0       -3.397351    2.388301    2.441725
     40          1           0       -1.340763    1.919212    2.035624
     41          6           0       -5.082353    1.210001    1.179971
     42          6           0       -3.422545   -2.318221   -2.472169
     43          1           0       -1.361428   -1.861504   -2.073149
     44          6           0       -5.094971   -1.131729   -1.201023
     45          6           0       -4.738056    2.136674    2.145178
     46          1           0       -3.146308    3.105043    3.215721
     47          1           0       -6.122363    0.994382    0.959463
     48          6           0       -4.760453   -2.059091   -2.169176
     49          1           0       -3.179260   -3.033372   -3.250054
     50          1           0       -6.132780   -0.909215   -0.977001
     51          1           0       -5.512919    2.666212    2.686993
     52          1           0       -5.540837   -2.582349   -2.709136
     53          7           0       -0.424890    2.321151   -0.771483
     54          6           0       -0.378885    3.523706   -0.052205
     55          6           0       -1.393226    2.449172   -1.770988
     56          6           0        0.394955    3.863186    1.045504
     57          6           0       -1.333240    4.403327   -0.584984
     58          6           0       -1.741649    1.556825   -2.769513
     59          6           0       -1.978662    3.720598   -1.676363
     60          6           0        0.202509    5.116816    1.599598
     61          1           0        1.117091    3.175232    1.472092
     62          6           0       -1.509020    5.656629   -0.012542
     63          6           0       -2.743457    1.935811   -3.645402
     64          1           0       -1.247273    0.598079   -2.868542
     65          6           0       -2.976436    4.085386   -2.571744
     66          6           0       -0.736299    6.007143    1.078253
     67          1           0        0.795853    5.409376    2.458209
     68          1           0       -2.248296    6.340664   -0.415341
     69          6           0       -3.363246    3.181969   -3.543917
     70          1           0       -3.044533    1.250448   -4.430075
     71          1           0       -3.437208    5.065151   -2.506077
     72          1           0       -0.860024    6.980936    1.537310
     73          1           0       -4.144130    3.447634   -4.246820
     74          7           0        3.702436   -0.063554    0.013611
     75          6           0        4.511286   -0.872107   -0.789575
     76          6           0        4.526745    0.739340    0.806108
     77          6           0        4.147409   -1.801125   -1.750659
     78          6           0        5.855243   -0.582270   -0.506472
     79          6           0        4.180047    1.672049    1.769917
     80          6           0        5.864911    0.439051    0.508578
     81          6           0        5.166176   -2.455144   -2.420884
     82          1           0        3.107355   -2.010640   -1.976429
     83          6           0        6.860202   -1.250478   -1.194464
     84          6           0        5.210688    2.319980    2.427632
     85          1           0        3.143999    1.887912    2.007029
     86          6           0        6.882242    1.100763    1.184571
     87          6           0        6.507820   -2.187364   -2.147060
     88          1           0        4.912793   -3.189591   -3.176721
     89          1           0        7.902072   -1.032598   -0.985272
     90          6           0        6.547288    2.041964    2.139326
     91          1           0        4.970986    3.057564    3.184837
     92          1           0        7.920174    0.875350    0.964103
     93          1           0        7.278896   -2.718579   -2.692663
     94          1           0        7.328219    2.568679    2.675152
 ---------------------------------------------------------------------

 SCF Done:  E(RM06) =  -2480.87161647     A.U. after   19 cycles

 Excitation energies and oscillator strengths:

 Excited State   1:      Singlet-A      2.8285 eV  438.33 nm  f=0.0851  <S**2>=0.000
     205 -> 206        0.69488
 This state for optimization and/or second-order correction.
 Total Energy, E(TD-HF/TD-KS) =  -2480.76767000
 Copying the excited state density for this state as the 1-particle RhoCI density.

 Excited State   2:      Singlet-A      3.0581 eV  405.43 nm  f=0.0555  <S**2>=0.000
     201 -> 206        0.26645
     204 -> 206        0.63441

 Excited State   3:      Singlet-A      3.0758 eV  403.09 nm  f=0.0369  <S**2>=0.000
     199 -> 206        0.12089
     202 -> 206        0.33832
     203 -> 206        0.59217

 Excited State   4:      Singlet-A      3.1323 eV  395.83 nm  f=0.0053  <S**2>=0.000
     202 -> 206        0.60926
     203 -> 206       -0.35062

 Excited State   5:      Singlet-A      3.2016 eV  387.26 nm  f=0.1460  <S**2>=0.000
     202 -> 207        0.18128
     203 -> 207       -0.16478
     205 -> 207        0.65278

 Excited State   6:      Singlet-A      3.2538 eV  381.04 nm  f=0.0261  <S**2>=0.000
     201 -> 206        0.63876
     204 -> 206       -0.27455

 Excited State   7:      Singlet-A      3.3695 eV  367.96 nm  f=0.0004  <S**2>=0.000
     199 -> 206        0.69028
     203 -> 206       -0.10565

 Excited State   8:      Singlet-A      3.3779 eV  367.05 nm  f=0.0002  <S**2>=0.000
     200 -> 206        0.68875
     201 -> 206       -0.10631

 Excited State   9:      Singlet-A      3.4141 eV  363.15 nm  f=0.0072  <S**2>=0.000
     200 -> 206        0.11855
     202 -> 207        0.47688
     203 -> 207       -0.42389
     205 -> 207       -0.23701

 Excited State  10:      Singlet-A      3.4603 eV  358.30 nm  f=0.0019  <S**2>=0.000
     198 -> 206        0.69488

 Excited State  11:      Singlet-A      3.4800 eV  356.27 nm  f=0.0642  <S**2>=0.000
     201 -> 207        0.26788
     204 -> 207        0.63901

 Excited State  12:      Singlet-A      3.5296 eV  351.27 nm  f=0.0446  <S**2>=0.000
     199 -> 207        0.11362
     202 -> 207        0.47105
     203 -> 207        0.50688

 Excited State  13:      Singlet-A      3.6348 eV  341.10 nm  f=0.0001  <S**2>=0.000
     200 -> 207        0.65053
     201 -> 207       -0.25694

 Excited State  14:      Singlet-A      3.6764 eV  337.24 nm  f=0.0209  <S**2>=0.000
     200 -> 207        0.26643
     201 -> 207        0.59126
     204 -> 207       -0.26843

 Excited State  15:      Singlet-A      3.8128 eV  325.18 nm  f=0.0174  <S**2>=0.000
     199 -> 207        0.68960
     203 -> 207       -0.13993

 Excited State  16:      Singlet-A      3.8760 eV  319.87 nm  f=0.0032  <S**2>=0.000
     198 -> 207        0.70074

 Excited State  17:      Singlet-A      4.0877 eV  303.31 nm  f=0.0243  <S**2>=0.000
     199 -> 211       -0.10743
     203 -> 210        0.14985
     203 -> 211       -0.14253
     205 -> 208       -0.23544
     205 -> 209       -0.19175
     205 -> 210        0.43026
     205 -> 211       -0.32679

 Excited State  18:      Singlet-A      4.1434 eV  299.23 nm  f=0.0480  <S**2>=0.000
     201 -> 208       -0.13444
     201 -> 211        0.10670
     202 -> 209       -0.20402
     204 -> 208       -0.21421
     204 -> 211        0.15838
     205 -> 208        0.18442
     205 -> 209        0.43033
     205 -> 210        0.17539
     205 -> 211       -0.15387

 Excited State  19:      Singlet-A      4.1506 eV  298.71 nm  f=0.0752  <S**2>=0.000
     201 -> 209       -0.16261
     202 -> 210        0.18330
     202 -> 211        0.16117
     203 -> 208       -0.13854
     204 -> 209       -0.26335
     204 -> 210       -0.13391
     205 -> 208        0.35508
     205 -> 209       -0.20735
     205 -> 211       -0.25496

 Excited State  20:      Singlet-A      4.1751 eV  296.96 nm  f=0.0290  <S**2>=0.000
     200 -> 213       -0.17469
     202 -> 208        0.31227
     202 -> 209       -0.11887
     202 -> 210        0.17822
     203 -> 208       -0.20366
     203 -> 209        0.10782
     203 -> 210       -0.22139
     203 -> 211       -0.12124
     205 -> 208        0.14734
     205 -> 210        0.23989
     205 -> 211        0.26821

 Excited State  21:      Singlet-A      4.1990 eV  295.27 nm  f=0.0003  <S**2>=0.000
     197 -> 206        0.68901

 Excited State  22:      Singlet-A      4.2958 eV  288.62 nm  f=0.0469  <S**2>=0.000
     196 -> 206        0.58618
     201 -> 208       -0.13903
     201 -> 211        0.10747
     202 -> 209       -0.11589
     203 -> 209       -0.20710
     205 -> 209       -0.11395

 Excited State  23:      Singlet-A      4.3336 eV  286.10 nm  f=0.0829  <S**2>=0.000
     196 -> 206       -0.20203
     198 -> 210        0.11165
     203 -> 209       -0.10297
     204 -> 209        0.16324
     204 -> 210       -0.33241
     204 -> 211        0.41001
     205 -> 209       -0.10211
     205 -> 212       -0.13774

 Excited State  24:      Singlet-A      4.3624 eV  284.21 nm  f=0.0241  <S**2>=0.000
     194 -> 206       -0.10146
     197 -> 206        0.11578
     201 -> 209        0.29426
     201 -> 210        0.10624
     202 -> 208        0.14598
     202 -> 211       -0.16882
     203 -> 208        0.27441
     203 -> 210       -0.11605
     203 -> 211       -0.26689
     205 -> 208        0.21616
     205 -> 210       -0.10652
     205 -> 211       -0.20879

 Excited State  25:      Singlet-A      4.3713 eV  283.63 nm  f=0.0132  <S**2>=0.000
     196 -> 206        0.29496
     201 -> 208        0.14688
     201 -> 211       -0.16783
     202 -> 209        0.18376
     203 -> 209        0.30891
     203 -> 210        0.10379
     204 -> 208        0.13102
     204 -> 210       -0.19854
     204 -> 211        0.11359
     205 -> 209        0.27993
     205 -> 210        0.12027

 Excited State  26:      Singlet-A      4.4147 eV  280.84 nm  f=0.0085  <S**2>=0.000
     195 -> 206        0.70406

 Excited State  27:      Singlet-A      4.4410 eV  279.18 nm  f=0.0074  <S**2>=0.000
     194 -> 206        0.18577
     199 -> 208        0.19969
     199 -> 210       -0.12561
     199 -> 211       -0.13162
     201 -> 209       -0.14208
     202 -> 210       -0.14911
     203 -> 210       -0.10970
     203 -> 211        0.11095
     204 -> 209        0.37389
     204 -> 210        0.15222
     205 -> 208        0.17308
     205 -> 211       -0.26779

 Excited State  28:      Singlet-A      4.4465 eV  278.83 nm  f=0.1072  <S**2>=0.000
     195 -> 207        0.13243
     200 -> 208        0.39905
     200 -> 209       -0.17263
     200 -> 210        0.33255
     200 -> 211        0.22435
     201 -> 208       -0.13379
     202 -> 213        0.13004
     203 -> 213       -0.10890

 Excited State  29:      Singlet-A      4.4689 eV  277.44 nm  f=0.2418  <S**2>=0.000
     196 -> 206       -0.13524
     199 -> 209        0.25914
     200 -> 208       -0.14105
     200 -> 210       -0.11170
     201 -> 211        0.21323
     204 -> 208        0.34661
     204 -> 210       -0.21341
     204 -> 211       -0.20051
     205 -> 209        0.20226

 Excited State  30:      Singlet-A      4.4829 eV  276.57 nm  f=0.0006  <S**2>=0.000
     194 -> 206        0.34469
     199 -> 211       -0.11744
     202 -> 210        0.22498
     202 -> 211       -0.23719
     203 -> 208       -0.11777
     203 -> 209       -0.10099
     203 -> 210        0.27366
     203 -> 211       -0.25742
     204 -> 209        0.12235
     205 -> 208        0.10630
     205 -> 210       -0.15807

 Excited State  31:      Singlet-A      4.5128 eV  274.74 nm  f=0.0346  <S**2>=0.000
     194 -> 206        0.56486
     201 -> 209        0.11798
     202 -> 210       -0.10108
     203 -> 208        0.10279
     203 -> 210       -0.15851
     204 -> 209       -0.24120

 Excited State  32:      Singlet-A      4.5982 eV  269.64 nm  f=0.0242  <S**2>=0.000
     198 -> 208       -0.12334
     198 -> 210        0.11950
     201 -> 208       -0.21446
     201 -> 209       -0.16053
     201 -> 210        0.41823
     201 -> 211       -0.32143
     204 -> 208        0.10251
     204 -> 211       -0.25212

 Excited State  33:      Singlet-A      4.6098 eV  268.96 nm  f=0.0004  <S**2>=0.000
     202 -> 208       -0.22538
     202 -> 210       -0.17424
     202 -> 211       -0.11586
     203 -> 208        0.14425
     203 -> 210        0.12400
     205 -> 208        0.37176
     205 -> 209       -0.16380
     205 -> 210        0.33183
     205 -> 211        0.25454

 Excited State  34:      Singlet-A      4.6244 eV  268.11 nm  f=0.0026  <S**2>=0.000
     197 -> 207        0.67899

 Excited State  35:      Singlet-A      4.6524 eV  266.49 nm  f=0.0359  <S**2>=0.000
     198 -> 209        0.42311
     198 -> 210        0.16853
     199 -> 208        0.19582
     199 -> 211       -0.28381
     202 -> 208        0.10650
     204 -> 209       -0.26909
     204 -> 210       -0.11517

 Excited State  36:      Singlet-A      4.6630 eV  265.89 nm  f=0.0501  <S**2>=0.000
     193 -> 206        0.11113
     195 -> 207       -0.10468
     198 -> 208        0.29746
     198 -> 210       -0.15387
     198 -> 211       -0.23331
     199 -> 209        0.29757
     201 -> 210        0.11785
     201 -> 211       -0.19008
     202 -> 209        0.15948
     204 -> 208       -0.21891
     204 -> 211        0.16917

 Excited State  37:      Singlet-A      4.6808 eV  264.88 nm  f=0.0592  <S**2>=0.000
     188 -> 206       -0.16835
     189 -> 207       -0.12772
     192 -> 207       -0.18942
     193 -> 206       -0.37155
     195 -> 207        0.45242

 Excited State  38:      Singlet-A      4.6949 eV  264.08 nm  f=0.0065  <S**2>=0.000
     195 -> 207        0.13214
     199 -> 208       -0.21891
     199 -> 209       -0.13473
     199 -> 210        0.43300
     199 -> 211       -0.33229
     203 -> 210       -0.15189
     203 -> 211        0.20347

 Excited State  39:      Singlet-A      4.6958 eV  264.03 nm  f=0.0141  <S**2>=0.000
     188 -> 206        0.17592
     189 -> 207        0.12350
     192 -> 207        0.18643
     193 -> 206        0.35870
     195 -> 207        0.48357
     199 -> 210       -0.10444

 Excited State  40:      Singlet-A      4.7225 eV  262.54 nm  f=0.0369  <S**2>=0.000
     198 -> 208        0.11132
     198 -> 209        0.14570
     198 -> 210       -0.36494
     198 -> 211        0.40551
     201 -> 208       -0.11648
     201 -> 210        0.12766
     203 -> 209        0.19879
     204 -> 210       -0.15580
     205 -> 212        0.11743

 Excited State  41:      Singlet-A      4.7434 eV  261.38 nm  f=0.0022  <S**2>=0.000
     198 -> 208        0.11497
     201 -> 208        0.22075
     203 -> 209       -0.20400
     204 -> 208        0.41124
     204 -> 209       -0.13575
     204 -> 210        0.29339
     204 -> 211        0.24316

 Excited State  42:      Singlet-A      4.7529 eV  260.86 nm  f=0.0028  <S**2>=0.000
     198 -> 210        0.11145
     199 -> 209        0.14185
     201 -> 208       -0.12718
     201 -> 211        0.22855
     202 -> 209       -0.15154
     203 -> 208        0.18238
     203 -> 209        0.36934
     203 -> 211       -0.11511
     204 -> 208        0.13891
     204 -> 209       -0.14821
     204 -> 210        0.21802
     204 -> 211        0.17162
     205 -> 209       -0.12150

 Excited State  43:      Singlet-A      4.7543 eV  260.78 nm  f=0.0008  <S**2>=0.000
     196 -> 207       -0.12890
     199 -> 211       -0.11372
     201 -> 209       -0.30356
     201 -> 210       -0.14619
     202 -> 210        0.14086
     203 -> 208        0.34976
     203 -> 209       -0.15608
     203 -> 210       -0.22093
     203 -> 211       -0.26092
     205 -> 208       -0.10251
     205 -> 211        0.10040

 Excited State  44:      Singlet-A      4.7645 eV  260.22 nm  f=0.0001  <S**2>=0.000
     196 -> 207        0.68310

 Excited State  45:      Singlet-A      4.8158 eV  257.45 nm  f=0.0006  <S**2>=0.000
     201 -> 209       -0.12343
     202 -> 208        0.44921
     202 -> 209       -0.12606
     203 -> 208        0.24056
     203 -> 209       -0.14477
     203 -> 210        0.33178
     203 -> 211        0.23460

 Excited State  46:      Singlet-A      4.8236 eV  257.03 nm  f=0.0006  <S**2>=0.000
     198 -> 208       -0.12285
     198 -> 211        0.13538
     201 -> 208       -0.26513
     201 -> 211        0.22771
     202 -> 208        0.11348
     202 -> 209        0.50355
     202 -> 210        0.16188
     204 -> 211        0.12046

 Excited State  47:      Singlet-A      4.8287 eV  256.76 nm  f=0.0014  <S**2>=0.000
     198 -> 209        0.14606
     201 -> 209        0.26413
     201 -> 210        0.10691
     202 -> 208       -0.20839
     202 -> 210        0.40223
     202 -> 211        0.25825
     203 -> 208        0.23727
     203 -> 211        0.15392

 Excited State  48:      Singlet-A      4.8540 eV  255.42 nm  f=0.0002  <S**2>=0.000
     199 -> 211       -0.10015
     202 -> 210       -0.25989
     202 -> 211        0.50547
     203 -> 210        0.19520
     203 -> 211       -0.25193
     205 -> 210       -0.10196
     205 -> 211        0.11313

 Excited State  49:      Singlet-A      4.8891 eV  253.59 nm  f=0.0006  <S**2>=0.000
     200 -> 208        0.10353
     201 -> 208        0.41404
     201 -> 209       -0.18250
     201 -> 210        0.37260
     201 -> 211        0.29398
     204 -> 208       -0.13437
     204 -> 210       -0.10316

 Excited State  50:      Singlet-A      4.9153 eV  252.24 nm  f=0.0242  <S**2>=0.000
     194 -> 207        0.65702
     205 -> 212       -0.18296

 The electronic state is 1-A.
 Alpha  occ. eigenvalues --  -14.45460 -14.45425 -14.45401 -14.45038 -14.40692
 Alpha  occ. eigenvalues --  -14.40692 -10.34066 -10.33954 -10.33951 -10.32736
 Alpha  occ. eigenvalues --  -10.31205 -10.31201 -10.30091 -10.30089 -10.28810
 Alpha  occ. eigenvalues --  -10.28803 -10.28794 -10.28772 -10.28627 -10.28616
 Alpha  occ. eigenvalues --  -10.28531 -10.28510 -10.24865 -10.24852 -10.24847
 Alpha  occ. eigenvalues --  -10.24821 -10.24807 -10.24803 -10.24719 -10.24675
 Alpha  occ. eigenvalues --  -10.24507 -10.24499 -10.24467 -10.24454 -10.24361
 Alpha  occ. eigenvalues --  -10.24353 -10.24350 -10.24349 -10.24328 -10.24325
 Alpha  occ. eigenvalues --  -10.24296 -10.24289 -10.24287 -10.24286 -10.24265
 Alpha  occ. eigenvalues --  -10.24258 -10.24254 -10.24252 -10.24209 -10.24207
 Alpha  occ. eigenvalues --  -10.24160 -10.24151 -10.24141 -10.24137 -10.23645
 Alpha  occ. eigenvalues --  -10.23636 -10.23635 -10.23633 -10.23591 -10.23590
 Alpha  occ. eigenvalues --  -10.23558 -10.23556  -1.04441  -1.03194  -1.02863
 Alpha  occ. eigenvalues --   -1.01369  -0.94774  -0.94128  -0.92585  -0.89197
 Alpha  occ. eigenvalues --   -0.88899  -0.87510  -0.87211  -0.87165  -0.87136
 Alpha  occ. eigenvalues --   -0.86977  -0.86440  -0.83660  -0.82911  -0.80641
 Alpha  occ. eigenvalues --   -0.80138  -0.79919  -0.78731  -0.77343  -0.77290
 Alpha  occ. eigenvalues --   -0.77255  -0.77081  -0.76092  -0.75915  -0.75250
 Alpha  occ. eigenvalues --   -0.73796  -0.73788  -0.73765  -0.73643  -0.73627
 Alpha  occ. eigenvalues --   -0.70253  -0.69896  -0.67429  -0.66698  -0.65255
 Alpha  occ. eigenvalues --   -0.65208  -0.63671  -0.63063  -0.62927  -0.62734
 Alpha  occ. eigenvalues --   -0.62539  -0.62529  -0.60877  -0.60574  -0.59711
 Alpha  occ. eigenvalues --   -0.59517  -0.59485  -0.59346  -0.58445  -0.57762
 Alpha  occ. eigenvalues --   -0.56735  -0.55372  -0.55210  -0.53911  -0.53720
 Alpha  occ. eigenvalues --   -0.53611  -0.53177  -0.53083  -0.52742  -0.52236
 Alpha  occ. eigenvalues --   -0.51873  -0.50848  -0.50714  -0.48480  -0.48098
 Alpha  occ. eigenvalues --   -0.48034  -0.47959  -0.47941  -0.47200  -0.47117
 Alpha  occ. eigenvalues --   -0.47112  -0.46829  -0.46058  -0.45988  -0.45522
 Alpha  occ. eigenvalues --   -0.45471  -0.45338  -0.45207  -0.44911  -0.44814
 Alpha  occ. eigenvalues --   -0.44646  -0.44612  -0.44560  -0.44475  -0.44275
 Alpha  occ. eigenvalues --   -0.44106  -0.44003  -0.43381  -0.43375  -0.43215
 Alpha  occ. eigenvalues --   -0.43186  -0.43097  -0.41477  -0.40559  -0.40303
 Alpha  occ. eigenvalues --   -0.38999  -0.38894  -0.38632  -0.38401  -0.38279
 Alpha  occ. eigenvalues --   -0.38110  -0.38103  -0.38027  -0.37989  -0.37943
 Alpha  occ. eigenvalues --   -0.37913  -0.37823  -0.37673  -0.37574  -0.37494
 Alpha  occ. eigenvalues --   -0.36447  -0.36300  -0.35888  -0.35720  -0.35683
 Alpha  occ. eigenvalues --   -0.35502  -0.35476  -0.35402  -0.35370  -0.35239
 Alpha  occ. eigenvalues --   -0.35148  -0.35091  -0.31104  -0.30978  -0.30564
 Alpha  occ. eigenvalues --   -0.30517  -0.30101  -0.29897  -0.28172  -0.27800
 Alpha  occ. eigenvalues --   -0.27642  -0.27147  -0.24334  -0.24147  -0.23917
 Alpha  occ. eigenvalues --   -0.23703  -0.23539  -0.23398  -0.23194  -0.22478
 Alpha virt. eigenvalues --   -0.08797  -0.07387  -0.04057  -0.04043  -0.04011
 Alpha virt. eigenvalues --   -0.03888  -0.01216  -0.00682  -0.00570  -0.00041
 Alpha virt. eigenvalues --    0.00067   0.00529   0.00616   0.01014   0.01131

 Mulliken charges:
               1
     1  C    0.025837
     2  C   -0.083205
     3  C    0.045102
     4  C    0.143715
     5  C    0.076185
     6  C    0.148359
     7  C   -0.112874
     8  C   -0.109857
     9  N   -0.154871
    10  N   -0.156244
    11  N    0.045273
    12  C    0.101330
    13  C   -0.050187
    14  C   -0.184102
    15  C   -0.100926
    16  C   -0.308031
    17  C   -0.120023
    18  C   -0.194245
    19  H    0.200739
    20  C   -0.013529
    21  C   -0.123963
    22  H    0.256984
    23  C   -0.009767
    24  C   -0.098609
    25  H    0.140723
    26  H    0.126491
    27  C   -0.122717
    28  H    0.127431
    29  H    0.124030
    30  H    0.125302
    31  H    0.124234
    32  N    0.468793
    33  C   -0.010328
    34  C   -0.032800
    35  C   -0.501817
    36  C   -0.110673
    37  C   -0.486947
    38  C   -0.097568
    39  C   -0.088245
    40  H    0.207072
    41  C    0.057146
    42  C   -0.095725
    43  H    0.202098
    44  C    0.051631
    45  C   -0.119343
    46  H    0.137577
    47  H    0.121923
    48  C   -0.114452
    49  H    0.138056
    50  H    0.122071
    51  H    0.122834
    52  H    0.122965
    53  N    0.045261
    54  C   -0.057238
    55  C    0.101529
    56  C   -0.312385
    57  C   -0.113997
    58  C   -0.188618
    59  C   -0.096089
    60  C   -0.121682
    61  H    0.258725
    62  C   -0.010488
    63  C   -0.193344
    64  H    0.202379
    65  C   -0.011947
    66  C   -0.124926
    67  H    0.127966
    68  H    0.123921
    69  C   -0.099531
    70  H    0.141525
    71  H    0.126339
    72  H    0.124266
    73  H    0.125314
    74  N   -0.075731
    75  C    0.042424
    76  C    0.044434
    77  C   -0.231987
    78  C   -0.112574
    79  C   -0.236683
    80  C   -0.110683
    81  C   -0.118293
    82  H    0.222537
    83  C   -0.016604
    84  C   -0.112298
    85  H    0.217458
    86  C   -0.016146
    87  C   -0.138853
    88  H    0.131470
    89  H    0.128786
    90  C   -0.139627
    91  H    0.131964
    92  H    0.128873
    93  H    0.125844
    94  H    0.125857
 Sum of Mulliken charges =  -0.00000

 Dipole moment (field-independent basis, Debye):
    X=             -4.7810    Y=              0.1228    Z=             -0.0233  Tot=              4.7826
 Quadrupole moment (field-independent basis, Debye-Ang):
   XX=           -340.5289   YY=           -354.6458   ZZ=           -339.2587
   XY=              0.0561   XZ=              0.3628   YZ=             37.7336

 1\1\GINC-CN084\SP\RM06 TD-FC\def2TZVP\C56H32N6\PNG4RJV\01-Jul-2022\0\\
 #p m06/def2TZVP td=(NStates=50) int=ultrafine scrf=(SMD,solvent=Aceton
 itrile)\\Title\\0,1\C,0,0.176702,-1.152969,0.383353\C,0,-0.511981,0.00
 4848,-0.006487\C,0,0.217156,1.140151,-0.38768\C,0,1.616694,1.097133,-0
 .406058\C,0,2.305864,-0.041319,0.0067\C,0,1.576501,-1.156763,0.412954\
 C,0,2.345819,2.197509,-0.938862\C,0,2.264763,-2.280669,0.95053\N,0,2.9
 40276,3.07658,-1.381651\N,0,2.825758,-3.180404,1.395477\N,0,-0.50897,-
 2.308708,0.772223\C,0,-1.480766,-2.390184,1.773738\C,0,-0.518589,-3.51

 Normal termination of Gaussian 09 at Fri Jul  1 13:03:56 2022.
