 Gaussian 09, Revision E.01,
 Gaussian 09:  ES64L-G09RevE.01 30-Nov-2015

 ----------------------------------------------------------------------
 #p B97D3/def2TZVP td=(NStates=50) int=ultrafine scrf=(SMD,solvent=Acet
 onitrile)
 ----------------------------------------------------------------------

 -----
 Title
 -----
 Symbolic Z-matrix:
 Charge =  0 Multiplicity = 1

                         Standard orientation:
 ---------------------------------------------------------------------
 Center     Atomic      Atomic             Coordinates (Angstroms)
 Number     Number       Type             X           Y           Z
 ---------------------------------------------------------------------
      1          6           0       -0.169110    1.165849    0.366994
      2          6           0        0.539138    0.000706   -0.002415
      3          6           0       -0.180287   -1.156316   -0.377547
      4          6           0       -1.593374   -1.130330   -0.407665
      5          6           0       -2.301449    0.012354    0.002127
      6          6           0       -1.582432    1.150877    0.403259
      7          6           0       -2.306199   -2.227419   -0.964951
      8          6           0       -2.282708    2.256785    0.958681
      9          7           0       -2.892782   -3.110155   -1.439782
     10          7           0       -2.858237    3.147998    1.431219
     11          7           0        0.499183    2.339648    0.737573
     12          6           0        1.494635    2.453055    1.725622
     13          6           0        0.414096    3.564544    0.039242
     14          6           0        1.877954    1.536352    2.700428
     15          6           0        2.064533    3.750419    1.645112
     16          6           0       -0.388140    3.912974   -1.044764
     17          6           0        1.380634    4.453384    0.577260
     18          6           0        2.899386    1.913535    3.572920
     19          1           0        1.406343    0.564473    2.783640
     20          6           0        3.081295    4.109359    2.536973
     21          6           0       -0.225210    5.191361   -1.581527
     22          1           0       -1.107320    3.222452   -1.472069
     23          6           0        1.526613    5.728412    0.019667
     24          6           0        3.501844    3.180528    3.488547
     25          1           0        3.229197    1.210461    4.333329
     26          1           0        3.530170    5.098036    2.488289
     27          6           0        0.717327    6.091316   -1.056159
     28          1           0       -0.841353    5.490447   -2.425487
     29          1           0        2.267457    6.417995    0.415933
     30          1           0        4.295553    3.442374    4.183338
     31          1           0        0.818836    7.078609   -1.499038
     32          7           0        1.943384   -0.009153    0.006187
     33          6           0        2.750987   -0.861130    0.781410
     34          6           0        2.774594    0.828531   -0.759092
     35          6           0        2.382905   -1.806979    1.734575
     36          6           0        4.112144   -0.567147    0.503147
     37          6           0        2.433878    1.784613   -1.711999
     38          6           0        4.127065    0.508846   -0.467383
     39          6           0        3.403651   -2.505125    2.380526
     40          1           0        1.345166   -1.992342    1.983675
     41          6           0        5.118811   -1.276221    1.168286
     42          6           0        3.473890    2.464719   -2.346342
     43          1           0        1.401991    1.991988   -1.967728
     44          6           0        5.153385    1.200543   -1.120518
     45          6           0        4.756640   -2.251365    2.096912
     46          1           0        3.140756   -3.256202    3.120943
     47          1           0        6.165146   -1.062035    0.966136
     48          6           0        4.819015    2.184356   -2.050430
     49          1           0        3.232478    3.223354   -3.086353
     50          1           0        6.193459    0.967012   -0.907754
     51          1           0        5.527281   -2.814133    2.617235
     52          1           0        5.605246    2.733827   -2.561544
     53          7           0        0.478310   -2.332951   -0.755205
     54          6           0        0.384319   -3.560871   -0.063852
     55          6           0        1.477287   -2.446467   -1.739729
     56          6           0       -0.427752   -3.910713    1.011974
     57          6           0        1.350265   -4.451062   -0.600150
     58          6           0        1.866002   -1.528142   -2.710773
     59          6           0        2.042181   -3.746230   -1.661751
     60          6           0       -0.274640   -5.192241    1.543923
     61          1           0       -1.147083   -3.217207    1.434249
     62          6           0        1.486703   -5.729298   -0.047397
     63          6           0        2.890162   -1.905392   -3.580097
     64          1           0        1.395133   -0.555753   -2.795038
     65          6           0        3.061829   -4.105146   -2.550316
     66          6           0        0.668148   -6.093546    1.021018
     67          1           0       -0.898681   -5.493241    2.381375
     68          1           0        2.226720   -6.420699   -0.442021
     69          6           0        3.489504   -3.173919   -3.496407
     70          1           0        3.224806   -1.201177   -4.337369
     71          1           0        3.507700   -5.095231   -2.503042
     72          1           0        0.761859   -7.083586    1.459430
     73          1           0        4.286069   -3.435417   -4.188062
     74          7           0       -3.701440    0.017076    0.008742
     75          6           0       -4.520320    0.855313   -0.769650
     76          6           0       -4.517468   -0.826232    0.784383
     77          6           0       -4.159566    1.820694   -1.707435
     78          6           0       -5.876443    0.542223   -0.487302
     79          6           0       -4.153381   -1.788319    1.724229
     80          6           0       -5.874595   -0.521730    0.497963
     81          6           0       -5.191603    2.499659   -2.357308
     82          1           0       -3.119958    2.040703   -1.929291
     83          6           0       -6.891880    1.235968   -1.156001
     84          6           0       -5.182946   -2.474208    2.370684
     85          1           0       -3.113117   -1.999845    1.950705
     86          6           0       -6.887545   -1.222194    1.163313
     87          6           0       -6.541106    2.215438   -2.084330
     88          1           0       -4.941737    3.262548   -3.090116
     89          1           0       -7.935639    1.008861   -0.954859
     90          6           0       -6.533432   -2.199490    2.092667
     91          1           0       -4.930322   -3.234843    3.104867
     92          1           0       -7.932126   -1.002170    0.958606
     93          1           0       -7.318970    2.763802   -2.609190
     94          1           0       -7.309370   -2.753194    2.614751
 ---------------------------------------------------------------------

 SCF Done:  E(RB97D3) =  -2481.10485738     A.U. after   16 cycles

 Excitation energies and oscillator strengths:

 Excited State   1:      Singlet-A      2.0297 eV  610.84 nm  f=0.0481  <S**2>=0.000
     205 -> 206        0.69931
 This state for optimization and/or second-order correction.
 Total Energy, E(TD-HF/TD-KS) =  -2481.03026638
 Copying the excited state density for this state as the 1-particle RhoCI density.

 Excited State   2:      Singlet-A      2.2188 eV  558.78 nm  f=0.0132  <S**2>=0.000
     201 -> 206        0.26661
     204 -> 206        0.65143

 Excited State   3:      Singlet-A      2.2300 eV  555.99 nm  f=0.0137  <S**2>=0.000
     202 -> 206        0.44453
     203 -> 206        0.54589

 Excited State   4:      Singlet-A      2.2691 eV  546.40 nm  f=0.0716  <S**2>=0.000
     202 -> 206        0.54811
     203 -> 206       -0.44037

 Excited State   5:      Singlet-A      2.3807 eV  520.78 nm  f=0.0352  <S**2>=0.000
     200 -> 206        0.29075
     201 -> 206        0.58849
     203 -> 207        0.11490
     204 -> 206       -0.21990

 Excited State   6:      Singlet-A      2.4033 eV  515.89 nm  f=0.0905  <S**2>=0.000
     200 -> 206       -0.14310
     205 -> 207        0.67616

 Excited State   7:      Singlet-A      2.4128 eV  513.85 nm  f=0.0005  <S**2>=0.000
     200 -> 206        0.62672
     201 -> 206       -0.23319
     204 -> 206        0.10765
     205 -> 207        0.17606

 Excited State   8:      Singlet-A      2.4418 eV  507.76 nm  f=0.0002  <S**2>=0.000
     199 -> 206        0.70651

 Excited State   9:      Singlet-A      2.5122 eV  493.53 nm  f=0.0027  <S**2>=0.000
     198 -> 206        0.70146

 Excited State  10:      Singlet-A      2.5705 eV  482.33 nm  f=0.0312  <S**2>=0.000
     201 -> 207        0.14603
     204 -> 207        0.68857

 Excited State  11:      Singlet-A      2.6231 eV  472.67 nm  f=0.1101  <S**2>=0.000
     202 -> 207       -0.43176
     203 -> 207        0.53935

 Excited State  12:      Singlet-A      2.6685 eV  464.62 nm  f=0.0227  <S**2>=0.000
     199 -> 207       -0.11628
     202 -> 207        0.55109
     203 -> 207        0.40962

 Excited State  13:      Singlet-A      2.7078 eV  457.88 nm  f=0.0563  <S**2>=0.000
     201 -> 207        0.68723
     204 -> 207       -0.13825

 Excited State  14:      Singlet-A      2.7831 eV  445.49 nm  f=0.0025  <S**2>=0.000
     200 -> 207        0.70597

 Excited State  15:      Singlet-A      2.8183 eV  439.93 nm  f=0.0127  <S**2>=0.000
     199 -> 207        0.69246
     203 -> 207        0.11281

 Excited State  16:      Singlet-A      2.8767 eV  431.00 nm  f=0.0051  <S**2>=0.000
     198 -> 207        0.70544

 Excited State  17:      Singlet-A      3.1518 eV  393.37 nm  f=0.0021  <S**2>=0.000
     197 -> 206        0.70588

 Excited State  18:      Singlet-A      3.2490 eV  381.61 nm  f=0.0040  <S**2>=0.000
     196 -> 206        0.70054

 Excited State  19:      Singlet-A      3.2586 eV  380.49 nm  f=0.0138  <S**2>=0.000
     202 -> 208       -0.12343
     205 -> 208        0.68609

 Excited State  20:      Singlet-A      3.2705 eV  379.10 nm  f=0.0009  <S**2>=0.000
     204 -> 210       -0.10802
     205 -> 209        0.68443

 Excited State  21:      Singlet-A      3.2858 eV  377.33 nm  f=0.0066  <S**2>=0.000
     195 -> 206        0.70437

 Excited State  22:      Singlet-A      3.2913 eV  376.71 nm  f=0.0041  <S**2>=0.000
     204 -> 209       -0.12477
     205 -> 210        0.67349
     205 -> 211       -0.11570

 Excited State  23:      Singlet-A      3.3447 eV  370.69 nm  f=0.0066  <S**2>=0.000
     194 -> 206        0.69823

 Excited State  24:      Singlet-A      3.3749 eV  367.37 nm  f=0.0052  <S**2>=0.000
     203 -> 211        0.24961
     205 -> 210        0.10612
     205 -> 211        0.62886

 Excited State  25:      Singlet-A      3.4428 eV  360.13 nm  f=0.0002  <S**2>=0.000
     204 -> 208        0.68567
     204 -> 210        0.15761

 Excited State  26:      Singlet-A      3.4724 eV  357.06 nm  f=0.0010  <S**2>=0.000
     202 -> 208       -0.19218
     203 -> 208        0.65293
     204 -> 209        0.14715

 Excited State  27:      Singlet-A      3.4891 eV  355.35 nm  f=0.0047  <S**2>=0.000
     202 -> 210        0.30023
     203 -> 208       -0.11508
     203 -> 210       -0.25564
     204 -> 209        0.53497
     204 -> 210        0.11139

 Excited State  28:      Singlet-A      3.4930 eV  354.95 nm  f=0.0015  <S**2>=0.000
     202 -> 209        0.38477
     203 -> 209       -0.25005
     204 -> 210        0.48945

 Excited State  29:      Singlet-A      3.5008 eV  354.16 nm  f=0.0049  <S**2>=0.000
     201 -> 210        0.11717
     202 -> 209        0.42798
     203 -> 209        0.53256

 Excited State  30:      Singlet-A      3.5188 eV  352.34 nm  f=0.0001  <S**2>=0.000
     201 -> 209        0.17171
     202 -> 208       -0.19072
     202 -> 210        0.37918
     203 -> 208       -0.10450
     203 -> 210        0.50406
     203 -> 211       -0.12895

 Excited State  31:      Singlet-A      3.5193 eV  352.30 nm  f=0.0005  <S**2>=0.000
     197 -> 207        0.69112
     204 -> 211       -0.12167

 Excited State  32:      Singlet-A      3.5514 eV  349.11 nm  f=0.0004  <S**2>=0.000
     202 -> 208       -0.11211
     202 -> 210        0.16965
     202 -> 211        0.60867
     203 -> 210       -0.12547
     203 -> 211       -0.13913
     204 -> 209       -0.11625
     204 -> 211        0.12373

 Excited State  33:      Singlet-A      3.5543 eV  348.83 nm  f=0.0027  <S**2>=0.000
     197 -> 207        0.10487
     198 -> 211       -0.11004
     201 -> 208        0.16511
     201 -> 211       -0.29244
     202 -> 211       -0.14214
     204 -> 210        0.11385
     204 -> 211        0.55708

 Excited State  34:      Singlet-A      3.5712 eV  347.18 nm  f=0.0054  <S**2>=0.000
     199 -> 209        0.14536
     201 -> 208        0.52383
     201 -> 209       -0.10180
     201 -> 211        0.10577
     202 -> 209        0.23626
     203 -> 209       -0.12899
     204 -> 210       -0.25621

 Excited State  35:      Singlet-A      3.5755 eV  346.76 nm  f=0.0025  <S**2>=0.000
     198 -> 209        0.10943
     199 -> 210       -0.14802
     201 -> 208        0.16108
     201 -> 209        0.40864
     202 -> 208        0.10392
     202 -> 210       -0.30661
     202 -> 211        0.23481
     203 -> 210        0.13944
     203 -> 211       -0.12267
     204 -> 209        0.24161

 Excited State  36:      Singlet-A      3.5834 eV  345.99 nm  f=0.0070  <S**2>=0.000
     199 -> 209       -0.13781
     201 -> 208        0.36424
     201 -> 210        0.43185
     202 -> 209       -0.22263
     203 -> 209        0.15433
     204 -> 210        0.22028
     204 -> 211       -0.12265

 Excited State  37:      Singlet-A      3.6035 eV  344.07 nm  f=0.0002  <S**2>=0.000
     196 -> 207        0.70209

 Excited State  38:      Singlet-A      3.6349 eV  341.10 nm  f=0.0100  <S**2>=0.000
     199 -> 211       -0.26928
     202 -> 211        0.16749
     203 -> 210        0.11005
     203 -> 211        0.54873
     205 -> 211       -0.20709

 Excited State  39:      Singlet-A      3.6616 eV  338.60 nm  f=0.0014  <S**2>=0.000
     195 -> 207        0.70230

 Excited State  40:      Singlet-A      3.6779 eV  337.10 nm  f=0.0022  <S**2>=0.000
     199 -> 208        0.26289
     200 -> 209        0.60008
     201 -> 209        0.12316
     202 -> 208       -0.18495

 Excited State  41:      Singlet-A      3.6826 eV  336.68 nm  f=0.0123  <S**2>=0.000
     199 -> 208        0.48840
     199 -> 210        0.16361
     200 -> 209       -0.33109
     202 -> 208       -0.28541
     202 -> 210       -0.14055

 Excited State  42:      Singlet-A      3.6948 eV  335.56 nm  f=0.0016  <S**2>=0.000
     200 -> 208       -0.24761
     200 -> 210        0.61336
     201 -> 210        0.15869

 Excited State  43:      Singlet-A      3.6970 eV  335.36 nm  f=0.0028  <S**2>=0.000
     194 -> 207        0.44961
     198 -> 211        0.24892
     200 -> 210        0.12341
     201 -> 211       -0.41839
     204 -> 211       -0.14260

 Excited State  44:      Singlet-A      3.7064 eV  334.51 nm  f=0.0045  <S**2>=0.000
     194 -> 207        0.53686
     198 -> 211       -0.23904
     201 -> 211        0.33137
     204 -> 211        0.12288

 Excited State  45:      Singlet-A      3.7319 eV  332.23 nm  f=0.0032  <S**2>=0.000
     199 -> 209        0.10909
     200 -> 211        0.65488
     201 -> 210       -0.12200

 Excited State  46:      Singlet-A      3.7386 eV  331.64 nm  f=0.0140  <S**2>=0.000
     198 -> 209        0.23169
     199 -> 208       -0.23088
     199 -> 210        0.28697
     200 -> 209        0.11814
     201 -> 209       -0.28462
     202 -> 208       -0.17732
     202 -> 210       -0.24619
     203 -> 208       -0.12438
     203 -> 210        0.16967
     204 -> 209        0.17496

 Excited State  47:      Singlet-A      3.7402 eV  331.49 nm  f=0.0164  <S**2>=0.000
     198 -> 208       -0.15242
     198 -> 210        0.22875
     199 -> 209        0.38439
     200 -> 210        0.15422
     200 -> 211       -0.23420
     201 -> 210       -0.25154
     202 -> 209       -0.14763
     203 -> 209        0.16448
     204 -> 210        0.16830

 Excited State  48:      Singlet-A      3.7516 eV  330.48 nm  f=0.0217  <S**2>=0.000
     198 -> 209        0.10203
     199 -> 208        0.30435
     199 -> 210        0.27905
     201 -> 209       -0.13816
     202 -> 208        0.44660
     202 -> 210        0.12023
     203 -> 210        0.13993

 Excited State  49:      Singlet-A      3.7709 eV  328.79 nm  f=0.0042  <S**2>=0.000
     198 -> 208        0.63681
     198 -> 211        0.10265
     201 -> 210       -0.17247
     203 -> 209        0.10125

 Excited State  50:      Singlet-A      3.7739 eV  328.53 nm  f=0.0003  <S**2>=0.000
     198 -> 209        0.47645
     199 -> 210        0.22708
     199 -> 211       -0.21756
     201 -> 209        0.26805
     202 -> 210        0.10601
     203 -> 210       -0.16911
     204 -> 209       -0.11982

 The electronic state is 1-A.
 Alpha  occ. eigenvalues --  -14.06287 -14.06287 -14.06272 -14.05842 -14.01093
 Alpha  occ. eigenvalues --  -14.01091  -9.99845  -9.99775  -9.99774  -9.98761
 Alpha  occ. eigenvalues --   -9.97388  -9.97386  -9.96063  -9.96060  -9.95013
 Alpha  occ. eigenvalues --   -9.95006  -9.94999  -9.94998  -9.94862  -9.94862
 Alpha  occ. eigenvalues --   -9.94667  -9.94658  -9.91437  -9.91414  -9.91406
 Alpha  occ. eigenvalues --   -9.91404  -9.91381  -9.91375  -9.91177  -9.91153
 Alpha  occ. eigenvalues --   -9.90889  -9.90887  -9.90874  -9.90866  -9.90741
 Alpha  occ. eigenvalues --   -9.90731  -9.90722  -9.90721  -9.90711  -9.90710
 Alpha  occ. eigenvalues --   -9.90657  -9.90655  -9.90597  -9.90594  -9.90590
 Alpha  occ. eigenvalues --   -9.90589  -9.90570  -9.90558  -9.90544  -9.90540
 Alpha  occ. eigenvalues --   -9.90490  -9.90488  -9.90394  -9.90392  -9.90102
 Alpha  occ. eigenvalues --   -9.90100  -9.90091  -9.90089  -9.90088  -9.90086
 Alpha  occ. eigenvalues --   -9.89945  -9.89941  -0.94428  -0.93202  -0.92932
 Alpha  occ. eigenvalues --   -0.91458  -0.85420  -0.85028  -0.83246  -0.79926
 Alpha  occ. eigenvalues --   -0.79669  -0.78264  -0.77952  -0.77928  -0.77892
 Alpha  occ. eigenvalues --   -0.77710  -0.77244  -0.74871  -0.74098  -0.71938
 Alpha  occ. eigenvalues --   -0.71460  -0.71343  -0.70227  -0.69043  -0.69034
 Alpha  occ. eigenvalues --   -0.68999  -0.68832  -0.67904  -0.67787  -0.67085
 Alpha  occ. eigenvalues --   -0.65731  -0.65718  -0.65693  -0.65509  -0.65495
 Alpha  occ. eigenvalues --   -0.62573  -0.62247  -0.59856  -0.59238  -0.57791
 Alpha  occ. eigenvalues --   -0.57723  -0.56448  -0.56031  -0.55861  -0.55680
 Alpha  occ. eigenvalues --   -0.55508  -0.55454  -0.53712  -0.53396  -0.52620
 Alpha  occ. eigenvalues --   -0.52455  -0.52426  -0.52274  -0.51394  -0.50449
 Alpha  occ. eigenvalues --   -0.50030  -0.48726  -0.48518  -0.47462  -0.47258
 Alpha  occ. eigenvalues --   -0.47164  -0.46610  -0.46595  -0.46198  -0.45805
 Alpha  occ. eigenvalues --   -0.45462  -0.44250  -0.44200  -0.41888  -0.41565
 Alpha  occ. eigenvalues --   -0.41539  -0.41509  -0.41425  -0.41003  -0.40959
 Alpha  occ. eigenvalues --   -0.40918  -0.40816  -0.39926  -0.39855  -0.39530
 Alpha  occ. eigenvalues --   -0.39172  -0.39139  -0.38897  -0.38872  -0.38715
 Alpha  occ. eigenvalues --   -0.38348  -0.38317  -0.38293  -0.38290  -0.38098
 Alpha  occ. eigenvalues --   -0.38001  -0.37628  -0.37433  -0.37229  -0.37222
 Alpha  occ. eigenvalues --   -0.37212  -0.37117  -0.35392  -0.34228  -0.33993
 Alpha  occ. eigenvalues --   -0.33082  -0.33032  -0.32726  -0.32646  -0.32613
 Alpha  occ. eigenvalues --   -0.32604  -0.32581  -0.32504  -0.32480  -0.32376
 Alpha  occ. eigenvalues --   -0.32314  -0.32062  -0.31992  -0.31686  -0.31648
 Alpha  occ. eigenvalues --   -0.30773  -0.30719  -0.30370  -0.30317  -0.30305
 Alpha  occ. eigenvalues --   -0.30082  -0.30027  -0.30016  -0.29964  -0.29827
 Alpha  occ. eigenvalues --   -0.29685  -0.29432  -0.26445  -0.26293  -0.25844
 Alpha  occ. eigenvalues --   -0.25654  -0.25450  -0.25248  -0.23593  -0.23409
 Alpha  occ. eigenvalues --   -0.23235  -0.22914  -0.20551  -0.20280  -0.20185
 Alpha  occ. eigenvalues --   -0.19825  -0.19536  -0.19445  -0.19339  -0.18582
 Alpha virt. eigenvalues --   -0.11350  -0.10005  -0.06699  -0.06655  -0.06578
 Alpha virt. eigenvalues --   -0.06469  -0.04155  -0.03893  -0.03590  -0.03387
 Alpha virt. eigenvalues --   -0.03349  -0.02847  -0.02404  -0.02115  -0.02068

 Mulliken charges:
               1
     1  C    0.011736
     2  C   -0.053942
     3  C    0.009371
     4  C    0.140932
     5  C   -0.019082
     6  C    0.145159
     7  C   -0.210136
     8  C   -0.211093
     9  N   -0.046154
    10  N   -0.046269
    11  N    0.211537
    12  C    0.138482
    13  C    0.004459
    14  C   -0.229001
    15  C    0.090364
    16  C   -0.206821
    17  C    0.060576
    18  C   -0.152671
    19  H    0.131210
    20  C   -0.247760
    21  C   -0.154045
    22  H    0.170866
    23  C   -0.280129
    24  C   -0.126295
    25  H    0.131702
    26  H    0.129245
    27  C   -0.116632
    28  H    0.133137
    29  H    0.128146
    30  H    0.130487
    31  H    0.130948
    32  N    0.369583
    33  C    0.046652
    34  C    0.053843
    35  C   -0.262805
    36  C    0.091881
    37  C   -0.264704
    38  C    0.090223
    39  C   -0.124087
    40  H    0.121485
    41  C   -0.271674
    42  C   -0.123771
    43  H    0.122999
    44  C   -0.270362
    45  C   -0.128749
    46  H    0.131260
    47  H    0.126060
    48  C   -0.130046
    49  H    0.131335
    50  H    0.126073
    51  H    0.129101
    52  H    0.129106
    53  N    0.210476
    54  C    0.009221
    55  C    0.137143
    56  C   -0.205843
    57  C    0.060108
    58  C   -0.228698
    59  C    0.090857
    60  C   -0.155407
    61  H    0.172023
    62  C   -0.279655
    63  C   -0.152130
    64  H    0.130863
    65  C   -0.249084
    66  C   -0.117091
    67  H    0.132979
    68  H    0.128176
    69  C   -0.125604
    70  H    0.131545
    71  H    0.129252
    72  H    0.130899
    73  H    0.130513
    74  N    0.148644
    75  C    0.101536
    76  C    0.100495
    77  C   -0.237403
    78  C    0.051084
    79  C   -0.237236
    80  C    0.053691
    81  C   -0.140071
    82  H    0.144635
    83  C   -0.251166
    84  C   -0.138258
    85  H    0.142004
    86  C   -0.250876
    87  C   -0.127512
    88  H    0.135518
    89  H    0.130170
    90  C   -0.127808
    91  H    0.135844
    92  H    0.130176
    93  H    0.132093
    94  H    0.132168
 Sum of Mulliken charges =  -0.00000

 Dipole moment (field-independent basis, Debye):
    X=              5.3898    Y=             -0.0433    Z=             -0.0022  Tot=              5.3900
 Quadrupole moment (field-independent basis, Debye-Ang):
   XX=           -341.7912   YY=           -353.3746   ZZ=           -343.0599
   XY=              0.0803   XZ=             -0.1532   YZ=            -39.3328

 Normal termination of Gaussian 09 at Wed Jun 29 14:48:13 2022.
