                         Program Version 5.0.2 -  RELEASE  -
|  1> %maxcore 20000
|  2> %pal
|  3>  nprocs= 4
|  4> end
|  5> ! RI-DSD-BLYP D3BJ def2-TZVP def2/J def2-TZVP/C RIJCOSX CPCM TightSCF
|  6> %TDDFT
|  7>    NROOTS   60
|  8>    dcorr 4
|  9>    doscs true
| 10>    scspar 0.333, 1.2, 0.43, 1.24
| 11>    TDA      FALSE
| 12> END
| 13>
| 14>  %CPCM
| 15>    SMD          TRUE
| 16>    SMDsolvent   "ACETONITRILE"
| 17>  END
| 18>
| 19>
| 20> * xyz 0 1
| 21> C                   0.13708300   -1.17921300    0.31930200
| 22> C                  -0.55557000   -0.00182600   -0.00879400
| 23> C                   0.17541900    1.14900900   -0.35453000
| 24> C                   1.58092900    1.11156100   -0.37592900
| 25> C                   2.27561400   -0.04695700   -0.00771500
| 26> C                   1.54385000   -1.18685600    0.34407400
| 27> C                   2.29711500    2.21798600   -0.89758300
| 28> C                   2.21958000   -2.32286400    0.85557100
| 29> N                   2.88133300    3.11141900   -1.34291000
| 30> N                   2.77150900   -3.24146800    1.29073100
| 31> N                  -0.54323800   -2.34995200    0.66815600
| 32> C                  -1.50614500   -2.48840000    1.67144800
| 33> C                  -0.46523800   -3.55919600   -0.03591300
| 34> C                  -1.86852100   -1.59253500    2.66479500
| 35> C                  -2.06133600   -3.77985600    1.59078400
| 36> C                   0.31174400   -3.88150000   -1.13825200
| 37> C                  -1.39982900   -4.45894200    0.50924100
| 38> C                  -2.85713300   -1.98676600    3.55238400
| 39> H                  -1.39444800   -0.62438900    2.75418400
| 40> C                  -3.04733600   -4.15520300    2.49888900
| 41> C                   0.15766400   -5.14808800   -1.68009800
| 42> H                   1.00342200   -3.17104100   -1.57402000
| 43> C                  -1.53710300   -5.72401500   -0.05534200
| 44> C                  -3.44896500   -3.24908300    3.46604100
| 45> H                  -3.16699900   -1.30238600    4.33238500
| 46> H                  -3.48554400   -5.14437000    2.45065000
| 47> C                  -0.75208900   -6.06227000   -1.14423600
| 48> H                   0.75434000   -5.42893300   -2.53844000
| 49> H                  -2.25480000   -6.42663900    0.34980800
| 50> H                  -4.21790100   -3.52572800    4.17561500
| 51> H                  -0.84662000   -7.04305200   -1.59182800
| 52> N                  -1.95704500    0.03452400    0.02264600
| 53> C                  -2.72329000    0.88714200    0.82077400
| 54> C                  -2.82597400   -0.76917400   -0.71854200
| 55> C                  -2.30390500    1.80349400    1.77277500
| 56> C                  -4.08709800    0.63374500    0.57976800
| 57> C                  -2.53349300   -1.71964500   -1.68518000
| 58> C                  -4.15239800   -0.42587400   -0.38980200
| 59> C                  -3.27936500    2.51716500    2.45073600
| 60> H                  -1.25501600    1.94579900    1.99750400
| 61> C                  -5.04906900    1.35954100    1.27800200
| 62> C                  -3.59784400   -2.37067000   -2.28840100
| 63> H                  -1.51428700   -1.93831100   -1.97547100
| 64> C                  -5.20460700   -1.09027000   -1.01444600
| 65> C                  -4.63782200    2.30702700    2.20026800
| 66> H                  -2.97801700    3.24468400    3.19418500
| 67> H                  -6.10241500    1.17673100    1.10476800
| 68> C                  -4.91982400   -2.06831100   -1.95218400
| 69> H                  -3.39544300   -3.12362200   -3.04003600
| 70> H                  -6.22943700   -0.83797800   -0.77143200
| 71> H                  -5.37474200    2.88169000    2.74614800
| 72> H                  -5.72776900   -2.59662700   -2.44142400
| 73> N                  -0.47106700    2.33134400   -0.72615700
| 74> C                  -0.35292600    3.56244000   -0.06641300
| 75> C                  -1.43756700    2.46289400   -1.72746400
| 76> C                   0.44524700    3.90427700    1.01462900
| 77> C                  -1.26881200    4.46734500   -0.63442000
| 78> C                  -1.82862900    1.54484800   -2.68876600
| 79> C                  -1.95673600    3.77063400   -1.68793100
| 80> C                   0.32982100    5.19250100    1.51297200
| 81> H                   1.12481000    3.19252600    1.46669800
| 82> C                  -1.36739400    5.75468000   -0.11368900
| 83> C                  -2.81013900    1.93585500   -3.58559600
| 84> H                  -1.38090900    0.56179700   -2.74824300
| 85> C                  -2.93667200    4.14252200   -2.60424800
| 86> C                  -0.56251600    6.11043800    0.95479100
| 87> H                   0.94418100    5.48810100    2.35372100
| 88> H                  -2.07040300    6.46128200   -0.53718300
| 89> C                  -3.36736500    3.21586500   -3.53881100
| 90> H                  -3.14211500    1.23454300   -4.34107000
| 91> H                  -3.34792300    5.14420300   -2.58711500
| 92> H                  -0.62667900    7.10857500    1.36808600
| 93> H                  -4.13204300    3.48958200   -4.25412000
| 94> N                   3.67041100   -0.05888600    0.01233800
| 95> C                   4.49945100   -0.92778800   -0.70614300
| 96> C                   4.47884200    0.81349800    0.75011600
| 97> C                   4.15614100   -1.92990900   -1.60095800
| 98> C                   5.84035900   -0.60371400   -0.42471300
| 99> C                   4.10784700    1.81357600    1.63581300
|100> C                   5.82726700    0.49749600    0.50011600
|101> C                   5.18973100   -2.63091600   -2.20169000
|102> H                   3.12314600   -2.15872200   -1.82982700
|103> C                   6.85968100   -1.32161400   -1.04402200
|104> C                   5.12221200    2.52335000    2.25843000
|105> H                   3.06808600    2.03515200    1.84063800
|106> C                   6.82728100    1.22378000    1.14126400
|107> C                   6.52640500   -2.33537600   -1.92535500
|108> H                   4.95141700   -3.42150100   -2.90157100
|109> H                   7.89609600   -1.08290000   -0.83981100
|110> C                   6.46688700    2.23720500    2.01228600
|111> H                   4.86241600    3.31320900    2.95145900
|112> H                   7.86979500    0.99261000    0.96072100
|113> H                   7.30821000   -2.90327700   -2.41275600
|114> H                   7.23355000    2.81189600    2.51552600
|115> *
|116>
|117>
|118>                          ****END OF INPUT****

CARTESIAN COORDINATES (ANGSTROEM)
---------------------------------
  C      0.137083   -1.179213    0.319302
  C     -0.555570   -0.001826   -0.008794
  C      0.175419    1.149009   -0.354530
  C      1.580929    1.111561   -0.375929
  C      2.275614   -0.046957   -0.007715
  C      1.543850   -1.186856    0.344074
  C      2.297115    2.217986   -0.897583
  C      2.219580   -2.322864    0.855571
  N      2.881333    3.111419   -1.342910
  N      2.771509   -3.241468    1.290731
  N     -0.543238   -2.349952    0.668156
  C     -1.506145   -2.488400    1.671448
  C     -0.465238   -3.559196   -0.035913
  C     -1.868521   -1.592535    2.664795
  C     -2.061336   -3.779856    1.590784
  C      0.311744   -3.881500   -1.138252
  C     -1.399829   -4.458942    0.509241
  C     -2.857133   -1.986766    3.552384
  H     -1.394448   -0.624389    2.754184
  C     -3.047336   -4.155203    2.498889
  C      0.157664   -5.148088   -1.680098
  H      1.003422   -3.171041   -1.574020
  C     -1.537103   -5.724015   -0.055342
  C     -3.448965   -3.249083    3.466041
  H     -3.166999   -1.302386    4.332385
  H     -3.485544   -5.144370    2.450650
  C     -0.752089   -6.062270   -1.144236
  H      0.754340   -5.428933   -2.538440
  H     -2.254800   -6.426639    0.349808
  H     -4.217901   -3.525728    4.175615
  H     -0.846620   -7.043052   -1.591828
  N     -1.957045    0.034524    0.022646
  C     -2.723290    0.887142    0.820774
  C     -2.825974   -0.769174   -0.718542
  C     -2.303905    1.803494    1.772775
  C     -4.087098    0.633745    0.579768
  C     -2.533493   -1.719645   -1.685180
  C     -4.152398   -0.425874   -0.389802
  C     -3.279365    2.517165    2.450736
  H     -1.255016    1.945799    1.997504
  C     -5.049069    1.359541    1.278002
  C     -3.597844   -2.370670   -2.288401
  H     -1.514287   -1.938311   -1.975471
  C     -5.204607   -1.090270   -1.014446
  C     -4.637822    2.307027    2.200268
  H     -2.978017    3.244684    3.194185
  H     -6.102415    1.176731    1.104768
  C     -4.919824   -2.068311   -1.952184
  H     -3.395443   -3.123622   -3.040036
  H     -6.229437   -0.837978   -0.771432
  H     -5.374742    2.881690    2.746148
  H     -5.727769   -2.596627   -2.441424
  N     -0.471067    2.331344   -0.726157
  C     -0.352926    3.562440   -0.066413
  C     -1.437567    2.462894   -1.727464
  C      0.445247    3.904277    1.014629
  C     -1.268812    4.467345   -0.634420
  C     -1.828629    1.544848   -2.688766
  C     -1.956736    3.770634   -1.687931
  C      0.329821    5.192501    1.512972
  H      1.124810    3.192526    1.466698
  C     -1.367394    5.754680   -0.113689
  C     -2.810139    1.935855   -3.585596
  H     -1.380909    0.561797   -2.748243
  C     -2.936672    4.142522   -2.604248
  C     -0.562516    6.110438    0.954791
  H      0.944181    5.488101    2.353721
  H     -2.070403    6.461282   -0.537183
  C     -3.367365    3.215865   -3.538811
  H     -3.142115    1.234543   -4.341070
  H     -3.347923    5.144203   -2.587115
  H     -0.626679    7.108575    1.368086
  H     -4.132043    3.489582   -4.254120
  N      3.670411   -0.058886    0.012338
  C      4.499451   -0.927788   -0.706143
  C      4.478842    0.813498    0.750116
  C      4.156141   -1.929909   -1.600958
  C      5.840359   -0.603714   -0.424713
  C      4.107847    1.813576    1.635813
  C      5.827267    0.497496    0.500116
  C      5.189731   -2.630916   -2.201690
  H      3.123146   -2.158722   -1.829827
  C      6.859681   -1.321614   -1.044022
  C      5.122212    2.523350    2.258430
  H      3.068086    2.035152    1.840638
  C      6.827281    1.223780    1.141264
  C      6.526405   -2.335376   -1.925355
  H      4.951417   -3.421501   -2.901571
  H      7.896096   -1.082900   -0.839811
  C      6.466887    2.237205    2.012286
  H      4.862416    3.313209    2.951459
  H      7.869795    0.992610    0.960721
  H      7.308210   -2.903277   -2.412756
  H      7.233550    2.811896    2.515526

 Total Charge           Charge          ....    0
 Multiplicity           Mult            ....    1
 Number of Electrons    NEL             ....  410
 Basis Dimension        Dim             .... 2114

ORBITAL ENERGIES
----------------

  NO   OCC          E(Eh)            E(eV)
   0   2.0000     -15.152647      -412.3245
   1   2.0000     -15.149784      -412.2466
   2   2.0000     -15.149481      -412.2383
   3   2.0000     -15.143671      -412.0802
   4   2.0000     -15.112617      -411.2352
   5   2.0000     -15.112515      -411.2324
   6   2.0000     -10.938877      -297.6620
   7   2.0000     -10.935959      -297.5826
   8   2.0000     -10.935893      -297.5808
   9   2.0000     -10.916404      -297.0505
  10   2.0000     -10.902202      -296.6640
  11   2.0000     -10.902039      -296.6596
  12   2.0000     -10.895937      -296.4935
  13   2.0000     -10.895875      -296.4918
  14   2.0000     -10.879794      -296.0542
  15   2.0000     -10.879514      -296.0466
  16   2.0000     -10.878456      -296.0178
  17   2.0000     -10.878346      -296.0149
  18   2.0000     -10.877529      -295.9926
  19   2.0000     -10.877347      -295.9877
  20   2.0000     -10.874658      -295.9145
  21   2.0000     -10.874224      -295.9027
  22   2.0000     -10.837709      -294.9091
  23   2.0000     -10.836980      -294.8892
  24   2.0000     -10.836784      -294.8839
  25   2.0000     -10.836696      -294.8815
  26   2.0000     -10.836057      -294.8641
  27   2.0000     -10.835971      -294.8618
  28   2.0000     -10.834288      -294.8160
  29   2.0000     -10.833577      -294.7966
  30   2.0000     -10.833473      -294.7938
  31   2.0000     -10.833355      -294.7906
  32   2.0000     -10.833148      -294.7849
  33   2.0000     -10.833079      -294.7831
  34   2.0000     -10.833027      -294.7817
  35   2.0000     -10.833003      -294.7810
  36   2.0000     -10.832440      -294.7657
  37   2.0000     -10.832417      -294.7651
  38   2.0000     -10.832314      -294.7622
  39   2.0000     -10.832253      -294.7606
  40   2.0000     -10.831500      -294.7401
  41   2.0000     -10.831388      -294.7371
  42   2.0000     -10.831329      -294.7354
  43   2.0000     -10.831323      -294.7353
  44   2.0000     -10.831167      -294.7310
  45   2.0000     -10.831098      -294.7292
  46   2.0000     -10.831088      -294.7289
  47   2.0000     -10.830991      -294.7262
  48   2.0000     -10.829949      -294.6979
  49   2.0000     -10.829904      -294.6967
  50   2.0000     -10.829852      -294.6953
  51   2.0000     -10.829660      -294.6900
  52   2.0000     -10.828626      -294.6619
  53   2.0000     -10.828398      -294.6557
  54   2.0000     -10.824257      -294.5430
  55   2.0000     -10.824179      -294.5409
  56   2.0000     -10.823867      -294.5324
  57   2.0000     -10.823856      -294.5321
  58   2.0000     -10.823772      -294.5298
  59   2.0000     -10.823673      -294.5271
  60   2.0000     -10.822418      -294.4930
  61   2.0000     -10.822220      -294.4876
  62   2.0000      -1.232070       -33.5263
  63   2.0000      -1.218392       -33.1541
  64   2.0000      -1.214209       -33.0403
  65   2.0000      -1.196460       -32.5573
  66   2.0000      -1.129962       -30.7478
  67   2.0000      -1.126341       -30.6493
  68   2.0000      -1.100787       -29.9539
  69   2.0000      -1.062086       -28.9008
  70   2.0000      -1.058626       -28.8067
  71   2.0000      -1.043452       -28.3938
  72   2.0000      -1.042338       -28.3635
  73   2.0000      -1.041717       -28.3466
  74   2.0000      -1.040824       -28.3223
  75   2.0000      -1.038923       -28.2705
  76   2.0000      -1.030420       -28.0392
  77   2.0000      -0.996223       -27.1086
  78   2.0000      -0.988201       -26.8903
  79   2.0000      -0.964188       -26.2369
  80   2.0000      -0.960114       -26.1260
  81   2.0000      -0.956695       -26.0330
  82   2.0000      -0.944782       -25.7088
  83   2.0000      -0.929477       -25.2923
  84   2.0000      -0.928905       -25.2768
  85   2.0000      -0.928282       -25.2598
  86   2.0000      -0.926100       -25.2005
  87   2.0000      -0.912539       -24.8314
  88   2.0000      -0.909528       -24.7495
  89   2.0000      -0.903193       -24.5771
  90   2.0000      -0.889533       -24.2054
  91   2.0000      -0.888898       -24.1881
  92   2.0000      -0.888611       -24.1803
  93   2.0000      -0.886460       -24.1218
  94   2.0000      -0.882521       -24.0146
  95   2.0000      -0.838804       -22.8250
  96   2.0000      -0.833672       -22.6854
  97   2.0000      -0.802319       -21.8322
  98   2.0000      -0.795182       -21.6380
  99   2.0000      -0.783229       -21.3128
 100   2.0000      -0.782838       -21.3021
 101   2.0000      -0.762133       -20.7387
 102   2.0000      -0.756888       -20.5960
 103   2.0000      -0.755292       -20.5525
 104   2.0000      -0.751335       -20.4449
 105   2.0000      -0.749629       -20.3984
 106   2.0000      -0.748411       -20.3653
 107   2.0000      -0.729134       -19.8407
 108   2.0000      -0.725038       -19.7293
 109   2.0000      -0.719489       -19.5783
 110   2.0000      -0.717598       -19.5268
 111   2.0000      -0.716752       -19.5038
 112   2.0000      -0.714286       -19.4367
 113   2.0000      -0.698651       -19.0113
 114   2.0000      -0.683866       -18.6089
 115   2.0000      -0.677401       -18.4330
 116   2.0000      -0.658560       -17.9203
 117   2.0000      -0.655943       -17.8491
 118   2.0000      -0.645787       -17.5728
 119   2.0000      -0.642652       -17.4874
 120   2.0000      -0.641712       -17.4619
 121   2.0000      -0.637091       -17.3361
 122   2.0000      -0.633869       -17.2484
 123   2.0000      -0.631719       -17.1899
 124   2.0000      -0.629281       -17.1236
 125   2.0000      -0.624891       -17.0042
 126   2.0000      -0.607592       -16.5334
 127   2.0000      -0.606979       -16.5168
 128   2.0000      -0.581923       -15.8349
 129   2.0000      -0.577286       -15.7088
 130   2.0000      -0.576825       -15.6962
 131   2.0000      -0.575202       -15.6520
 132   2.0000      -0.573761       -15.6128
 133   2.0000      -0.569120       -15.4865
 134   2.0000      -0.568780       -15.4773
 135   2.0000      -0.568553       -15.4711
 136   2.0000      -0.567906       -15.4535
 137   2.0000      -0.557312       -15.1652
 138   2.0000      -0.556436       -15.1414
 139   2.0000      -0.552130       -15.0242
 140   2.0000      -0.547140       -14.8884
 141   2.0000      -0.546448       -14.8696
 142   2.0000      -0.543496       -14.7893
 143   2.0000      -0.542161       -14.7530
 144   2.0000      -0.539763       -14.6877
 145   2.0000      -0.539324       -14.6757
 146   2.0000      -0.538530       -14.6542
 147   2.0000      -0.538061       -14.6414
 148   2.0000      -0.536022       -14.5859
 149   2.0000      -0.534509       -14.5447
 150   2.0000      -0.531481       -14.4623
 151   2.0000      -0.527203       -14.3459
 152   2.0000      -0.526757       -14.3338
 153   2.0000      -0.524198       -14.2642
 154   2.0000      -0.523898       -14.2560
 155   2.0000      -0.522802       -14.2262
 156   2.0000      -0.515514       -14.0279
 157   2.0000      -0.515102       -14.0166
 158   2.0000      -0.510839       -13.9006
 159   2.0000      -0.487359       -13.2617
 160   2.0000      -0.468916       -12.7599
 161   2.0000      -0.468064       -12.7367
 162   2.0000      -0.467658       -12.7256
 163   2.0000      -0.467368       -12.7177
 164   2.0000      -0.466516       -12.6946
 165   2.0000      -0.466423       -12.6920
 166   2.0000      -0.465534       -12.6678
 167   2.0000      -0.464230       -12.6323
 168   2.0000      -0.461259       -12.5515
 169   2.0000      -0.456572       -12.4240
 170   2.0000      -0.455213       -12.3870
 171   2.0000      -0.449122       -12.2212
 172   2.0000      -0.448746       -12.2110
 173   2.0000      -0.443556       -12.0698
 174   2.0000      -0.443193       -12.0599
 175   2.0000      -0.439822       -11.9682
 176   2.0000      -0.439522       -11.9600
 177   2.0000      -0.437959       -11.9175
 178   2.0000      -0.437654       -11.9092
 179   2.0000      -0.436905       -11.8888
 180   2.0000      -0.435532       -11.8514
 181   2.0000      -0.435323       -11.8457
 182   2.0000      -0.433368       -11.7926
 183   2.0000      -0.431478       -11.7411
 184   2.0000      -0.429808       -11.6957
 185   2.0000      -0.424749       -11.5580
 186   2.0000      -0.415051       -11.2941
 187   2.0000      -0.361356        -9.8330
 188   2.0000      -0.359321        -9.7776
 189   2.0000      -0.355857        -9.6834
 190   2.0000      -0.353588        -9.6216
 191   2.0000      -0.343989        -9.3604
 192   2.0000      -0.342356        -9.3160
 193   2.0000      -0.324184        -8.8215
 194   2.0000      -0.321559        -8.7501
 195   2.0000      -0.319374        -8.6906
 196   2.0000      -0.315100        -8.5743
 197   2.0000      -0.277286        -7.5453
 198   2.0000      -0.276389        -7.5209
 199   2.0000      -0.272629        -7.4186
 200   2.0000      -0.272509        -7.4153
 201   2.0000      -0.270956        -7.3731
 202   2.0000      -0.269362        -7.3297
 203   2.0000      -0.263073        -7.1586
 204   2.0000      -0.257785        -7.0147
 205   0.0000      -0.016599        -0.4517
 206   0.0000       0.002280         0.0621
 207   0.0000       0.028877         0.7858
 208   0.0000       0.029744         0.8094
 209   0.0000       0.030993         0.8434

MULLIKEN ATOMIC CHARGES
-----------------------
   0 C :   -0.043315
   1 C :    0.037128
   2 C :   -0.036252
   3 C :    0.142041
   4 C :    0.096524
   5 C :    0.161446
   6 C :   -0.183333
   7 C :   -0.182118
   8 N :   -0.156469
   9 N :   -0.156183
  10 N :    0.128357
  11 C :    0.205572
  12 C :    0.084853
  13 C :   -0.303222
  14 C :    0.028671
  15 C :   -0.274137
  16 C :   -0.022629
  17 C :   -0.152516
  18 H :    0.168442
  19 C :   -0.213084
  20 C :   -0.154284
  21 H :    0.190853
  22 C :   -0.261038
  23 C :   -0.176941
  24 H :    0.163102
  25 H :    0.167554
  26 C :   -0.160185
  27 H :    0.164246
  28 H :    0.166581
  29 H :    0.158348
  30 H :    0.160504
  31 N :    0.311477
  32 C :    0.121218
  33 C :    0.131439
  34 C :   -0.338332
  35 C :    0.022947
  36 C :   -0.353029
  37 C :    0.026814
  38 C :   -0.138555
  39 H :    0.165213
  40 C :   -0.243906
  41 C :   -0.128962
  42 H :    0.171788
  43 C :   -0.238259
  44 C :   -0.168901
  45 H :    0.161910
  46 H :    0.165197
  47 C :   -0.173625
  48 H :    0.162141
  49 H :    0.164940
  50 H :    0.158136
  51 H :    0.157670
  52 N :    0.136367
  53 C :    0.084960
  54 C :    0.199311
  55 C :   -0.269379
  56 C :   -0.014893
  57 C :   -0.296079
  58 C :    0.029890
  59 C :   -0.156287
  60 H :    0.193007
  61 C :   -0.257774
  62 C :   -0.158485
  63 H :    0.168611
  64 C :   -0.221657
  65 C :   -0.161563
  66 H :    0.163945
  67 H :    0.166271
  68 C :   -0.169922
  69 H :    0.162609
  70 H :    0.167547
  71 H :    0.159989
  72 H :    0.159115
  73 N :    0.046282
  74 C :    0.152764
  75 C :    0.158233
  76 C :   -0.288604
  77 C :   -0.005437
  78 C :   -0.287602
  79 C :   -0.005948
  80 C :   -0.142107
  81 H :    0.186176
  82 C :   -0.229313
  83 C :   -0.147045
  84 H :    0.185675
  85 C :   -0.228684
  86 C :   -0.175339
  87 H :    0.165058
  88 H :    0.166541
  89 C :   -0.173328
  90 H :    0.164973
  91 H :    0.167465
  92 H :    0.159271
  93 H :    0.159550
Sum of atomic charges:    0.0000000

LOEWDIN ATOMIC CHARGES
----------------------
   0 C :   -0.037941
   1 C :   -0.076539
   2 C :   -0.039112
   3 C :   -0.070255
   4 C :   -0.040118
   5 C :   -0.069632
   6 C :   -0.116737
   7 C :   -0.116510
   8 N :    0.023095
   9 N :    0.022912
  10 N :    0.315876
  11 C :   -0.110504
  12 C :   -0.115991
  13 C :   -0.109414
  14 C :   -0.085262
  15 C :   -0.120120
  16 C :   -0.086872
  17 C :   -0.138506
  18 H :    0.159613
  19 C :   -0.098533
  20 C :   -0.138433
  21 H :    0.159572
  22 C :   -0.096738
  23 C :   -0.158454
  24 H :    0.152828
  25 H :    0.155615
  26 C :   -0.158409
  27 H :    0.152749
  28 H :    0.155949
  29 H :    0.149767
  30 H :    0.149931
  31 N :    0.313090
  32 C :   -0.118050
  33 C :   -0.117634
  34 C :   -0.114294
  35 C :   -0.087427
  36 C :   -0.113769
  37 C :   -0.087516
  38 C :   -0.140149
  39 H :    0.159382
  40 C :   -0.099435
  41 C :   -0.140252
  42 H :    0.159368
  43 C :   -0.099415
  44 C :   -0.161294
  45 H :    0.152349
  46 H :    0.155068
  47 C :   -0.161630
  48 H :    0.152334
  49 H :    0.155106
  50 H :    0.149106
  51 H :    0.149026
  52 N :    0.316318
  53 C :   -0.115303
  54 C :   -0.110070
  55 C :   -0.119787
  56 C :   -0.086693
  57 C :   -0.109425
  58 C :   -0.084946
  59 C :   -0.138481
  60 H :    0.159160
  61 C :   -0.096860
  62 C :   -0.138495
  63 H :    0.159681
  64 C :   -0.098572
  65 C :   -0.158276
  66 H :    0.152794
  67 H :    0.155941
  68 C :   -0.158150
  69 H :    0.152799
  70 H :    0.155600
  71 H :    0.149943
  72 H :    0.149815
  73 N :    0.315522
  74 C :   -0.108491
  75 C :   -0.108704
  76 C :   -0.117897
  77 C :   -0.084486
  78 C :   -0.117784
  79 C :   -0.084441
  80 C :   -0.138228
  81 H :    0.159144
  82 C :   -0.096607
  83 C :   -0.138076
  84 H :    0.158973
  85 C :   -0.096451
  86 C :   -0.157865
  87 H :    0.152873
  88 H :    0.156138
  89 C :   -0.157696
  90 H :    0.152903
  91 H :    0.156120
  92 H :    0.150122
  93 H :    0.150143

  Mayer bond orders larger than 0.100000
B(  0-C ,  1-C ) :   1.5806 B(  0-C ,  5-C ) :   1.3079 B(  0-C , 10-N ) :   1.0611
B(  1-C ,  2-C ) :   1.5723 B(  1-C , 31-N ) :   1.0802 B(  2-C ,  3-C ) :   1.2986
B(  2-C , 52-N ) :   1.0716 B(  3-C ,  4-C ) :   1.3394 B(  3-C ,  6-C ) :   0.9880
B(  4-C ,  5-C ) :   1.3486 B(  4-C , 73-N ) :   1.1107 B(  5-C ,  7-C ) :   0.9834
B(  6-C ,  8-N ) :   2.9993 B(  7-C ,  9-N ) :   2.9992 B( 10-N , 11-C ) :   1.0167
B( 10-N , 12-C ) :   1.0327 B( 11-C , 13-C ) :   1.4143 B( 11-C , 14-C ) :   1.3131
B( 12-C , 15-C ) :   1.4407 B( 12-C , 16-C ) :   1.3151 B( 13-C , 17-C ) :   1.4383
B( 13-C , 18-H ) :   0.9780 B( 14-C , 16-C ) :   1.0222 B( 14-C , 19-C ) :   1.3026
B( 15-C , 20-C ) :   1.4195 B( 15-C , 21-H ) :   0.9572 B( 16-C , 22-C ) :   1.3151
B( 17-C , 23-C ) :   1.3341 B( 17-C , 24-H ) :   0.9842 B( 19-C , 23-C ) :   1.4625
B( 19-C , 25-H ) :   0.9806 B( 20-C , 26-C ) :   1.3506 B( 20-C , 27-H ) :   0.9791
B( 22-C , 26-C ) :   1.4701 B( 22-C , 28-H ) :   0.9849 B( 23-C , 29-H ) :   0.9954
B( 26-C , 30-H ) :   0.9890 B( 31-N , 32-C ) :   0.9787 B( 31-N , 33-C ) :   0.9874
B( 32-C , 34-C ) :   1.4531 B( 32-C , 35-C ) :   1.3219 B( 33-C , 36-C ) :   1.4497
B( 33-C , 37-C ) :   1.3122 B( 34-C , 38-C ) :   1.4209 B( 34-C , 39-H ) :   0.9914
B( 35-C , 37-C ) :   1.0492 B( 35-C , 40-C ) :   1.2997 B( 36-C , 41-C ) :   1.4228
B( 36-C , 42-H ) :   0.9863 B( 37-C , 43-C ) :   1.2925 B( 38-C , 44-C ) :   1.3354
B( 38-C , 45-H ) :   0.9844 B( 40-C , 44-C ) :   1.4678 B( 40-C , 46-H ) :   0.9848
B( 41-C , 47-C ) :   1.3354 B( 41-C , 48-H ) :   0.9838 B( 43-C , 47-C ) :   1.4663
B( 43-C , 49-H ) :   0.9871 B( 44-C , 50-H ) :   0.9931 B( 47-C , 51-H ) :   0.9936
B( 52-N , 53-C ) :   1.0328 B( 52-N , 54-C ) :   1.0138 B( 53-C , 55-C ) :   1.4422
B( 53-C , 56-C ) :   1.3194 B( 54-C , 57-C ) :   1.4202 B( 54-C , 58-C ) :   1.3242
B( 55-C , 59-C ) :   1.4229 B( 55-C , 60-H ) :   0.9532 B( 56-C , 58-C ) :   1.0205
B( 56-C , 61-C ) :   1.3120 B( 57-C , 62-C ) :   1.4374 B( 57-C , 63-H ) :   0.9790
B( 58-C , 64-C ) :   1.3029 B( 59-C , 65-C ) :   1.3453 B( 59-C , 66-H ) :   0.9800
B( 61-C , 65-C ) :   1.4680 B( 61-C , 67-H ) :   0.9842 B( 62-C , 68-C ) :   1.3358
B( 62-C , 69-H ) :   0.9843 B( 64-C , 68-C ) :   1.4650 B( 64-C , 70-H ) :   0.9799
B( 65-C , 71-H ) :   0.9909 B( 68-C , 72-H ) :   0.9934 B( 73-N , 74-C ) :   1.0472
B( 73-N , 75-C ) :   1.0451 B( 74-C , 76-C ) :   1.4164 B( 74-C , 77-C ) :   1.3242
B( 75-C , 78-C ) :   1.4081 B( 75-C , 79-C ) :   1.3268 B( 76-C , 80-C ) :   1.4399
B( 76-C , 81-H ) :   0.9578 B( 77-C , 79-C ) :   1.0488 B( 77-C , 82-C ) :   1.3058
B( 78-C , 83-C ) :   1.4380 B( 78-C , 84-H ) :   0.9594 B( 79-C , 85-C ) :   1.3106
B( 80-C , 86-C ) :   1.3450 B( 80-C , 87-H ) :   0.9786 B( 82-C , 86-C ) :   1.4620
B( 82-C , 88-H ) :   0.9852 B( 83-C , 89-C ) :   1.3478 B( 83-C , 90-H ) :   0.9787
B( 85-C , 89-C ) :   1.4661 B( 85-C , 91-H ) :   0.9821 B( 86-C , 92-H ) :   0.9918
B( 89-C , 93-H ) :   0.9909

MP2 TOTAL ENERGY:    -2479.475906328 Eh

-----------------------------------------------------------------------------
         ABSORPTION SPECTRUM VIA TRANSITION ELECTRIC DIPOLE MOMENTS
-----------------------------------------------------------------------------
State   Energy    Wavelength  fosc         T2        TX        TY        TZ
        (cm-1)      (nm)                 (au**2)    (au)      (au)      (au)
-----------------------------------------------------------------------------
   1   10700.8    934.5   0.079121462   2.43418   0.02741  -1.46603   0.53310
   2   16470.1    607.2   0.011061188   0.22110   0.47014   0.00637   0.00456
   3   15596.5    641.2   0.246128101   5.19529  -2.27909  -0.02656   0.01819
   4   11841.1    844.5   0.023205782   0.64518  -0.13384   0.76853  -0.19139
   5   12785.9    782.1   0.003501457   0.09016  -0.06983   0.13992  -0.25632
   6   18413.8    543.1   0.000894057   0.01598  -0.11566   0.00823   0.05038
   7   20346.2    491.5   0.011867964   0.19203   0.37631  -0.08377  -0.20833
   8   30471.3    328.2   0.073781035   0.79713   0.14863   0.29946   0.82787
   9   24999.8    400.0   0.112084563   1.47600  -0.12111  -0.21692   1.18923
  10   22613.8    442.2   0.123473463   1.79753  -1.32067  -0.13496  -0.18750
  11   23411.2    427.1   0.001013239   0.01425   0.07002  -0.09550   0.01503
  12   31692.9    315.5   0.001307671   0.01358   0.03165   0.04439   0.10301
  13   27172.4    368.0   0.333040573   4.03501  -0.28583   1.65550   1.10119
  14   27928.4    358.1   0.075818208   0.89372   0.84959   0.38389   0.15665
  15   19643.1    509.1   0.108604934   1.82018  -0.03058  -0.63459  -1.19019
  16   17160.3    582.7   0.019500696   0.37411  -0.51797  -0.32002  -0.05831
  17   17644.8    566.7   0.117821696   2.19829   0.10871  -1.45937  -0.23811
  18   14130.1    707.7   0.001333615   0.03107  -0.17526   0.00915  -0.01652
  19   14606.4    684.6   0.001892148   0.04265  -0.20149   0.04245   0.01568
  20   19330.3    517.3   0.012588220   0.21439  -0.02428  -0.43901  -0.14516
  21   12878.4    776.5   0.006477043   0.16557   0.40668  -0.01103  -0.00766
  22   17895.0    558.8   0.008419247   0.15489  -0.00107  -0.00238  -0.39355
  23   20399.7    490.2   0.000514722   0.00831   0.08724   0.00591  -0.02569
  24   25297.5    395.3   0.000651218   0.00847  -0.04783  -0.06353  -0.04638
  25   35130.1    284.7   0.106168407   0.99493  -0.99743   0.00720  -0.00353
  26   29271.6    341.6   0.105069173   1.18169  -0.21326   0.45443   0.96421
  27   27403.0    364.9   0.044112506   0.52996   0.60989   0.37952   0.11816
  28   28802.5    347.2   0.118053407   1.34935  -1.14275   0.17267  -0.11688
  29   30884.2    323.8   0.056412092   0.60133   0.09756  -0.23557  -0.73234
  30   26439.6    378.2   0.211745501   2.63654   0.04877   1.61101   0.19703
  31   25748.6    388.4   0.081010999   1.03577  -0.86378  -0.32499  -0.42900
  32   29616.2    337.7   0.095820742   1.06514   0.89884   0.47585   0.17550
  33   29947.6    333.9   0.024401433   0.26824   0.19954   0.24030   0.41314
  34   27268.6    366.7   0.265146159   3.20109   0.27488  -1.11125  -1.37501
  35   25056.8    399.1   0.052304158   0.68720  -0.54891   0.37002   0.49899
  36   35484.7    281.8   0.391642310   3.63349   0.01896   1.55532  -1.10186
  37   31112.9    321.4   0.174992626   1.85163  -1.33347   0.22228  -0.15517
  38   32992.3    303.1   0.056926685   0.56804   0.02433   0.71227   0.24518
  39   33502.5    298.5   0.150027098   1.47424   1.20700  -0.03810  -0.12621
  40   36654.7    272.8   0.164381629   1.47638   1.14044   0.27873   0.31320
  41   33699.3    296.7   0.982912119   9.60218  -0.23306   2.15826   2.21129
  42   31780.3    314.7   0.079467772   0.82321   0.47402   0.57193   0.52097
  43   33219.1    301.0   0.214905887   2.12978   0.02850   0.05909  -1.45790
  44   33464.4    298.8   0.002134255   0.02100   0.05652   0.07269   0.11188
  45   31488.6    317.6   0.020343333   0.21269   0.04475  -0.13311   0.43928
  46   26443.3    378.2   0.196762781   2.44964  -1.49279  -0.44061  -0.16452
  47   32997.4    303.1   0.404404141   4.03470   0.06331   1.94897   0.48187
  48   32533.3    307.4   0.157944001   1.59827  -0.33336   1.19184   0.25817
  49   34074.2    293.5   0.232768831   2.24892   0.05195  -1.22715  -0.86043
  50   29742.7    336.2   0.269015682   2.97764   0.15665   1.22853   1.20159
  51   36857.4    271.3   0.437122114   3.90439   1.95294  -0.23777  -0.18403
  52   32674.3    306.1   0.004427297   0.04461  -0.01475   0.20722   0.03808
  53   24871.6    402.1   0.082834588   1.09644   1.02583   0.18794   0.09371
  54   37211.7    268.7   0.085084438   0.75274  -0.08610  -0.64010   0.57931
  55   38928.6    256.9   0.183142214   1.54880  -1.23958   0.09667  -0.05392
  56   32516.3    307.5   0.043953044   0.44500  -0.08496  -0.53053  -0.39538
  57   38106.3    262.4   0.026020826   0.22480  -0.47337  -0.02628  -0.00582
  58   41980.4    238.2   0.002096333   0.01644  -0.04798  -0.07633  -0.09117
  59   34842.8    287.0   0.032259422   0.30480  -0.55098  -0.02701   0.02226
  60   43529.7    229.7   0.010866344   0.08218   0.28274  -0.02705   0.03884

Dispersion correction           -0.117040426
FINAL SINGLE POINT ENERGY     -2474.673045450035

DIPOLE MOMENT
-------------
                                X             Y             Z
Electronic contribution:     10.28627      -0.29881      -0.16451
Nuclear contribution   :    -12.16803       0.34345       0.17306
                        -----------------------------------------
Total Dipole Moment    :     -1.88176       0.04464       0.00854
                        -----------------------------------------
Magnitude (a.u.)       :      1.88231
Magnitude (Debye)      :      4.78445

Rotational constants in cm-1:     0.001908     0.001510     0.001076
Rotational constants in MHz :    57.202954    45.270471    32.244588

                             ****ORCA TERMINATED NORMALLY****
TOTAL RUN TIME: 6 days 12 hours 3 minutes 41 seconds 359 msec
