                         Program Version 5.0.2 -  RELEASE  -
|  1> %maxcore 20000
|  2> %pal
|  3>  nprocs= 6
|  4> end
|  5> ! RI-B2GP-PLYP   def2-TZVP def2/J def2-TZVP/C RIJCOSX CPCM TightSCF
|  6> %TDDFT
|  7>    NROOTS   60
|  8>    dcorr 4
|  9>    TDA      FALSE
| 10> END
| 11>
| 12> %CPCM
| 13>    SMD          TRUE
| 14>    SMDsolvent   "ACETONITRILE"
| 15>  END
| 16>
| 17>
| 18> * xyz 0 1
| 19> C                   0.13708300   -1.17921300    0.31930200
| 20> C                  -0.55557000   -0.00182600   -0.00879400
| 21> C                   0.17541900    1.14900900   -0.35453000
| 22> C                   1.58092900    1.11156100   -0.37592900
| 23> C                   2.27561400   -0.04695700   -0.00771500
| 24> C                   1.54385000   -1.18685600    0.34407400
| 25> C                   2.29711500    2.21798600   -0.89758300
| 26> C                   2.21958000   -2.32286400    0.85557100
| 27> N                   2.88133300    3.11141900   -1.34291000
| 28> N                   2.77150900   -3.24146800    1.29073100
| 29> N                  -0.54323800   -2.34995200    0.66815600
| 30> C                  -1.50614500   -2.48840000    1.67144800
| 31> C                  -0.46523800   -3.55919600   -0.03591300
| 32> C                  -1.86852100   -1.59253500    2.66479500
| 33> C                  -2.06133600   -3.77985600    1.59078400
| 34> C                   0.31174400   -3.88150000   -1.13825200
| 35> C                  -1.39982900   -4.45894200    0.50924100
| 36> C                  -2.85713300   -1.98676600    3.55238400
| 37> H                  -1.39444800   -0.62438900    2.75418400
| 38> C                  -3.04733600   -4.15520300    2.49888900
| 39> C                   0.15766400   -5.14808800   -1.68009800
| 40> H                   1.00342200   -3.17104100   -1.57402000
| 41> C                  -1.53710300   -5.72401500   -0.05534200
| 42> C                  -3.44896500   -3.24908300    3.46604100
| 43> H                  -3.16699900   -1.30238600    4.33238500
| 44> H                  -3.48554400   -5.14437000    2.45065000
| 45> C                  -0.75208900   -6.06227000   -1.14423600
| 46> H                   0.75434000   -5.42893300   -2.53844000
| 47> H                  -2.25480000   -6.42663900    0.34980800
| 48> H                  -4.21790100   -3.52572800    4.17561500
| 49> H                  -0.84662000   -7.04305200   -1.59182800
| 50> N                  -1.95704500    0.03452400    0.02264600
| 51> C                  -2.72329000    0.88714200    0.82077400
| 52> C                  -2.82597400   -0.76917400   -0.71854200
| 53> C                  -2.30390500    1.80349400    1.77277500
| 54> C                  -4.08709800    0.63374500    0.57976800
| 55> C                  -2.53349300   -1.71964500   -1.68518000
| 56> C                  -4.15239800   -0.42587400   -0.38980200
| 57> C                  -3.27936500    2.51716500    2.45073600
| 58> H                  -1.25501600    1.94579900    1.99750400
| 59> C                  -5.04906900    1.35954100    1.27800200
| 60> C                  -3.59784400   -2.37067000   -2.28840100
| 61> H                  -1.51428700   -1.93831100   -1.97547100
| 62> C                  -5.20460700   -1.09027000   -1.01444600
| 63> C                  -4.63782200    2.30702700    2.20026800
| 64> H                  -2.97801700    3.24468400    3.19418500
| 65> H                  -6.10241500    1.17673100    1.10476800
| 66> C                  -4.91982400   -2.06831100   -1.95218400
| 67> H                  -3.39544300   -3.12362200   -3.04003600
| 68> H                  -6.22943700   -0.83797800   -0.77143200
| 69> H                  -5.37474200    2.88169000    2.74614800
| 70> H                  -5.72776900   -2.59662700   -2.44142400
| 71> N                  -0.47106700    2.33134400   -0.72615700
| 72> C                  -0.35292600    3.56244000   -0.06641300
| 73> C                  -1.43756700    2.46289400   -1.72746400
| 74> C                   0.44524700    3.90427700    1.01462900
| 75> C                  -1.26881200    4.46734500   -0.63442000
| 76> C                  -1.82862900    1.54484800   -2.68876600
| 77> C                  -1.95673600    3.77063400   -1.68793100
| 78> C                   0.32982100    5.19250100    1.51297200
| 79> H                   1.12481000    3.19252600    1.46669800
| 80> C                  -1.36739400    5.75468000   -0.11368900
| 81> C                  -2.81013900    1.93585500   -3.58559600
| 82> H                  -1.38090900    0.56179700   -2.74824300
| 83> C                  -2.93667200    4.14252200   -2.60424800
| 84> C                  -0.56251600    6.11043800    0.95479100
| 85> H                   0.94418100    5.48810100    2.35372100
| 86> H                  -2.07040300    6.46128200   -0.53718300
| 87> C                  -3.36736500    3.21586500   -3.53881100
| 88> H                  -3.14211500    1.23454300   -4.34107000
| 89> H                  -3.34792300    5.14420300   -2.58711500
| 90> H                  -0.62667900    7.10857500    1.36808600
| 91> H                  -4.13204300    3.48958200   -4.25412000
| 92> N                   3.67041100   -0.05888600    0.01233800
| 93> C                   4.49945100   -0.92778800   -0.70614300
| 94> C                   4.47884200    0.81349800    0.75011600
| 95> C                   4.15614100   -1.92990900   -1.60095800
| 96> C                   5.84035900   -0.60371400   -0.42471300
| 97> C                   4.10784700    1.81357600    1.63581300
| 98> C                   5.82726700    0.49749600    0.50011600
| 99> C                   5.18973100   -2.63091600   -2.20169000
|100> H                   3.12314600   -2.15872200   -1.82982700
|101> C                   6.85968100   -1.32161400   -1.04402200
|102> C                   5.12221200    2.52335000    2.25843000
|103> H                   3.06808600    2.03515200    1.84063800
|104> C                   6.82728100    1.22378000    1.14126400
|105> C                   6.52640500   -2.33537600   -1.92535500
|106> H                   4.95141700   -3.42150100   -2.90157100
|107> H                   7.89609600   -1.08290000   -0.83981100
|108> C                   6.46688700    2.23720500    2.01228600
|109> H                   4.86241600    3.31320900    2.95145900
|110> H                   7.86979500    0.99261000    0.96072100
|111> H                   7.30821000   -2.90327700   -2.41275600
|112> H                   7.23355000    2.81189600    2.51552600
|113> *
|114>
|115>
|116>                          ****END OF INPUT****

CARTESIAN COORDINATES (ANGSTROEM)
---------------------------------
  C      0.137083   -1.179213    0.319302
  C     -0.555570   -0.001826   -0.008794
  C      0.175419    1.149009   -0.354530
  C      1.580929    1.111561   -0.375929
  C      2.275614   -0.046957   -0.007715
  C      1.543850   -1.186856    0.344074
  C      2.297115    2.217986   -0.897583
  C      2.219580   -2.322864    0.855571
  N      2.881333    3.111419   -1.342910
  N      2.771509   -3.241468    1.290731
  N     -0.543238   -2.349952    0.668156
  C     -1.506145   -2.488400    1.671448
  C     -0.465238   -3.559196   -0.035913
  C     -1.868521   -1.592535    2.664795
  C     -2.061336   -3.779856    1.590784
  C      0.311744   -3.881500   -1.138252
  C     -1.399829   -4.458942    0.509241
  C     -2.857133   -1.986766    3.552384
  H     -1.394448   -0.624389    2.754184
  C     -3.047336   -4.155203    2.498889
  C      0.157664   -5.148088   -1.680098
  H      1.003422   -3.171041   -1.574020
  C     -1.537103   -5.724015   -0.055342
  C     -3.448965   -3.249083    3.466041
  H     -3.166999   -1.302386    4.332385
  H     -3.485544   -5.144370    2.450650
  C     -0.752089   -6.062270   -1.144236
  H      0.754340   -5.428933   -2.538440
  H     -2.254800   -6.426639    0.349808
  H     -4.217901   -3.525728    4.175615
  H     -0.846620   -7.043052   -1.591828
  N     -1.957045    0.034524    0.022646
  C     -2.723290    0.887142    0.820774
  C     -2.825974   -0.769174   -0.718542
  C     -2.303905    1.803494    1.772775
  C     -4.087098    0.633745    0.579768
  C     -2.533493   -1.719645   -1.685180
  C     -4.152398   -0.425874   -0.389802
  C     -3.279365    2.517165    2.450736
  H     -1.255016    1.945799    1.997504
  C     -5.049069    1.359541    1.278002
  C     -3.597844   -2.370670   -2.288401
  H     -1.514287   -1.938311   -1.975471
  C     -5.204607   -1.090270   -1.014446
  C     -4.637822    2.307027    2.200268
  H     -2.978017    3.244684    3.194185
  H     -6.102415    1.176731    1.104768
  C     -4.919824   -2.068311   -1.952184
  H     -3.395443   -3.123622   -3.040036
  H     -6.229437   -0.837978   -0.771432
  H     -5.374742    2.881690    2.746148
  H     -5.727769   -2.596627   -2.441424
  N     -0.471067    2.331344   -0.726157
  C     -0.352926    3.562440   -0.066413
  C     -1.437567    2.462894   -1.727464
  C      0.445247    3.904277    1.014629
  C     -1.268812    4.467345   -0.634420
  C     -1.828629    1.544848   -2.688766
  C     -1.956736    3.770634   -1.687931
  C      0.329821    5.192501    1.512972
  H      1.124810    3.192526    1.466698
  C     -1.367394    5.754680   -0.113689
  C     -2.810139    1.935855   -3.585596
  H     -1.380909    0.561797   -2.748243
  C     -2.936672    4.142522   -2.604248
  C     -0.562516    6.110438    0.954791
  H      0.944181    5.488101    2.353721
  H     -2.070403    6.461282   -0.537183
  C     -3.367365    3.215865   -3.538811
  H     -3.142115    1.234543   -4.341070
  H     -3.347923    5.144203   -2.587115
  H     -0.626679    7.108575    1.368086
  H     -4.132043    3.489582   -4.254120
  N      3.670411   -0.058886    0.012338
  C      4.499451   -0.927788   -0.706143
  C      4.478842    0.813498    0.750116
  C      4.156141   -1.929909   -1.600958
  C      5.840359   -0.603714   -0.424713
  C      4.107847    1.813576    1.635813
  C      5.827267    0.497496    0.500116
  C      5.189731   -2.630916   -2.201690
  H      3.123146   -2.158722   -1.829827
  C      6.859681   -1.321614   -1.044022
  C      5.122212    2.523350    2.258430
  H      3.068086    2.035152    1.840638
  C      6.827281    1.223780    1.141264
  C      6.526405   -2.335376   -1.925355
  H      4.951417   -3.421501   -2.901571
  H      7.896096   -1.082900   -0.839811
  C      6.466887    2.237205    2.012286
  H      4.862416    3.313209    2.951459
  H      7.869795    0.992610    0.960721
  H      7.308210   -2.903277   -2.412756
  H      7.233550    2.811896    2.515526

 Total Charge           Charge          ....    0
 Multiplicity           Mult            ....    1
 Number of Electrons    NEL             ....  410
 Basis Dimension        Dim             .... 2114

ORBITAL ENERGIES
----------------

  NO   OCC          E(Eh)            E(eV)
   0   2.0000     -15.092724      -410.6939
   1   2.0000     -15.089916      -410.6175
   2   2.0000     -15.089611      -410.6092
   3   2.0000     -15.083943      -410.4549
   4   2.0000     -15.052055      -409.5872
   5   2.0000     -15.051955      -409.5845
   6   2.0000     -10.887332      -296.2594
   7   2.0000     -10.884478      -296.1817
   8   2.0000     -10.884417      -296.1801
   9   2.0000     -10.865634      -295.6689
  10   2.0000     -10.851491      -295.2841
  11   2.0000     -10.851328      -295.2796
  12   2.0000     -10.844827      -295.1027
  13   2.0000     -10.844765      -295.1011
  14   2.0000     -10.828632      -294.6621
  15   2.0000     -10.828355      -294.6545
  16   2.0000     -10.827331      -294.6267
  17   2.0000     -10.827219      -294.6236
  18   2.0000     -10.826400      -294.6013
  19   2.0000     -10.826223      -294.5965
  20   2.0000     -10.823608      -294.5253
  21   2.0000     -10.823178      -294.5137
  22   2.0000     -10.786905      -293.5266
  23   2.0000     -10.786199      -293.5074
  24   2.0000     -10.786004      -293.5021
  25   2.0000     -10.785915      -293.4997
  26   2.0000     -10.785298      -293.4829
  27   2.0000     -10.785212      -293.4805
  28   2.0000     -10.783555      -293.4355
  29   2.0000     -10.782861      -293.4166
  30   2.0000     -10.782405      -293.4041
  31   2.0000     -10.782287      -293.4009
  32   2.0000     -10.782153      -293.3973
  33   2.0000     -10.782127      -293.3966
  34   2.0000     -10.782093      -293.3957
  35   2.0000     -10.782027      -293.3939
  36   2.0000     -10.781427      -293.3775
  37   2.0000     -10.781400      -293.3768
  38   2.0000     -10.781374      -293.3761
  39   2.0000     -10.781373      -293.3761
  40   2.0000     -10.780479      -293.3517
  41   2.0000     -10.780352      -293.3483
  42   2.0000     -10.780309      -293.3471
  43   2.0000     -10.780284      -293.3464
  44   2.0000     -10.780218      -293.3447
  45   2.0000     -10.780176      -293.3435
  46   2.0000     -10.780099      -293.3414
  47   2.0000     -10.780097      -293.3414
  48   2.0000     -10.778980      -293.3110
  49   2.0000     -10.778945      -293.3100
  50   2.0000     -10.778881      -293.3083
  51   2.0000     -10.778685      -293.3029
  52   2.0000     -10.777806      -293.2790
  53   2.0000     -10.777586      -293.2730
  54   2.0000     -10.773381      -293.1586
  55   2.0000     -10.773304      -293.1565
  56   2.0000     -10.773002      -293.1483
  57   2.0000     -10.772993      -293.1480
  58   2.0000     -10.772911      -293.1458
  59   2.0000     -10.772811      -293.1431
  60   2.0000     -10.771580      -293.1096
  61   2.0000     -10.771384      -293.1043
  62   2.0000      -1.217361       -33.1261
  63   2.0000      -1.203791       -32.7568
  64   2.0000      -1.199654       -32.6442
  65   2.0000      -1.182101       -32.1666
  66   2.0000      -1.115973       -30.3672
  67   2.0000      -1.112336       -30.2682
  68   2.0000      -1.087288       -29.5866
  69   2.0000      -1.048834       -28.5402
  70   2.0000      -1.045399       -28.4468
  71   2.0000      -1.030270       -28.0351
  72   2.0000      -1.029059       -28.0021
  73   2.0000      -1.028453       -27.9856
  74   2.0000      -1.027582       -27.9619
  75   2.0000      -1.025696       -27.9106
  76   2.0000      -1.017442       -27.6860
  77   2.0000      -0.983898       -26.7732
  78   2.0000      -0.975891       -26.5554
  79   2.0000      -0.951939       -25.9036
  80   2.0000      -0.947803       -25.7910
  81   2.0000      -0.944515       -25.7016
  82   2.0000      -0.932624       -25.3780
  83   2.0000      -0.917498       -24.9664
  84   2.0000      -0.916928       -24.9509
  85   2.0000      -0.916317       -24.9343
  86   2.0000      -0.914179       -24.8761
  87   2.0000      -0.900883       -24.5143
  88   2.0000      -0.897974       -24.4351
  89   2.0000      -0.891578       -24.2611
  90   2.0000      -0.877916       -23.8893
  91   2.0000      -0.877298       -23.8725
  92   2.0000      -0.877011       -23.8647
  93   2.0000      -0.874897       -23.8071
  94   2.0000      -0.871228       -23.7073
  95   2.0000      -0.828532       -22.5455
  96   2.0000      -0.823552       -22.4100
  97   2.0000      -0.792579       -21.5672
  98   2.0000      -0.785464       -21.3736
  99   2.0000      -0.773352       -21.0440
 100   2.0000      -0.772900       -21.0317
 101   2.0000      -0.752794       -20.4846
 102   2.0000      -0.747400       -20.3378
 103   2.0000      -0.746047       -20.3010
 104   2.0000      -0.742039       -20.1919
 105   2.0000      -0.740333       -20.1455
 106   2.0000      -0.739169       -20.1138
 107   2.0000      -0.720050       -19.5936
 108   2.0000      -0.715963       -19.4824
 109   2.0000      -0.710272       -19.3275
 110   2.0000      -0.708393       -19.2763
 111   2.0000      -0.707556       -19.2536
 112   2.0000      -0.705159       -19.1883
 113   2.0000      -0.690044       -18.7770
 114   2.0000      -0.675681       -18.3862
 115   2.0000      -0.669321       -18.2132
 116   2.0000      -0.650806       -17.7093
 117   2.0000      -0.648268       -17.6403
 118   2.0000      -0.637968       -17.3600
 119   2.0000      -0.634903       -17.2766
 120   2.0000      -0.633940       -17.2504
 121   2.0000      -0.629309       -17.1244
 122   2.0000      -0.626164       -17.0388
 123   2.0000      -0.624018       -16.9804
 124   2.0000      -0.621420       -16.9097
 125   2.0000      -0.617111       -16.7924
 126   2.0000      -0.600107       -16.3297
 127   2.0000      -0.599543       -16.3144
 128   2.0000      -0.574657       -15.6372
 129   2.0000      -0.570085       -15.5128
 130   2.0000      -0.569653       -15.5011
 131   2.0000      -0.568050       -15.4574
 132   2.0000      -0.566712       -15.4210
 133   2.0000      -0.561986       -15.2924
 134   2.0000      -0.561593       -15.2817
 135   2.0000      -0.561385       -15.2761
 136   2.0000      -0.560725       -15.2581
 137   2.0000      -0.550233       -14.9726
 138   2.0000      -0.549374       -14.9492
 139   2.0000      -0.545055       -14.8317
 140   2.0000      -0.540173       -14.6989
 141   2.0000      -0.539564       -14.6823
 142   2.0000      -0.536529       -14.5997
 143   2.0000      -0.535438       -14.5700
 144   2.0000      -0.532996       -14.5036
 145   2.0000      -0.532418       -14.4878
 146   2.0000      -0.531644       -14.4668
 147   2.0000      -0.531181       -14.4542
 148   2.0000      -0.529181       -14.3998
 149   2.0000      -0.527781       -14.3617
 150   2.0000      -0.524796       -14.2804
 151   2.0000      -0.520399       -14.1608
 152   2.0000      -0.520145       -14.1539
 153   2.0000      -0.517460       -14.0808
 154   2.0000      -0.517130       -14.0718
 155   2.0000      -0.515988       -14.0407
 156   2.0000      -0.509097       -13.8532
 157   2.0000      -0.507736       -13.8162
 158   2.0000      -0.503257       -13.6943
 159   2.0000      -0.481917       -13.1136
 160   2.0000      -0.462737       -12.5917
 161   2.0000      -0.461866       -12.5680
 162   2.0000      -0.461414       -12.5557
 163   2.0000      -0.461150       -12.5485
 164   2.0000      -0.460282       -12.5249
 165   2.0000      -0.460229       -12.5235
 166   2.0000      -0.459314       -12.4986
 167   2.0000      -0.458139       -12.4666
 168   2.0000      -0.455867       -12.4048
 169   2.0000      -0.451277       -12.2799
 170   2.0000      -0.449967       -12.2442
 171   2.0000      -0.443874       -12.0784
 172   2.0000      -0.443466       -12.0673
 173   2.0000      -0.438269       -11.9259
 174   2.0000      -0.437927       -11.9166
 175   2.0000      -0.434095       -11.8123
 176   2.0000      -0.433861       -11.8060
 177   2.0000      -0.432177       -11.7601
 178   2.0000      -0.431885       -11.7522
 179   2.0000      -0.431104       -11.7309
 180   2.0000      -0.429688       -11.6924
 181   2.0000      -0.429462       -11.6863
 182   2.0000      -0.427710       -11.6386
 183   2.0000      -0.426177       -11.5969
 184   2.0000      -0.424421       -11.5491
 185   2.0000      -0.419538       -11.4162
 186   2.0000      -0.410191       -11.1619
 187   2.0000      -0.358002        -9.7417
 188   2.0000      -0.355964        -9.6863
 189   2.0000      -0.352427        -9.5900
 190   2.0000      -0.350246        -9.5307
 191   2.0000      -0.341084        -9.2814
 192   2.0000      -0.339444        -9.2367
 193   2.0000      -0.321290        -8.7427
 194   2.0000      -0.318693        -8.6721
 195   2.0000      -0.316536        -8.6134
 196   2.0000      -0.312334        -8.4990
 197   2.0000      -0.275229        -7.4894
 198   2.0000      -0.274083        -7.4582
 199   2.0000      -0.270498        -7.3606
 200   2.0000      -0.270133        -7.3507
 201   2.0000      -0.268784        -7.3140
 202   2.0000      -0.267248        -7.2722
 203   2.0000      -0.261214        -7.1080
 204   2.0000      -0.255569        -6.9544
 205   0.0000      -0.024660        -0.6710
 206   0.0000      -0.006030        -0.1641
 207   0.0000       0.021277         0.5790
 208   0.0000       0.022107         0.6016
 209   0.0000       0.023344         0.6352

MULLIKEN ATOMIC CHARGES
-----------------------
   0 C :   -0.043438
   1 C :    0.044250
   2 C :   -0.035843
   3 C :    0.132439
   4 C :    0.097309
   5 C :    0.152240
   6 C :   -0.180721
   7 C :   -0.179615
   8 N :   -0.146341
   9 N :   -0.146084
  10 N :    0.123506
  11 C :    0.198983
  12 C :    0.080936
  13 C :   -0.299422
  14 C :    0.030241
  15 C :   -0.272587
  16 C :   -0.020960
  17 C :   -0.154059
  18 H :    0.169810
  19 C :   -0.213630
  20 C :   -0.154672
  21 H :    0.192430
  22 C :   -0.259591
  23 C :   -0.175810
  24 H :    0.163205
  25 H :    0.167175
  26 C :   -0.160184
  27 H :    0.164319
  28 H :    0.166248
  29 H :    0.158476
  30 H :    0.160522
  31 N :    0.305479
  32 C :    0.116256
  33 C :    0.126860
  34 C :   -0.336336
  35 C :    0.024615
  36 C :   -0.350547
  37 C :    0.027923
  38 C :   -0.139187
  39 H :    0.166747
  40 C :   -0.242681
  41 C :   -0.129928
  42 H :    0.173378
  43 C :   -0.237269
  44 C :   -0.168531
  45 H :    0.162085
  46 H :    0.164825
  47 C :   -0.173106
  48 H :    0.162293
  49 H :    0.164561
  50 H :    0.158203
  51 H :    0.157774
  52 N :    0.131525
  53 C :    0.081127
  54 C :    0.193187
  55 C :   -0.267657
  56 C :   -0.013442
  57 C :   -0.292834
  58 C :    0.031217
  59 C :   -0.156731
  60 H :    0.194611
  61 C :   -0.256392
  62 C :   -0.159690
  63 H :    0.169908
  64 C :   -0.221863
  65 C :   -0.161520
  66 H :    0.163958
  67 H :    0.165968
  68 C :   -0.169063
  69 H :    0.162721
  70 H :    0.167187
  71 H :    0.160025
  72 H :    0.159210
  73 N :    0.042149
  74 C :    0.148472
  75 C :    0.153613
  76 C :   -0.285083
  77 C :   -0.004522
  78 C :   -0.284079
  79 C :   -0.004734
  80 C :   -0.143956
  81 H :    0.188020
  82 C :   -0.229247
  83 C :   -0.148826
  84 H :    0.187478
  85 C :   -0.228809
  86 C :   -0.174585
  87 H :    0.165025
  88 H :    0.166324
  89 C :   -0.172513
  90 H :    0.164990
  91 H :    0.167199
  92 H :    0.159410
  93 H :    0.159675
Sum of atomic charges:   -0.0000000

LOEWDIN ATOMIC CHARGES
----------------------
   0 C :   -0.039263
   1 C :   -0.076474
   2 C :   -0.040448
   3 C :   -0.070056
   4 C :   -0.041392
   5 C :   -0.069433
   6 C :   -0.118102
   7 C :   -0.117876
   8 N :    0.025024
   9 N :    0.024841
  10 N :    0.317498
  11 C :   -0.111258
  12 C :   -0.116800
  13 C :   -0.109588
  14 C :   -0.085173
  15 C :   -0.120349
  16 C :   -0.086782
  17 C :   -0.139118
  18 H :    0.160009
  19 C :   -0.099087
  20 C :   -0.139036
  21 H :    0.159945
  22 C :   -0.097346
  23 C :   -0.158432
  24 H :    0.153196
  25 H :    0.155960
  26 C :   -0.158393
  27 H :    0.153110
  28 H :    0.156289
  29 H :    0.150178
  30 H :    0.150339
  31 N :    0.314811
  32 C :   -0.118862
  33 C :   -0.118450
  34 C :   -0.114569
  35 C :   -0.087304
  36 C :   -0.114047
  37 C :   -0.087389
  38 C :   -0.140739
  39 H :    0.159800
  40 C :   -0.099981
  41 C :   -0.140845
  42 H :    0.159784
  43 C :   -0.099965
  44 C :   -0.161215
  45 H :    0.152725
  46 H :    0.155420
  47 C :   -0.161545
  48 H :    0.152711
  49 H :    0.155458
  50 H :    0.149527
  51 H :    0.149449
  52 N :    0.317946
  53 C :   -0.116096
  54 C :   -0.110817
  55 C :   -0.120035
  56 C :   -0.086598
  57 C :   -0.109603
  58 C :   -0.084857
  59 C :   -0.139076
  60 H :    0.159526
  61 C :   -0.097457
  62 C :   -0.139102
  63 H :    0.160076
  64 C :   -0.099118
  65 C :   -0.158261
  66 H :    0.153157
  67 H :    0.156282
  68 C :   -0.158130
  69 H :    0.153168
  70 H :    0.155946
  71 H :    0.150351
  72 H :    0.150226
  73 N :    0.317132
  74 C :   -0.109224
  75 C :   -0.109436
  76 C :   -0.118018
  77 C :   -0.084401
  78 C :   -0.117902
  79 C :   -0.084356
  80 C :   -0.138851
  81 H :    0.159509
  82 C :   -0.097227
  83 C :   -0.138699
  84 H :    0.159334
  85 C :   -0.097071
  86 C :   -0.157873
  87 H :    0.153232
  88 H :    0.156474
  89 C :   -0.157704
  90 H :    0.153262
  91 H :    0.156456
  92 H :    0.150529
  93 H :    0.150550

  Mayer bond orders larger than 0.100000
B(  0-C ,  1-C ) :   1.5680 B(  0-C ,  5-C ) :   1.3037 B(  0-C , 10-N ) :   1.0611
B(  1-C ,  2-C ) :   1.5592 B(  1-C , 31-N ) :   1.0812 B(  2-C ,  3-C ) :   1.2947
B(  2-C , 52-N ) :   1.0715 B(  3-C ,  4-C ) :   1.3388 B(  3-C ,  6-C ) :   0.9962
B(  4-C ,  5-C ) :   1.3475 B(  4-C , 73-N ) :   1.1106 B(  5-C ,  7-C ) :   0.9917
B(  6-C ,  8-N ) :   2.9972 B(  7-C ,  9-N ) :   2.9971 B( 10-N , 11-C ) :   1.0190
B( 10-N , 12-C ) :   1.0329 B( 11-C , 13-C ) :   1.4081 B( 11-C , 14-C ) :   1.3113
B( 12-C , 15-C ) :   1.4345 B( 12-C , 16-C ) :   1.3137 B( 13-C , 17-C ) :   1.4371
B( 13-C , 18-H ) :   0.9768 B( 14-C , 16-C ) :   1.0272 B( 14-C , 19-C ) :   1.3030
B( 15-C , 20-C ) :   1.4183 B( 15-C , 21-H ) :   0.9554 B( 16-C , 22-C ) :   1.3155
B( 17-C , 23-C ) :   1.3341 B( 17-C , 24-H ) :   0.9831 B( 19-C , 23-C ) :   1.4611
B( 19-C , 25-H ) :   0.9799 B( 20-C , 26-C ) :   1.3506 B( 20-C , 27-H ) :   0.9780
B( 22-C , 26-C ) :   1.4684 B( 22-C , 28-H ) :   0.9840 B( 23-C , 29-H ) :   0.9940
B( 26-C , 30-H ) :   0.9879 B( 31-N , 32-C ) :   0.9792 B( 31-N , 33-C ) :   0.9876
B( 32-C , 34-C ) :   1.4436 B( 32-C , 35-C ) :   1.3192 B( 33-C , 36-C ) :   1.4408
B( 33-C , 37-C ) :   1.3102 B( 34-C , 38-C ) :   1.4195 B( 34-C , 39-H ) :   0.9909
B( 35-C , 37-C ) :   1.0538 B( 35-C , 40-C ) :   1.3007 B( 36-C , 41-C ) :   1.4215
B( 36-C , 42-H ) :   0.9856 B( 37-C , 43-C ) :   1.2938 B( 38-C , 44-C ) :   1.3355
B( 38-C , 45-H ) :   0.9830 B( 40-C , 44-C ) :   1.4664 B( 40-C , 46-H ) :   0.9839
B( 41-C , 47-C ) :   1.3356 B( 41-C , 48-H ) :   0.9826 B( 43-C , 47-C ) :   1.4649
B( 43-C , 49-H ) :   0.9861 B( 44-C , 50-H ) :   0.9919 B( 47-C , 51-H ) :   0.9923
B( 52-N , 53-C ) :   1.0332 B( 52-N , 54-C ) :   1.0164 B( 53-C , 55-C ) :   1.4360
B( 53-C , 56-C ) :   1.3181 B( 54-C , 57-C ) :   1.4135 B( 54-C , 58-C ) :   1.3221
B( 55-C , 59-C ) :   1.4218 B( 55-C , 60-H ) :   0.9511 B( 56-C , 58-C ) :   1.0254
B( 56-C , 61-C ) :   1.3126 B( 57-C , 62-C ) :   1.4360 B( 57-C , 63-H ) :   0.9779
B( 58-C , 64-C ) :   1.3034 B( 59-C , 65-C ) :   1.3453 B( 59-C , 66-H ) :   0.9791
B( 61-C , 65-C ) :   1.4664 B( 61-C , 67-H ) :   0.9833 B( 62-C , 68-C ) :   1.3358
B( 62-C , 69-H ) :   0.9832 B( 64-C , 68-C ) :   1.4636 B( 64-C , 70-H ) :   0.9792
B( 65-C , 71-H ) :   0.9897 B( 68-C , 72-H ) :   0.9921 B( 73-N , 74-C ) :   1.0491
B( 73-N , 75-C ) :   1.0471 B( 74-C , 76-C ) :   1.4115 B( 74-C , 77-C ) :   1.3227
B( 75-C , 78-C ) :   1.4034 B( 75-C , 79-C ) :   1.3253 B( 76-C , 80-C ) :   1.4392
B( 76-C , 81-H ) :   0.9551 B( 77-C , 79-C ) :   1.0527 B( 77-C , 82-C ) :   1.3063
B( 78-C , 83-C ) :   1.4374 B( 78-C , 84-H ) :   0.9568 B( 79-C , 85-C ) :   1.3108
B( 80-C , 86-C ) :   1.3452 B( 80-C , 87-H ) :   0.9777 B( 82-C , 86-C ) :   1.4607
B( 82-C , 88-H ) :   0.9841 B( 83-C , 89-C ) :   1.3479 B( 83-C , 90-H ) :   0.9777
B( 85-C , 89-C ) :   1.4646 B( 85-C , 91-H ) :   0.9812 B( 86-C , 92-H ) :   0.9905
B( 89-C , 93-H ) :   0.9895

MP2 TOTAL ENERGY:    -2480.137169444 Eh

-----------------------------------------------------------------------------
         ABSORPTION SPECTRUM VIA TRANSITION ELECTRIC DIPOLE MOMENTS
-----------------------------------------------------------------------------
State   Energy    Wavelength  fosc         T2        TX        TY        TZ
        (cm-1)      (nm)                 (au**2)    (au)      (au)      (au)
-----------------------------------------------------------------------------
   1   23402.5    427.3   0.168649499   2.37246  -0.02605   1.44881  -0.52223
   2   26396.1    378.8   0.025645892   0.31986   0.56552   0.00505   0.00470
   3   27157.4    368.2   0.407298325   4.93741   2.22125   0.05244  -0.02632
   4   25692.2    389.2   0.048508330   0.62157   0.21249  -0.73093   0.20533
   5   26655.7    375.2   0.002493524   0.03080   0.04485  -0.10466   0.13353
   6   28176.0    354.9   0.001146904   0.01340  -0.11144   0.00137  -0.03132
   7   31290.1    319.6   0.015050305   0.15835   0.33934  -0.01557  -0.20726
   8   30414.5    328.8   0.080744718   0.87400  -0.03605   0.23127  -0.90510
   9   33207.8    301.1   0.059011248   0.58502   0.03164   0.37029  -0.66851
  10   33219.0    301.0   0.151969111   1.50607  -1.20774  -0.20303  -0.07878
  11   34449.4    290.3   0.101105672   0.96620  -0.27694   0.93627  -0.11364
  12   33625.2    297.4   0.034318498   0.33600   0.33000   0.47653  -0.00471
  13   33529.9    298.2   0.010630983   0.10438  -0.29852   0.07563   0.09770
  14   37325.5    267.9   0.009177256   0.08094   0.19977  -0.04817   0.19676
  15   34654.0    288.6   0.173681734   1.64997  -0.75333   0.49432   0.91549
  16   34924.1    286.3   0.219134303   2.06567   0.74378   0.70301   1.00908
  17   34269.2    291.8   0.537686885   5.16537  -0.10934   1.87199   1.28416
  18   29444.4    339.6   0.006609660   0.07390   0.19240   0.14583   0.12497
  19   29727.7    336.4   0.002293339   0.02540   0.09912  -0.10516  -0.06718
  20   31969.8    312.8   0.022805475   0.23484   0.01859   0.44482   0.19140
  21   29561.8    338.3   0.015438496   0.17193  -0.41382   0.02337   0.01160
  22   31949.3    313.0   0.013643939   0.14059   0.00649   0.04801  -0.37181
  23   33313.7    300.2   0.001545998   0.01528   0.12182  -0.01275   0.01660
  24   35353.3    282.9   0.000620081   0.00577  -0.01281  -0.00417  -0.07478
  25   41707.5    239.8   0.149692145   1.18157   1.08694  -0.00864   0.00816
  26   38773.7    257.9   0.045204414   0.38381   0.13937   0.06596  -0.60003
  27   41009.2    243.8   0.073173953   0.58742   0.13434   0.20973   0.72484
  28   41187.9    242.8   0.185819730   1.48524   1.16740  -0.34469  -0.06013
  29   39476.3    253.3   0.169566531   1.41410   0.34091   1.13925   0.00034
  30   42047.9    237.8   0.195844589   1.53336  -0.04376   1.05076   0.65371
  31   37687.2    265.3   0.083938147   0.73323   0.70448   0.33410   0.35400
  32   38433.6    260.2   0.030895472   0.26464  -0.34766  -0.30185  -0.22947
  33   38684.5    258.5   0.168378191   1.43293  -0.07156   0.69626   0.97110
  34   38670.7    258.6   0.202414954   1.72320  -0.08619   0.80199   1.03566
  35   41973.1    238.2   0.083120198   0.65195  -0.78540  -0.04587   0.18161
  36   39792.4    251.3   0.033856341   0.28010  -0.51848  -0.10275   0.02695
  37   43118.9    231.9   0.429726704   3.28095   0.07782  -1.47923   1.04249
  38   42685.4    234.3   0.153205431   1.18160   0.03691  -0.92059  -0.57684
  39   42097.7    237.5   0.099216700   0.77589  -0.76706   0.40132   0.16268
  40   43415.7    230.3   0.071031629   0.53862  -0.67005  -0.08685  -0.28654
  41   43387.2    230.5   0.780956099   5.92571  -0.33339   1.74404   1.66520
  42   42862.4    233.3   0.280669071   2.15572  -1.42838  -0.27257  -0.20290
  43   40310.5    248.1   0.363435067   2.96814   1.63103   0.30742   0.46194
  44   41662.2    240.0   0.240774320   1.90258   0.37305  -0.24599  -1.30495
  45   42532.5    235.1   0.255464992   1.97736   0.11000  -1.32058  -0.47046
  46   43273.7    231.1   0.087001073   0.66188   0.61391   0.44403   0.29636
  47   43593.5    229.4   0.310526873   2.34506   0.09422   1.14558  -1.01185
  48   43877.3    227.9   0.004058885   0.03045  -0.00466   0.11971  -0.12690
  49   43533.2    229.7   0.014085383   0.10652  -0.15044  -0.13526  -0.25610
  50   42991.7    232.6   0.923128395   7.06893  -0.27831   2.08123   1.63094
  51   42076.0    237.7   0.430314857   3.36688  -0.51359  -1.40233  -1.06610
  52   45241.6    221.0   0.128358669   0.93403  -0.78931   0.41636   0.37104
  53   46472.8    215.2   0.675164393   4.78285  -2.18594  -0.03372  -0.05819
  54   45091.0    221.8   0.196236093   1.43273  -0.02897  -1.19573   0.04612
  55   45315.5    220.7   0.085207472   0.61902  -0.15254   0.32680   0.69925
  56   45069.9    221.9   0.233660957   1.70677  -1.29902  -0.02617  -0.13646
  57   45913.0    217.8   0.007934028   0.05689  -0.23615  -0.03302  -0.00589
  58   41455.6    241.2   0.008577831   0.06812   0.01710   0.23639  -0.10929
  59   46467.1    215.2   0.003782738   0.02680   0.15013  -0.05168   0.03987
  60   46744.3    213.9   0.002146991   0.01512  -0.01022  -0.11751   0.03475

FINAL SINGLE POINT ENERGY     -2475.929717843961

DIPOLE MOMENT
-------------
                                X             Y             Z
Electronic contribution:     10.28969      -0.29865      -0.16468
Nuclear contribution   :    -12.16803       0.34345       0.17306
                        -----------------------------------------
Total Dipole Moment    :     -1.87834       0.04481       0.00838
                        -----------------------------------------
Magnitude (a.u.)       :      1.87889
Magnitude (Debye)      :      4.77575

Rotational constants in cm-1:     0.001908     0.001510     0.001076
Rotational constants in MHz :    57.202954    45.270471    32.244588

                             ****ORCA TERMINATED NORMALLY****
TOTAL RUN TIME: 7 days 16 hours 14 minutes 50 seconds 959 msec
