 Gaussian 09, Revision E.01,
 Gaussian 09:  ES64L-G09RevE.01 30-Nov-2015

 ----------------------------------------------------------------------
 #p m062x/def2TZVP td=(NStates=50) int=ultrafine scrf=(SMD,solvent=Acet
 onitrile)
 ----------------------------------------------------------------------

 -----
 Title
 -----
 Symbolic Z-matrix:
 Charge =  0 Multiplicity = 1

                         Standard orientation:
 ---------------------------------------------------------------------
 Center     Atomic      Atomic             Coordinates (Angstroms)
 Number     Number       Type             X           Y           Z
 ---------------------------------------------------------------------
      1          6           0       -0.159013   -1.158733   -0.342888
      2          6           0        0.557741    0.000328    0.003517
      3          6           0       -0.149386    1.168602    0.333887
      4          6           0       -1.551944    1.153635    0.356052
      5          6           0       -2.269913    0.011467    0.002705
      6          6           0       -1.560404   -1.132835   -0.363504
      7          6           0       -2.258425    2.290411    0.862687
      8          6           0       -2.275966   -2.260962   -0.876061
      9          7           0       -2.830318    3.192158    1.281459
     10          7           0       -2.854031   -3.155793   -1.301177
     11          7           0        0.501441   -2.334361   -0.713752
     12          6           0        1.480801   -2.445743   -1.706640
     13          6           0        0.398460   -3.568175   -0.055027
     14          6           0        1.870777   -1.514137   -2.659703
     15          6           0        2.020190   -3.741891   -1.669148
     16          6           0       -0.408671   -3.931055    1.016235
     17          6           0        1.330115   -4.457236   -0.615761
     18          6           0        2.863364   -1.890794   -3.550495
     19          1           0        1.412962   -0.535501   -2.717874
     20          6           0        3.012464   -4.102069   -2.577793
     21          6           0       -0.275877   -5.220611    1.507017
     22          1           0       -1.109800   -3.239264    1.465644
     23          6           0        1.447206   -5.748057   -0.106128
     24          6           0        3.437132   -3.166775   -3.506709
     25          1           0        3.193779   -1.182209   -4.299738
     26          1           0        3.436945   -5.098273   -2.558433
     27          6           0        0.638033   -6.123542    0.952840
     28          1           0       -0.894284   -5.531596    2.339391
     29          1           0        2.164873   -6.439832   -0.529732
     30          1           0        4.210032   -3.427122   -4.218171
     31          1           0        0.713836   -7.122699    1.361714
     32          7           0        1.959533   -0.013593    0.021828
     33          6           0        2.801948    0.814831   -0.723211
     34          6           0        2.751366   -0.865971    0.795602
     35          6           0        2.476018    1.772205   -1.676205
     36          6           0        4.137002    0.494509   -0.422311
     37          6           0        2.363517   -1.813842    1.734828
     38          6           0        4.104796   -0.584184    0.542867
     39          6           0        3.520573    2.442739   -2.292736
     40          1           0        1.448972    1.976493   -1.949094
     41          6           0        5.171833    1.177638   -1.057229
     42          6           0        3.365535   -2.514543    2.387583
     43          1           0        1.322028   -1.991473    1.968396
     44          6           0        5.095908   -1.297828    1.212994
     45          6           0        4.855706    2.157820   -1.982870
     46          1           0        3.294661    3.197610   -3.035595
     47          1           0        6.203861    0.938084   -0.832161
     48          6           0        4.718479   -2.268717    2.125445
     49          1           0        3.091349   -3.263193    3.120389
     50          1           0        6.141968   -1.089076    1.025063
     51          1           0        5.646170    2.701783   -2.483464
     52          1           0        5.474531   -2.835893    2.652724
     53          7           0        0.515572    2.350201    0.676424
     54          6           0        0.401242    3.563853   -0.015347
     55          6           0        1.483101    2.500846    1.674912
     56          6           0       -0.395393    3.880179   -1.109065
     57          6           0        1.309020    4.483609    0.534107
     58          6           0        1.884164    1.597862    2.650704
     59          6           0        1.999246    3.806059    1.612098
     60          6           0       -0.281852    5.159299   -1.630844
     61          1           0       -1.070365    3.157983   -1.551830
     62          6           0        1.407274    5.763094   -0.007369
     63          6           0        2.862051    2.013533    3.540539
     64          1           0        1.445511    0.612035    2.726637
     65          6           0        2.976791    4.205247    2.520384
     66          6           0        0.604698    6.094906   -1.085881
     67          1           0       -0.892568    5.436274   -2.480750
     68          1           0        2.105377    6.479981    0.407076
     69          6           0        3.411151    3.299296    3.473504
     70          1           0        3.200083    1.328232    4.307830
     71          1           0        3.383005    5.208470    2.481325
     72          1           0        0.665891    7.084871   -1.518819
     73          1           0        4.172779    3.590319    4.185228
     74          7           0       -3.666972    0.010563    0.014859
     75          6           0       -4.474350   -0.839594    0.778398
     76          6           0       -4.492507    0.844871   -0.746306
     77          6           0       -4.102642   -1.807536    1.703589
     78          6           0       -5.820805   -0.547935    0.503270
     79          6           0       -4.142121    1.823608   -1.668001
     80          6           0       -5.832350    0.524945   -0.469725
     81          6           0       -5.119663   -2.501254    2.339834
     82          1           0       -3.063402   -2.012652    1.928814
     83          6           0       -6.825779   -1.257046    1.157188
     84          6           0       -5.174024    2.496806   -2.302332
     85          1           0       -3.107370    2.053845   -1.888920
     86          6           0       -6.852452    1.214268   -1.121000
     87          6           0       -6.466787   -2.234840    2.069530
     88          1           0       -4.862592   -3.264018    3.063791
     89          1           0       -7.867782   -1.041542    0.955192
     90          6           0       -6.515002    2.200863   -2.032045
     91          1           0       -4.933734    3.267513   -3.023586
     92          1           0       -7.889517    0.977124   -0.917890
     93          1           0       -7.233861   -2.797202    2.585879
     94          1           0       -7.294178    2.748178   -2.546404
 ---------------------------------------------------------------------

 SCF Done:  E(RM062X) =  -2481.79232491     A.U. after   19 cycles

 Excitation energies and oscillator strengths:

 Excited State   1:      Singlet-A      3.3588 eV  369.13 nm  f=0.1734  <S**2>=0.000
     203 -> 206        0.17186
     205 -> 206        0.66609
 This state for optimization and/or second-order correction.
 Total Energy, E(TD-HF/TD-KS) =  -2481.66889054
 Copying the excited state density for this state as the 1-particle RhoCI density.

 Excited State   2:      Singlet-A      3.6070 eV  343.73 nm  f=0.0697  <S**2>=0.000
     201 -> 206        0.35254
     204 -> 206        0.56055
     205 -> 207        0.16485

 Excited State   3:      Singlet-A      3.7119 eV  334.02 nm  f=0.0576  <S**2>=0.000
     199 -> 206       -0.11960
     202 -> 206        0.15790
     203 -> 206        0.62323
     205 -> 206       -0.16329
     205 -> 207       -0.11240

 Excited State   4:      Singlet-A      3.7240 eV  332.93 nm  f=0.3684  <S**2>=0.000
     202 -> 207       -0.31649
     203 -> 206        0.11317
     204 -> 206       -0.12274
     205 -> 207        0.57741

 Excited State   5:      Singlet-A      3.8836 eV  319.25 nm  f=0.0015  <S**2>=0.000
     202 -> 206        0.66922
     203 -> 206       -0.15643

 Excited State   6:      Singlet-A      4.0778 eV  304.05 nm  f=0.0044  <S**2>=0.000
     198 -> 206       -0.11909
     201 -> 206        0.56967
     204 -> 206       -0.37095

 Excited State   7:      Singlet-A      4.1129 eV  301.45 nm  f=0.0090  <S**2>=0.000
     199 -> 207        0.14257
     201 -> 206       -0.13313
     202 -> 207        0.57408
     205 -> 207        0.29658

 Excited State   8:      Singlet-A      4.1563 eV  298.30 nm  f=0.1219  <S**2>=0.000
     199 -> 206       -0.21273
     201 -> 207        0.30432
     203 -> 206       -0.11781
     204 -> 207        0.54257

 Excited State   9:      Singlet-A      4.2135 eV  294.26 nm  f=0.0291  <S**2>=0.000
     199 -> 206        0.64436
     201 -> 207        0.13111
     203 -> 206        0.10945
     204 -> 207        0.18072

 Excited State  10:      Singlet-A      4.2769 eV  289.90 nm  f=0.0641  <S**2>=0.000
     199 -> 207       -0.14806
     203 -> 207        0.65847

 Excited State  11:      Singlet-A      4.3223 eV  286.84 nm  f=0.0002  <S**2>=0.000
     200 -> 206        0.69841

 Excited State  12:      Singlet-A      4.3963 eV  282.02 nm  f=0.0048  <S**2>=0.000
     198 -> 206        0.68215
     204 -> 206       -0.12927

 Excited State  13:      Singlet-A      4.4694 eV  277.40 nm  f=0.0213  <S**2>=0.000
     198 -> 212        0.10109
     199 -> 210       -0.11783
     199 -> 211        0.12526
     202 -> 210       -0.11405
     202 -> 211        0.11915
     203 -> 208        0.13252
     203 -> 210        0.15211
     203 -> 211       -0.18020
     205 -> 208       -0.27285
     205 -> 210       -0.28213
     205 -> 211        0.34747

 Excited State  14:      Singlet-A      4.4785 eV  276.84 nm  f=0.0010  <S**2>=0.000
     200 -> 207        0.67636
     201 -> 207        0.12744

 Excited State  15:      Singlet-A      4.5052 eV  275.20 nm  f=0.0827  <S**2>=0.000
     200 -> 213       -0.20067
     202 -> 208       -0.30982
     202 -> 209        0.15252
     202 -> 210        0.35602
     202 -> 211        0.10358
     205 -> 208        0.27342
     205 -> 209       -0.12079
     205 -> 210       -0.20325

 Excited State  16:      Singlet-A      4.5165 eV  274.51 nm  f=0.0449  <S**2>=0.000
     201 -> 208        0.13235
     201 -> 210        0.10132
     201 -> 211        0.17787
     202 -> 209        0.13230
     203 -> 209        0.28832
     204 -> 207       -0.12822
     204 -> 208        0.20448
     204 -> 210        0.14257
     204 -> 211        0.22366
     205 -> 209        0.31987

 Excited State  17:      Singlet-A      4.5227 eV  274.14 nm  f=0.0042  <S**2>=0.000
     199 -> 214       -0.12413
     201 -> 209        0.23068
     202 -> 208        0.19108
     203 -> 208        0.16859
     203 -> 210        0.11961
     203 -> 211        0.20176
     204 -> 209        0.31485
     205 -> 208        0.11413
     205 -> 210        0.21625
     205 -> 211        0.23363

 Excited State  18:      Singlet-A      4.5745 eV  271.03 nm  f=0.0227  <S**2>=0.000
     200 -> 207       -0.13179
     201 -> 207        0.56579
     204 -> 207       -0.34144

 Excited State  19:      Singlet-A      4.7561 eV  260.69 nm  f=0.0259  <S**2>=0.000
     198 -> 207        0.11140
     198 -> 211        0.25466
     199 -> 207       -0.24932
     199 -> 209       -0.16587
     201 -> 208       -0.20852
     201 -> 210       -0.16886
     203 -> 209       -0.11269
     204 -> 208        0.25085
     204 -> 210        0.24807
     204 -> 211       -0.18414

 Excited State  20:      Singlet-A      4.7661 eV  260.14 nm  f=0.0626  <S**2>=0.000
     198 -> 209       -0.11289
     198 -> 211        0.10473
     199 -> 207        0.55249
     201 -> 209        0.11874
     201 -> 210       -0.10897
     202 -> 207       -0.11653
     203 -> 207        0.13715
     204 -> 210        0.13908
     204 -> 211       -0.10705

 Excited State  21:      Singlet-A      4.8130 eV  257.60 nm  f=0.1916  <S**2>=0.000
     198 -> 208        0.11984
     198 -> 209       -0.12486
     198 -> 210        0.16654
     199 -> 207       -0.12134
     199 -> 209       -0.19591
     199 -> 210        0.10337
     199 -> 211        0.10498
     200 -> 208       -0.10291
     200 -> 210        0.12516
     201 -> 209        0.20539
     201 -> 211       -0.18801
     202 -> 209        0.11056
     203 -> 209       -0.19302
     203 -> 210        0.11859
     204 -> 209       -0.12957
     204 -> 211        0.22628
     205 -> 209        0.11927

 Excited State  22:      Singlet-A      4.8239 eV  257.02 nm  f=0.0964  <S**2>=0.000
     198 -> 207        0.12788
     198 -> 208        0.12978
     198 -> 209        0.16524
     199 -> 207        0.23363
     199 -> 208       -0.17819
     199 -> 209       -0.10763
     199 -> 211       -0.18277
     201 -> 208       -0.11333
     201 -> 209       -0.20697
     201 -> 211       -0.14644
     203 -> 208       -0.14754
     203 -> 211       -0.14373
     204 -> 209        0.11629
     204 -> 211        0.16001

 Excited State  23:      Singlet-A      4.8548 eV  255.39 nm  f=0.4681  <S**2>=0.000
     198 -> 207       -0.17680
     200 -> 208       -0.39819
     200 -> 209        0.18282
     200 -> 210        0.40545
     202 -> 213        0.10935

 Excited State  24:      Singlet-A      4.8781 eV  254.17 nm  f=0.0789  <S**2>=0.000
     198 -> 207        0.62905
     201 -> 207       -0.10212

 Excited State  25:      Singlet-A      5.2254 eV  237.27 nm  f=0.0330  <S**2>=0.000
     194 -> 206       -0.13263
     196 -> 206        0.11176
     197 -> 206        0.45394
     199 -> 209       -0.16012
     203 -> 209        0.18674
     204 -> 211        0.12210
     205 -> 209       -0.33835

 Excited State  26:      Singlet-A      5.2306 eV  237.03 nm  f=0.0561  <S**2>=0.000
     193 -> 206        0.14061
     194 -> 206       -0.13993
     197 -> 206        0.45992
     199 -> 209        0.17541
     203 -> 209       -0.16186
     204 -> 211       -0.12538
     205 -> 209        0.30579

 Excited State  27:      Singlet-A      5.2556 eV  235.91 nm  f=0.0102  <S**2>=0.000
     192 -> 207       -0.11373
     193 -> 206       -0.21770
     199 -> 208        0.13422
     199 -> 211        0.15729
     203 -> 208       -0.11831
     203 -> 211       -0.21850
     204 -> 209       -0.17902
     205 -> 208        0.30494
     205 -> 210        0.17386
     205 -> 211        0.32371

 Excited State  28:      Singlet-A      5.2577 eV  235.82 nm  f=0.0447  <S**2>=0.000
     188 -> 206        0.19031
     189 -> 207       -0.11273
     192 -> 207        0.22807
     193 -> 206        0.42641
     196 -> 206        0.20929
     203 -> 211       -0.11242
     204 -> 209       -0.10421
     205 -> 208        0.12910
     205 -> 209       -0.11235
     205 -> 210        0.13054
     205 -> 211        0.14356

 Excited State  29:      Singlet-A      5.2799 eV  234.82 nm  f=0.0669  <S**2>=0.000
     193 -> 206       -0.13476
     196 -> 206        0.62190
     199 -> 209        0.11658
     205 -> 209        0.10934

 Excited State  30:      Singlet-A      5.3032 eV  233.79 nm  f=0.0173  <S**2>=0.000
     203 -> 208       -0.27841
     203 -> 210       -0.30633
     203 -> 211        0.35501
     204 -> 212        0.11569
     205 -> 208       -0.13724
     205 -> 210       -0.15222
     205 -> 211        0.29496

 Excited State  31:      Singlet-A      5.4060 eV  229.35 nm  f=0.0481  <S**2>=0.000
     197 -> 211       -0.11313
     201 -> 208        0.19556
     201 -> 210        0.20346
     201 -> 211       -0.23604
     203 -> 212       -0.21309
     204 -> 208        0.14903
     204 -> 210        0.16277
     204 -> 211       -0.16199
     205 -> 212        0.24961
     205 -> 215       -0.18567

 Excited State  32:      Singlet-A      5.4380 eV  228.00 nm  f=0.0033  <S**2>=0.000
     192 -> 206       -0.17526
     194 -> 206        0.12511
     195 -> 206        0.64176

 Excited State  33:      Singlet-A      5.4483 eV  227.56 nm  f=0.0391  <S**2>=0.000
     192 -> 206       -0.14544
     194 -> 206        0.52483
     195 -> 206       -0.21439
     197 -> 206        0.22179
     204 -> 212       -0.10868

 Excited State  34:      Singlet-A      5.4580 eV  227.16 nm  f=0.3516  <S**2>=0.000
     194 -> 206       -0.11091
     198 -> 217        0.10600
     201 -> 208       -0.13983
     201 -> 210       -0.14984
     201 -> 211        0.24870
     202 -> 212        0.10345
     202 -> 213        0.11915
     203 -> 215        0.11053
     204 -> 208       -0.13003
     204 -> 210       -0.11013
     204 -> 214       -0.11749
     205 -> 212        0.38297

 Excited State  35:      Singlet-A      5.5101 eV  225.01 nm  f=0.0636  <S**2>=0.000
     192 -> 206        0.14922
     194 -> 206        0.32407
     202 -> 214       -0.10959
     203 -> 210        0.10817
     203 -> 214       -0.14546
     204 -> 212        0.27114
     205 -> 214       -0.21299

 Excited State  36:      Singlet-A      5.5216 eV  224.55 nm  f=0.0065  <S**2>=0.000
     198 -> 209        0.23697
     199 -> 208       -0.12195
     199 -> 210       -0.11672
     201 -> 209        0.12333
     201 -> 211       -0.11435
     201 -> 212        0.15550
     202 -> 213        0.18438
     203 -> 212        0.13446
     204 -> 209       -0.23270
     204 -> 210        0.12180
     204 -> 214       -0.12783
     205 -> 213       -0.14923
     205 -> 215        0.12116

 Excited State  37:      Singlet-A      5.5291 eV  224.24 nm  f=0.0732  <S**2>=0.000
     195 -> 208        0.11830
     195 -> 210       -0.11305
     198 -> 209       -0.19266
     200 -> 219       -0.12540
     201 -> 212       -0.17053
     202 -> 213        0.24793
     203 -> 214        0.14631
     204 -> 209        0.21266
     204 -> 215       -0.10003
     205 -> 213       -0.18812
     205 -> 214        0.13815

 Excited State  38:      Singlet-A      5.5430 eV  223.68 nm  f=0.1483  <S**2>=0.000
     192 -> 206        0.14265
     195 -> 207       -0.15870
     195 -> 208        0.12084
     195 -> 210       -0.13017
     196 -> 209        0.12582
     200 -> 219       -0.13893
     201 -> 210       -0.11263
     201 -> 211        0.10979
     201 -> 214        0.12476
     202 -> 213        0.23155
     203 -> 212       -0.18077
     204 -> 214        0.18353
     205 -> 213       -0.15266
     205 -> 215       -0.15562

 Excited State  39:      Singlet-A      5.5498 eV  223.40 nm  f=0.3316  <S**2>=0.000
     189 -> 206       -0.16398
     192 -> 206        0.51047
     193 -> 207       -0.11398
     195 -> 206        0.12503

 Excited State  40:      Singlet-A      5.5750 eV  222.39 nm  f=0.0609  <S**2>=0.000
     198 -> 208       -0.29596
     198 -> 210       -0.20319
     198 -> 211       -0.22228
     199 -> 209        0.14423
     201 -> 208       -0.11948
     201 -> 211       -0.16343
     204 -> 208        0.24005
     204 -> 210        0.11538
     204 -> 211        0.35142

 Excited State  41:      Singlet-A      5.6081 eV  221.08 nm  f=0.0090  <S**2>=0.000
     192 -> 206        0.10324
     198 -> 209       -0.24380
     198 -> 211        0.11400
     199 -> 208       -0.15092
     199 -> 210       -0.18071
     199 -> 211        0.35608
     201 -> 209       -0.12499
     201 -> 212        0.11091
     202 -> 211       -0.12277
     203 -> 208       -0.12705
     203 -> 210       -0.12032
     204 -> 209        0.17043
     204 -> 210       -0.10356
     204 -> 212       -0.10837

 Excited State  42:      Singlet-A      5.6230 eV  220.50 nm  f=0.1859  <S**2>=0.000
     195 -> 207        0.49085
     197 -> 207        0.24759
     199 -> 211        0.10808
     202 -> 213        0.14402

 Excited State  43:      Singlet-A      5.6394 eV  219.85 nm  f=0.1511  <S**2>=0.000
     195 -> 207        0.34436
     197 -> 207       -0.17942
     197 -> 211       -0.10116
     198 -> 208       -0.12722
     198 -> 210       -0.18045
     198 -> 211        0.25887
     199 -> 211       -0.10147
     201 -> 208        0.15305
     201 -> 210        0.11630
     201 -> 211       -0.11462
     202 -> 213        0.10121
     204 -> 208       -0.12246
     204 -> 210       -0.12146
     204 -> 211        0.12586

 Excited State  44:      Singlet-A      5.6670 eV  218.78 nm  f=0.1598  <S**2>=0.000
     195 -> 207       -0.12190
     197 -> 207        0.41178
     198 -> 208       -0.13816
     198 -> 210       -0.16981
     198 -> 211        0.33763
     203 -> 212       -0.13071

 Excited State  45:      Singlet-A      5.6795 eV  218.30 nm  f=0.0440  <S**2>=0.000
     200 -> 213       -0.25388
     202 -> 208       -0.16024
     202 -> 210        0.15370
     205 -> 208       -0.36048
     205 -> 209        0.16854
     205 -> 210        0.38998

 Excited State  46:      Singlet-A      5.7333 eV  216.25 nm  f=0.1343  <S**2>=0.000
     198 -> 212       -0.13089
     198 -> 215        0.14870
     199 -> 208       -0.20323
     199 -> 210       -0.21875
     199 -> 211        0.22009
     199 -> 214        0.10455
     201 -> 212       -0.23397
     202 -> 210        0.10752
     202 -> 211       -0.10396
     204 -> 212        0.29814
     204 -> 215       -0.13247
     205 -> 216        0.10209

 Excited State  47:      Singlet-A      5.7658 eV  215.03 nm  f=0.1810  <S**2>=0.000
     194 -> 209        0.14709
     196 -> 207        0.39683
     196 -> 208        0.12995
     196 -> 211        0.14081
     197 -> 209       -0.11119
     198 -> 209       -0.11050
     201 -> 212        0.13485
     203 -> 214       -0.14039
     204 -> 212        0.11271
     204 -> 215        0.11684
     205 -> 214       -0.18731

 Excited State  48:      Singlet-A      5.7774 eV  214.60 nm  f=0.5005  <S**2>=0.000
     192 -> 207        0.20328
     193 -> 206       -0.13727
     194 -> 207       -0.15417
     197 -> 207        0.13819
     197 -> 210        0.10351
     198 -> 208        0.13963
     198 -> 210        0.15187
     198 -> 214       -0.13451
     199 -> 209       -0.12370
     199 -> 212       -0.19471
     201 -> 214        0.21926
     203 -> 209        0.14528
     203 -> 212       -0.11040
     203 -> 215       -0.11716
     205 -> 209        0.11171
     205 -> 212       -0.11945

 Excited State  49:      Singlet-A      5.7922 eV  214.05 nm  f=0.7232  <S**2>=0.000
     194 -> 207        0.16476
     194 -> 211        0.15666
     196 -> 209        0.15580
     197 -> 208       -0.12168
     197 -> 210       -0.12845
     198 -> 214       -0.13583
     199 -> 212       -0.15562
     201 -> 211        0.12159
     202 -> 212        0.11290
     203 -> 209        0.15555
     204 -> 214       -0.20095
     204 -> 216        0.16876
     205 -> 212        0.22835
     205 -> 218        0.11127

 Excited State  50:      Singlet-A      5.8129 eV  213.29 nm  f=0.1863  <S**2>=0.000
     198 -> 212        0.23167
     199 -> 214        0.20788
     200 -> 213        0.12608
     201 -> 212       -0.12195
     201 -> 215       -0.14361
     202 -> 208       -0.14493
     202 -> 214       -0.10938
     203 -> 211        0.20970
     203 -> 214        0.15226
     204 -> 215        0.14722
     204 -> 218        0.12585
     205 -> 210        0.12061
     205 -> 214       -0.10369
     205 -> 217       -0.22260

 The electronic state is 1-A.
 Alpha  occ. eigenvalues --  -14.81840 -14.81756 -14.81748 -14.81325 -14.77659
 Alpha  occ. eigenvalues --  -14.77653 -10.64764 -10.64654 -10.64648 -10.63386
 Alpha  occ. eigenvalues --  -10.61961 -10.61947 -10.60484 -10.60476 -10.59266
 Alpha  occ. eigenvalues --  -10.59262 -10.59257 -10.59235 -10.59144 -10.59115
 Alpha  occ. eigenvalues --  -10.58962 -10.58958 -10.55292 -10.55271 -10.55270
 Alpha  occ. eigenvalues --  -10.55237 -10.55216 -10.55214 -10.55124 -10.55068
 Alpha  occ. eigenvalues --  -10.54897 -10.54885 -10.54882 -10.54877 -10.54768
 Alpha  occ. eigenvalues --  -10.54757 -10.54704 -10.54693 -10.54691 -10.54689
 Alpha  occ. eigenvalues --  -10.54685 -10.54668 -10.54637 -10.54633 -10.54591
 Alpha  occ. eigenvalues --  -10.54586 -10.54551 -10.54534 -10.54510 -10.54507
 Alpha  occ. eigenvalues --  -10.54448 -10.54446 -10.54429 -10.54422 -10.53887
 Alpha  occ. eigenvalues --  -10.53880 -10.53872 -10.53870 -10.53865 -10.53863
 Alpha  occ. eigenvalues --  -10.53791 -10.53781  -1.14642  -1.13219  -1.12884
 Alpha  occ. eigenvalues --   -1.11265  -1.04927  -1.04575  -1.02311  -0.98402
 Alpha  occ. eigenvalues --   -0.98070  -0.96581  -0.96377  -0.96361  -0.96282
 Alpha  occ. eigenvalues --   -0.96154  -0.95379  -0.92335  -0.91660  -0.89210
 Alpha  occ. eigenvalues --   -0.88696  -0.88390  -0.87302  -0.85952  -0.85941
 Alpha  occ. eigenvalues --   -0.85881  -0.85736  -0.84464  -0.84157  -0.83525
 Alpha  occ. eigenvalues --   -0.82154  -0.82141  -0.82105  -0.81955  -0.81601
 Alpha  occ. eigenvalues --   -0.77921  -0.77474  -0.74774  -0.73940  -0.72505
 Alpha  occ. eigenvalues --   -0.72498  -0.70767  -0.70428  -0.70132  -0.69958
 Alpha  occ. eigenvalues --   -0.69781  -0.69756  -0.67717  -0.67381  -0.66869
 Alpha  occ. eigenvalues --   -0.66621  -0.66566  -0.66421  -0.65094  -0.63990
 Alpha  occ. eigenvalues --   -0.63419  -0.61632  -0.61556  -0.60384  -0.60138
 Alpha  occ. eigenvalues --   -0.60029  -0.59590  -0.59335  -0.59026  -0.58574
 Alpha  occ. eigenvalues --   -0.58147  -0.56675  -0.56585  -0.54415  -0.54015
 Alpha  occ. eigenvalues --   -0.53862  -0.53823  -0.53491  -0.53352  -0.53124
 Alpha  occ. eigenvalues --   -0.53084  -0.53048  -0.52272  -0.52211  -0.51536
 Alpha  occ. eigenvalues --   -0.51500  -0.51249  -0.51021  -0.50653  -0.50532
 Alpha  occ. eigenvalues --   -0.50004  -0.49854  -0.49825  -0.49764  -0.49752
 Alpha  occ. eigenvalues --   -0.49670  -0.49606  -0.49036  -0.48900  -0.48689
 Alpha  occ. eigenvalues --   -0.48650  -0.48567  -0.47573  -0.47116  -0.46998
 Alpha  occ. eigenvalues --   -0.44729  -0.44403  -0.44129  -0.43902  -0.43757
 Alpha  occ. eigenvalues --   -0.43290  -0.43287  -0.43134  -0.43059  -0.43027
 Alpha  occ. eigenvalues --   -0.42978  -0.42939  -0.42804  -0.42691  -0.42675
 Alpha  occ. eigenvalues --   -0.41728  -0.41707  -0.41149  -0.40647  -0.40479
 Alpha  occ. eigenvalues --   -0.40357  -0.40238  -0.40204  -0.40057  -0.40029
 Alpha  occ. eigenvalues --   -0.40022  -0.39865  -0.35788  -0.35582  -0.35139
 Alpha  occ. eigenvalues --   -0.34920  -0.34285  -0.34099  -0.32300  -0.32071
 Alpha  occ. eigenvalues --   -0.31876  -0.31572  -0.28261  -0.27902  -0.27725
 Alpha  occ. eigenvalues --   -0.27318  -0.27171  -0.27127  -0.26748  -0.25874
 Alpha virt. eigenvalues --   -0.06401  -0.04813  -0.01657  -0.01591  -0.01512
 Alpha virt. eigenvalues --   -0.01376   0.01295   0.02056   0.02104   0.02942
 Alpha virt. eigenvalues --    0.02979   0.03644   0.03935   0.04302   0.04410

 Mulliken charges:
               1
     1  C    0.091639
     2  C    0.007758
     3  C    0.105832
     4  C    0.092584
     5  C    0.127632
     6  C    0.104296
     7  C   -0.277869
     8  C   -0.281115
     9  N    0.010789
    10  N    0.010834
    11  N    0.011339
    12  C    0.076494
    13  C   -0.008701
    14  C   -0.281187
    15  C    0.135403
    16  C   -0.259935
    17  C    0.089105
    18  C   -0.194742
    19  H    0.229729
    20  C   -0.290830
    21  C   -0.174073
    22  H    0.231404
    23  C   -0.303377
    24  C   -0.176741
    25  H    0.188086
    26  H    0.182786
    27  C   -0.180423
    28  H    0.184466
    29  H    0.182282
    30  H    0.183037
    31  H    0.182760
    32  N    0.162238
    33  C    0.008652
    34  C   -0.019586
    35  C   -0.351258
    36  C    0.129525
    37  C   -0.333968
    38  C    0.132816
    39  C   -0.151624
    40  H    0.229947
    41  C   -0.286081
    42  C   -0.156875
    43  H    0.228838
    44  C   -0.288717
    45  C   -0.184462
    46  H    0.187258
    47  H    0.180768
    48  C   -0.181227
    49  H    0.187540
    50  H    0.180875
    51  H    0.182209
    52  H    0.182313
    53  N    0.012715
    54  C   -0.014038
    55  C    0.085682
    56  C   -0.270825
    57  C    0.086228
    58  C   -0.287259
    59  C    0.130286
    60  C   -0.175306
    61  H    0.245184
    62  C   -0.300133
    63  C   -0.188381
    64  H    0.225613
    65  C   -0.288054
    66  C   -0.181176
    67  H    0.184808
    68  H    0.182376
    69  C   -0.180636
    70  H    0.187897
    71  H    0.182707
    72  H    0.182799
    73  H    0.182991
    74  N   -0.058879
    75  C    0.048656
    76  C    0.049930
    77  C   -0.272617
    78  C    0.098978
    79  C   -0.265643
    80  C    0.095578
    81  C   -0.183543
    82  H    0.244748
    83  C   -0.291613
    84  C   -0.186245
    85  H    0.242009
    86  C   -0.293028
    87  C   -0.186951
    88  H    0.184919
    89  H    0.183728
    90  C   -0.186464
    91  H    0.184674
    92  H    0.183455
    93  H    0.183240
    94  H    0.183149
 Sum of Mulliken charges =  -0.00000

 Dipole moment (field-independent basis, Debye):
    X=              4.9206    Y=             -0.0428    Z=              0.0154  Tot=              4.9208
 Quadrupole moment (field-independent basis, Debye-Ang):
   XX=           -335.3867   YY=           -347.5335   ZZ=           -339.7456
   XY=              0.2435   XZ=             -0.1547   YZ=            -39.7486

 Normal termination of Gaussian 09 at Fri Jul  1 23:23:08 2022.
