                         Program Version 5.0.2 -  RELEASE  -
|  1> %maxcore 20000
|  2> %pal
|  3>  nprocs= 8
|  4> end
|  5> ! RI-SCS-PBE-QIDH   def2-TZVP def2/J def2-TZVP/C RIJCOSX CPCM TightSCF
|  6> %TDDFT
|  7>    NROOTS   60
|  8>    dcorr 4
|  9>    doscs true
| 10>    TDA      FALSE
| 11> END
| 12>
| 13> %CPCM
| 14>    SMD          TRUE
| 15>    SMDsolvent   "ACETONITRILE"
| 16>  END
| 17>
| 18>
| 19> * xyz 0 1
| 20> C                   0.13708300   -1.17921300    0.31930200
| 21> C                  -0.55557000   -0.00182600   -0.00879400
| 22> C                   0.17541900    1.14900900   -0.35453000
| 23> C                   1.58092900    1.11156100   -0.37592900
| 24> C                   2.27561400   -0.04695700   -0.00771500
| 25> C                   1.54385000   -1.18685600    0.34407400
| 26> C                   2.29711500    2.21798600   -0.89758300
| 27> C                   2.21958000   -2.32286400    0.85557100
| 28> N                   2.88133300    3.11141900   -1.34291000
| 29> N                   2.77150900   -3.24146800    1.29073100
| 30> N                  -0.54323800   -2.34995200    0.66815600
| 31> C                  -1.50614500   -2.48840000    1.67144800
| 32> C                  -0.46523800   -3.55919600   -0.03591300
| 33> C                  -1.86852100   -1.59253500    2.66479500
| 34> C                  -2.06133600   -3.77985600    1.59078400
| 35> C                   0.31174400   -3.88150000   -1.13825200
| 36> C                  -1.39982900   -4.45894200    0.50924100
| 37> C                  -2.85713300   -1.98676600    3.55238400
| 38> H                  -1.39444800   -0.62438900    2.75418400
| 39> C                  -3.04733600   -4.15520300    2.49888900
| 40> C                   0.15766400   -5.14808800   -1.68009800
| 41> H                   1.00342200   -3.17104100   -1.57402000
| 42> C                  -1.53710300   -5.72401500   -0.05534200
| 43> C                  -3.44896500   -3.24908300    3.46604100
| 44> H                  -3.16699900   -1.30238600    4.33238500
| 45> H                  -3.48554400   -5.14437000    2.45065000
| 46> C                  -0.75208900   -6.06227000   -1.14423600
| 47> H                   0.75434000   -5.42893300   -2.53844000
| 48> H                  -2.25480000   -6.42663900    0.34980800
| 49> H                  -4.21790100   -3.52572800    4.17561500
| 50> H                  -0.84662000   -7.04305200   -1.59182800
| 51> N                  -1.95704500    0.03452400    0.02264600
| 52> C                  -2.72329000    0.88714200    0.82077400
| 53> C                  -2.82597400   -0.76917400   -0.71854200
| 54> C                  -2.30390500    1.80349400    1.77277500
| 55> C                  -4.08709800    0.63374500    0.57976800
| 56> C                  -2.53349300   -1.71964500   -1.68518000
| 57> C                  -4.15239800   -0.42587400   -0.38980200
| 58> C                  -3.27936500    2.51716500    2.45073600
| 59> H                  -1.25501600    1.94579900    1.99750400
| 60> C                  -5.04906900    1.35954100    1.27800200
| 61> C                  -3.59784400   -2.37067000   -2.28840100
| 62> H                  -1.51428700   -1.93831100   -1.97547100
| 63> C                  -5.20460700   -1.09027000   -1.01444600
| 64> C                  -4.63782200    2.30702700    2.20026800
| 65> H                  -2.97801700    3.24468400    3.19418500
| 66> H                  -6.10241500    1.17673100    1.10476800
| 67> C                  -4.91982400   -2.06831100   -1.95218400
| 68> H                  -3.39544300   -3.12362200   -3.04003600
| 69> H                  -6.22943700   -0.83797800   -0.77143200
| 70> H                  -5.37474200    2.88169000    2.74614800
| 71> H                  -5.72776900   -2.59662700   -2.44142400
| 72> N                  -0.47106700    2.33134400   -0.72615700
| 73> C                  -0.35292600    3.56244000   -0.06641300
| 74> C                  -1.43756700    2.46289400   -1.72746400
| 75> C                   0.44524700    3.90427700    1.01462900
| 76> C                  -1.26881200    4.46734500   -0.63442000
| 77> C                  -1.82862900    1.54484800   -2.68876600
| 78> C                  -1.95673600    3.77063400   -1.68793100
| 79> C                   0.32982100    5.19250100    1.51297200
| 80> H                   1.12481000    3.19252600    1.46669800
| 81> C                  -1.36739400    5.75468000   -0.11368900
| 82> C                  -2.81013900    1.93585500   -3.58559600
| 83> H                  -1.38090900    0.56179700   -2.74824300
| 84> C                  -2.93667200    4.14252200   -2.60424800
| 85> C                  -0.56251600    6.11043800    0.95479100
| 86> H                   0.94418100    5.48810100    2.35372100
| 87> H                  -2.07040300    6.46128200   -0.53718300
| 88> C                  -3.36736500    3.21586500   -3.53881100
| 89> H                  -3.14211500    1.23454300   -4.34107000
| 90> H                  -3.34792300    5.14420300   -2.58711500
| 91> H                  -0.62667900    7.10857500    1.36808600
| 92> H                  -4.13204300    3.48958200   -4.25412000
| 93> N                   3.67041100   -0.05888600    0.01233800
| 94> C                   4.49945100   -0.92778800   -0.70614300
| 95> C                   4.47884200    0.81349800    0.75011600
| 96> C                   4.15614100   -1.92990900   -1.60095800
| 97> C                   5.84035900   -0.60371400   -0.42471300
| 98> C                   4.10784700    1.81357600    1.63581300
| 99> C                   5.82726700    0.49749600    0.50011600
|100> C                   5.18973100   -2.63091600   -2.20169000
|101> H                   3.12314600   -2.15872200   -1.82982700
|102> C                   6.85968100   -1.32161400   -1.04402200
|103> C                   5.12221200    2.52335000    2.25843000
|104> H                   3.06808600    2.03515200    1.84063800
|105> C                   6.82728100    1.22378000    1.14126400
|106> C                   6.52640500   -2.33537600   -1.92535500
|107> H                   4.95141700   -3.42150100   -2.90157100
|108> H                   7.89609600   -1.08290000   -0.83981100
|109> C                   6.46688700    2.23720500    2.01228600
|110> H                   4.86241600    3.31320900    2.95145900
|111> H                   7.86979500    0.99261000    0.96072100
|112> H                   7.30821000   -2.90327700   -2.41275600
|113> H                   7.23355000    2.81189600    2.51552600
|114> *
|115>
|116>
|117>                          ****END OF INPUT****

CARTESIAN COORDINATES (ANGSTROEM)
---------------------------------
  C      0.137083   -1.179213    0.319302
  C     -0.555570   -0.001826   -0.008794
  C      0.175419    1.149009   -0.354530
  C      1.580929    1.111561   -0.375929
  C      2.275614   -0.046957   -0.007715
  C      1.543850   -1.186856    0.344074
  C      2.297115    2.217986   -0.897583
  C      2.219580   -2.322864    0.855571
  N      2.881333    3.111419   -1.342910
  N      2.771509   -3.241468    1.290731
  N     -0.543238   -2.349952    0.668156
  C     -1.506145   -2.488400    1.671448
  C     -0.465238   -3.559196   -0.035913
  C     -1.868521   -1.592535    2.664795
  C     -2.061336   -3.779856    1.590784
  C      0.311744   -3.881500   -1.138252
  C     -1.399829   -4.458942    0.509241
  C     -2.857133   -1.986766    3.552384
  H     -1.394448   -0.624389    2.754184
  C     -3.047336   -4.155203    2.498889
  C      0.157664   -5.148088   -1.680098
  H      1.003422   -3.171041   -1.574020
  C     -1.537103   -5.724015   -0.055342
  C     -3.448965   -3.249083    3.466041
  H     -3.166999   -1.302386    4.332385
  H     -3.485544   -5.144370    2.450650
  C     -0.752089   -6.062270   -1.144236
  H      0.754340   -5.428933   -2.538440
  H     -2.254800   -6.426639    0.349808
  H     -4.217901   -3.525728    4.175615
  H     -0.846620   -7.043052   -1.591828
  N     -1.957045    0.034524    0.022646
  C     -2.723290    0.887142    0.820774
  C     -2.825974   -0.769174   -0.718542
  C     -2.303905    1.803494    1.772775
  C     -4.087098    0.633745    0.579768
  C     -2.533493   -1.719645   -1.685180
  C     -4.152398   -0.425874   -0.389802
  C     -3.279365    2.517165    2.450736
  H     -1.255016    1.945799    1.997504
  C     -5.049069    1.359541    1.278002
  C     -3.597844   -2.370670   -2.288401
  H     -1.514287   -1.938311   -1.975471
  C     -5.204607   -1.090270   -1.014446
  C     -4.637822    2.307027    2.200268
  H     -2.978017    3.244684    3.194185
  H     -6.102415    1.176731    1.104768
  C     -4.919824   -2.068311   -1.952184
  H     -3.395443   -3.123622   -3.040036
  H     -6.229437   -0.837978   -0.771432
  H     -5.374742    2.881690    2.746148
  H     -5.727769   -2.596627   -2.441424
  N     -0.471067    2.331344   -0.726157
  C     -0.352926    3.562440   -0.066413
  C     -1.437567    2.462894   -1.727464
  C      0.445247    3.904277    1.014629
  C     -1.268812    4.467345   -0.634420
  C     -1.828629    1.544848   -2.688766
  C     -1.956736    3.770634   -1.687931
  C      0.329821    5.192501    1.512972
  H      1.124810    3.192526    1.466698
  C     -1.367394    5.754680   -0.113689
  C     -2.810139    1.935855   -3.585596
  H     -1.380909    0.561797   -2.748243
  C     -2.936672    4.142522   -2.604248
  C     -0.562516    6.110438    0.954791
  H      0.944181    5.488101    2.353721
  H     -2.070403    6.461282   -0.537183
  C     -3.367365    3.215865   -3.538811
  H     -3.142115    1.234543   -4.341070
  H     -3.347923    5.144203   -2.587115
  H     -0.626679    7.108575    1.368086
  H     -4.132043    3.489582   -4.254120
  N      3.670411   -0.058886    0.012338
  C      4.499451   -0.927788   -0.706143
  C      4.478842    0.813498    0.750116
  C      4.156141   -1.929909   -1.600958
  C      5.840359   -0.603714   -0.424713
  C      4.107847    1.813576    1.635813
  C      5.827267    0.497496    0.500116
  C      5.189731   -2.630916   -2.201690
  H      3.123146   -2.158722   -1.829827
  C      6.859681   -1.321614   -1.044022
  C      5.122212    2.523350    2.258430
  H      3.068086    2.035152    1.840638
  C      6.827281    1.223780    1.141264
  C      6.526405   -2.335376   -1.925355
  H      4.951417   -3.421501   -2.901571
  H      7.896096   -1.082900   -0.839811
  C      6.466887    2.237205    2.012286
  H      4.862416    3.313209    2.951459
  H      7.869795    0.992610    0.960721
  H      7.308210   -2.903277   -2.412756
  H      7.233550    2.811896    2.515526

 Total Charge           Charge          ....    0
 Multiplicity           Mult            ....    1
 Number of Electrons    NEL             ....  410
 Basis Dimension        Dim             .... 2114

ORBITAL ENERGIES
----------------

  NO   OCC          E(Eh)            E(eV)
   0   2.0000     -15.152875      -412.3307
   1   2.0000     -15.150282      -412.2601
   2   2.0000     -15.149982      -412.2520
   3   2.0000     -15.144531      -412.1036
   4   2.0000     -15.108497      -411.1231
   5   2.0000     -15.108394      -411.1203
   6   2.0000     -10.935163      -297.5609
   7   2.0000     -10.932386      -297.4854
   8   2.0000     -10.932322      -297.4836
   9   2.0000     -10.913215      -296.9637
  10   2.0000     -10.898770      -296.5706
  11   2.0000     -10.898611      -296.5663
  12   2.0000     -10.890015      -296.3324
  13   2.0000     -10.889959      -296.3309
  14   2.0000     -10.875440      -295.9358
  15   2.0000     -10.875174      -295.9285
  16   2.0000     -10.874441      -295.9086
  17   2.0000     -10.874327      -295.9055
  18   2.0000     -10.873380      -295.8797
  19   2.0000     -10.873184      -295.8744
  20   2.0000     -10.870826      -295.8102
  21   2.0000     -10.870386      -295.7982
  22   2.0000     -10.833485      -294.7941
  23   2.0000     -10.832753      -294.7742
  24   2.0000     -10.832738      -294.7738
  25   2.0000     -10.832664      -294.7718
  26   2.0000     -10.832008      -294.7539
  27   2.0000     -10.831935      -294.7519
  28   2.0000     -10.830409      -294.7104
  29   2.0000     -10.829683      -294.6906
  30   2.0000     -10.828075      -294.6469
  31   2.0000     -10.827951      -294.6435
  32   2.0000     -10.827886      -294.6418
  33   2.0000     -10.827865      -294.6412
  34   2.0000     -10.827824      -294.6401
  35   2.0000     -10.827817      -294.6399
  36   2.0000     -10.827290      -294.6255
  37   2.0000     -10.827258      -294.6247
  38   2.0000     -10.827162      -294.6221
  39   2.0000     -10.827144      -294.6216
  40   2.0000     -10.826366      -294.6004
  41   2.0000     -10.826191      -294.5956
  42   2.0000     -10.826083      -294.5927
  43   2.0000     -10.825993      -294.5903
  44   2.0000     -10.825968      -294.5896
  45   2.0000     -10.825939      -294.5888
  46   2.0000     -10.825917      -294.5882
  47   2.0000     -10.825874      -294.5870
  48   2.0000     -10.824838      -294.5588
  49   2.0000     -10.824761      -294.5567
  50   2.0000     -10.824737      -294.5561
  51   2.0000     -10.824642      -294.5535
  52   2.0000     -10.823790      -294.5303
  53   2.0000     -10.823580      -294.5246
  54   2.0000     -10.818697      -294.3917
  55   2.0000     -10.818615      -294.3895
  56   2.0000     -10.818400      -294.3836
  57   2.0000     -10.818391      -294.3834
  58   2.0000     -10.818306      -294.3811
  59   2.0000     -10.818214      -294.3786
  60   2.0000     -10.817049      -294.3469
  61   2.0000     -10.816850      -294.3415
  62   2.0000      -1.245917       -33.9031
  63   2.0000      -1.232054       -33.5259
  64   2.0000      -1.227941       -33.4140
  65   2.0000      -1.210260       -32.9328
  66   2.0000      -1.141672       -31.0665
  67   2.0000      -1.137370       -30.9494
  68   2.0000      -1.113381       -30.2966
  69   2.0000      -1.074754       -29.2455
  70   2.0000      -1.071218       -29.1493
  71   2.0000      -1.055853       -28.7312
  72   2.0000      -1.054454       -28.6931
  73   2.0000      -1.053966       -28.6799
  74   2.0000      -1.053092       -28.6561
  75   2.0000      -1.051267       -28.6064
  76   2.0000      -1.042627       -28.3713
  77   2.0000      -1.008257       -27.4361
  78   2.0000      -1.000463       -27.2240
  79   2.0000      -0.976119       -26.5616
  80   2.0000      -0.971790       -26.4438
  81   2.0000      -0.968269       -26.3479
  82   2.0000      -0.956255       -26.0210
  83   2.0000      -0.940659       -25.5966
  84   2.0000      -0.940169       -25.5833
  85   2.0000      -0.939549       -25.5664
  86   2.0000      -0.937462       -25.5096
  87   2.0000      -0.923834       -25.1388
  88   2.0000      -0.920686       -25.0531
  89   2.0000      -0.914276       -24.8787
  90   2.0000      -0.900359       -24.5000
  91   2.0000      -0.899850       -24.4862
  92   2.0000      -0.899555       -24.4781
  93   2.0000      -0.897509       -24.4225
  94   2.0000      -0.893503       -24.3135
  95   2.0000      -0.850050       -23.1310
  96   2.0000      -0.844946       -22.9921
  97   2.0000      -0.813591       -22.1389
  98   2.0000      -0.806211       -21.9381
  99   2.0000      -0.793660       -21.5966
 100   2.0000      -0.793339       -21.5878
 101   2.0000      -0.772887       -21.0313
 102   2.0000      -0.767507       -20.8849
 103   2.0000      -0.766241       -20.8505
 104   2.0000      -0.762056       -20.7366
 105   2.0000      -0.760387       -20.6912
 106   2.0000      -0.759304       -20.6617
 107   2.0000      -0.739410       -20.1204
 108   2.0000      -0.735253       -20.0072
 109   2.0000      -0.729299       -19.8452
 110   2.0000      -0.727379       -19.7930
 111   2.0000      -0.726557       -19.7706
 112   2.0000      -0.724238       -19.7075
 113   2.0000      -0.708792       -19.2872
 114   2.0000      -0.694524       -18.8990
 115   2.0000      -0.687781       -18.7155
 116   2.0000      -0.668675       -18.1956
 117   2.0000      -0.666348       -18.1322
 118   2.0000      -0.655837       -17.8462
 119   2.0000      -0.652774       -17.7629
 120   2.0000      -0.651859       -17.7380
 121   2.0000      -0.646971       -17.6050
 122   2.0000      -0.643745       -17.5172
 123   2.0000      -0.641675       -17.4609
 124   2.0000      -0.638685       -17.3795
 125   2.0000      -0.634341       -17.2613
 126   2.0000      -0.617356       -16.7991
 127   2.0000      -0.616667       -16.7804
 128   2.0000      -0.591025       -16.0826
 129   2.0000      -0.586575       -15.9615
 130   2.0000      -0.586515       -15.9599
 131   2.0000      -0.584688       -15.9102
 132   2.0000      -0.583354       -15.8739
 133   2.0000      -0.578236       -15.7346
 134   2.0000      -0.577367       -15.7110
 135   2.0000      -0.577163       -15.7054
 136   2.0000      -0.576608       -15.6903
 137   2.0000      -0.566439       -15.4136
 138   2.0000      -0.565473       -15.3873
 139   2.0000      -0.560133       -15.2420
 140   2.0000      -0.555805       -15.1242
 141   2.0000      -0.555047       -15.1036
 142   2.0000      -0.552276       -15.0282
 143   2.0000      -0.551542       -15.0082
 144   2.0000      -0.548789       -14.9333
 145   2.0000      -0.547463       -14.8972
 146   2.0000      -0.546873       -14.8812
 147   2.0000      -0.546285       -14.8652
 148   2.0000      -0.544469       -14.8157
 149   2.0000      -0.542861       -14.7720
 150   2.0000      -0.540608       -14.7107
 151   2.0000      -0.536784       -14.6066
 152   2.0000      -0.534987       -14.5577
 153   2.0000      -0.532178       -14.4813
 154   2.0000      -0.531962       -14.4754
 155   2.0000      -0.530849       -14.4451
 156   2.0000      -0.525649       -14.3036
 157   2.0000      -0.523579       -14.2473
 158   2.0000      -0.518827       -14.1180
 159   2.0000      -0.497835       -13.5468
 160   2.0000      -0.476385       -12.9631
 161   2.0000      -0.475335       -12.9345
 162   2.0000      -0.474614       -12.9149
 163   2.0000      -0.474590       -12.9143
 164   2.0000      -0.473554       -12.8861
 165   2.0000      -0.473489       -12.8843
 166   2.0000      -0.472554       -12.8588
 167   2.0000      -0.472507       -12.8576
 168   2.0000      -0.470572       -12.8049
 169   2.0000      -0.467648       -12.7253
 170   2.0000      -0.466593       -12.6966
 171   2.0000      -0.460231       -12.5235
 172   2.0000      -0.458822       -12.4852
 173   2.0000      -0.453764       -12.3476
 174   2.0000      -0.452990       -12.3265
 175   2.0000      -0.447775       -12.1846
 176   2.0000      -0.447142       -12.1674
 177   2.0000      -0.445471       -12.1219
 178   2.0000      -0.445083       -12.1113
 179   2.0000      -0.444282       -12.0895
 180   2.0000      -0.442554       -12.0425
 181   2.0000      -0.442134       -12.0311
 182   2.0000      -0.441184       -12.0052
 183   2.0000      -0.441015       -12.0006
 184   2.0000      -0.438534       -11.9331
 185   2.0000      -0.434874       -11.8335
 186   2.0000      -0.426063       -11.5938
 187   2.0000      -0.372774       -10.1437
 188   2.0000      -0.370721       -10.0878
 189   2.0000      -0.367113        -9.9896
 190   2.0000      -0.365086        -9.9345
 191   2.0000      -0.355325        -9.6689
 192   2.0000      -0.353753        -9.6261
 193   2.0000      -0.335347        -9.1253
 194   2.0000      -0.332555        -9.0493
 195   2.0000      -0.330479        -8.9928
 196   2.0000      -0.326290        -8.8788
 197   2.0000      -0.288342        -7.8462
 198   2.0000      -0.287196        -7.8150
 199   2.0000      -0.283407        -7.7119
 200   2.0000      -0.283180        -7.7057
 201   2.0000      -0.281767        -7.6673
 202   2.0000      -0.280181        -7.6241
 203   2.0000      -0.274119        -7.4591
 204   2.0000      -0.268394        -7.3034
 205   0.0000      -0.027778        -0.7559
 206   0.0000      -0.008994        -0.2447
 207   0.0000       0.019193         0.5223
 208   0.0000       0.019832         0.5396
 209   0.0000       0.021143         0.5753

MULLIKEN ATOMIC CHARGES
-----------------------
   0 C :   -0.042749
   1 C :   -0.031975
   2 C :   -0.036548
   3 C :    0.108805
   4 C :    0.130439
   5 C :    0.130669
   6 C :   -0.222692
   7 C :   -0.221369
   8 N :   -0.151023
   9 N :   -0.150947
  10 N :    0.230458
  11 C :    0.195613
  12 C :    0.045315
  13 C :   -0.307875
  14 C :    0.012544
  15 C :   -0.269764
  16 C :   -0.039124
  17 C :   -0.158701
  18 H :    0.170242
  19 C :   -0.222322
  20 C :   -0.157395
  21 H :    0.194786
  22 C :   -0.269565
  23 C :   -0.185200
  24 H :    0.172146
  25 H :    0.177472
  26 C :   -0.167302
  27 H :    0.173016
  28 H :    0.176362
  29 H :    0.168372
  30 H :    0.170603
  31 N :    0.441164
  32 C :    0.085649
  33 C :    0.095796
  34 C :   -0.329947
  35 C :    0.008722
  36 C :   -0.350048
  37 C :    0.016678
  38 C :   -0.145785
  39 H :    0.169056
  40 C :   -0.255533
  41 C :   -0.133660
  42 H :    0.172598
  43 C :   -0.249937
  44 C :   -0.175479
  45 H :    0.170768
  46 H :    0.175210
  47 C :   -0.180823
  48 H :    0.170981
  49 H :    0.175018
  50 H :    0.168367
  51 H :    0.167859
  52 N :    0.239549
  53 C :    0.050596
  54 C :    0.191223
  55 C :   -0.267674
  56 C :   -0.031419
  57 C :   -0.300965
  58 C :    0.012517
  59 C :   -0.157704
  60 H :    0.191889
  61 C :   -0.266422
  62 C :   -0.165562
  63 H :    0.171973
  64 C :   -0.230783
  65 C :   -0.169339
  66 H :    0.172698
  67 H :    0.176077
  68 C :   -0.178088
  69 H :    0.171679
  70 H :    0.177455
  71 H :    0.170065
  72 H :    0.169130
  73 N :    0.136912
  74 C :    0.141379
  75 C :    0.142986
  76 C :   -0.302195
  77 C :   -0.025271
  78 C :   -0.299425
  79 C :   -0.024664
  80 C :   -0.140223
  81 H :    0.183037
  82 C :   -0.235486
  83 C :   -0.147731
  84 H :    0.187713
  85 C :   -0.235524
  86 C :   -0.185356
  87 H :    0.174246
  88 H :    0.176317
  89 C :   -0.182417
  90 H :    0.174028
  91 H :    0.177204
  92 H :    0.169165
  93 H :    0.169470
Sum of atomic charges:   -0.0000000

LOEWDIN ATOMIC CHARGES
----------------------
   0 C :   -0.041584
   1 C :   -0.079473
   2 C :   -0.042837
   3 C :   -0.072146
   4 C :   -0.043746
   5 C :   -0.071486
   6 C :   -0.119258
   7 C :   -0.119001
   8 N :    0.029206
   9 N :    0.029022
  10 N :    0.319155
  11 C :   -0.114569
  12 C :   -0.120802
  13 C :   -0.111921
  14 C :   -0.088565
  15 C :   -0.122845
  16 C :   -0.090227
  17 C :   -0.140552
  18 H :    0.163224
  19 C :   -0.099960
  20 C :   -0.140058
  21 H :    0.163196
  22 C :   -0.098266
  23 C :   -0.160212
  24 H :    0.156715
  25 H :    0.159463
  26 C :   -0.160269
  27 H :    0.156602
  28 H :    0.159801
  29 H :    0.153654
  30 H :    0.153805
  31 N :    0.316512
  32 C :   -0.122963
  33 C :   -0.122558
  34 C :   -0.117567
  35 C :   -0.090743
  36 C :   -0.117117
  37 C :   -0.090803
  38 C :   -0.141887
  39 H :    0.163147
  40 C :   -0.100672
  41 C :   -0.141955
  42 H :    0.163082
  43 C :   -0.100656
  44 C :   -0.162883
  45 H :    0.156290
  46 H :    0.158981
  47 C :   -0.163196
  48 H :    0.156278
  49 H :    0.159017
  50 H :    0.153041
  51 H :    0.152962
  52 N :    0.319622
  53 C :   -0.120059
  54 C :   -0.114106
  55 C :   -0.122615
  56 C :   -0.089994
  57 C :   -0.112002
  58 C :   -0.088208
  59 C :   -0.140093
  60 H :    0.162685
  61 C :   -0.098364
  62 C :   -0.140549
  63 H :    0.163342
  64 C :   -0.099987
  65 C :   -0.160129
  66 H :    0.156653
  67 H :    0.159792
  68 C :   -0.159917
  69 H :    0.156689
  70 H :    0.159444
  71 H :    0.153818
  72 H :    0.153697
  73 N :    0.318674
  74 C :   -0.112529
  75 C :   -0.112761
  76 C :   -0.120124
  77 C :   -0.087729
  78 C :   -0.120052
  79 C :   -0.087679
  80 C :   -0.140094
  81 H :    0.162608
  82 C :   -0.098331
  83 C :   -0.139939
  84 H :    0.162457
  85 C :   -0.098164
  86 C :   -0.159861
  87 H :    0.156676
  88 H :    0.159916
  89 C :   -0.159689
  90 H :    0.156706
  91 H :    0.159900
  92 H :    0.153949
  93 H :    0.153972

  Mayer bond orders larger than 0.100000
B(  0-C ,  1-C ) :   1.6545 B(  0-C ,  5-C ) :   1.3064 B(  0-C , 10-N ) :   1.0660
B(  1-C ,  2-C ) :   1.6439 B(  1-C , 31-N ) :   1.0811 B(  2-C ,  3-C ) :   1.2962
B(  2-C , 52-N ) :   1.0766 B(  3-C ,  4-C ) :   1.3213 B(  3-C ,  6-C ) :   0.9721
B(  4-C ,  5-C ) :   1.3326 B(  4-C , 73-N ) :   1.1114 B(  5-C ,  7-C ) :   0.9670
B(  6-C ,  8-N ) :   2.9915 B(  7-C ,  9-N ) :   2.9911 B( 10-N , 11-C ) :   1.0100
B( 10-N , 12-C ) :   1.0339 B( 11-C , 13-C ) :   1.4453 B( 11-C , 14-C ) :   1.3036
B( 12-C , 15-C ) :   1.4650 B( 12-C , 16-C ) :   1.3103 B( 13-C , 17-C ) :   1.4336
B( 13-C , 18-H ) :   0.9708 B( 14-C , 16-C ) :   1.0046 B( 14-C , 19-C ) :   1.2926
B( 15-C , 20-C ) :   1.4163 B( 15-C , 21-H ) :   0.9514 B( 16-C , 22-C ) :   1.3069
B( 17-C , 23-C ) :   1.3313 B( 17-C , 24-H ) :   0.9817 B( 19-C , 23-C ) :   1.4594
B( 19-C , 25-H ) :   0.9815 B( 20-C , 26-C ) :   1.3459 B( 20-C , 27-H ) :   0.9768
B( 22-C , 26-C ) :   1.4672 B( 22-C , 28-H ) :   0.9858 B( 23-C , 29-H ) :   0.9915
B( 26-C , 30-H ) :   0.9850 B( 31-N , 32-C ) :   0.9715 B( 31-N , 33-C ) :   0.9833
B( 32-C , 34-C ) :   1.5001 B( 32-C , 35-C ) :   1.3128 B( 33-C , 36-C ) :   1.4885
B( 33-C , 37-C ) :   1.3009 B( 34-C , 38-C ) :   1.4176 B( 34-C , 39-H ) :   0.9777
B( 35-C , 37-C ) :   1.0214 B( 35-C , 40-C ) :   1.2864 B( 36-C , 41-C ) :   1.4187
B( 36-C , 42-H ) :   0.9764 B( 37-C , 43-C ) :   1.2790 B( 38-C , 44-C ) :   1.3315
B( 38-C , 45-H ) :   0.9824 B( 40-C , 44-C ) :   1.4635 B( 40-C , 46-H ) :   0.9871
B( 41-C , 47-C ) :   1.3316 B( 41-C , 48-H ) :   0.9816 B( 43-C , 47-C ) :   1.4620
B( 43-C , 49-H ) :   0.9892 B( 44-C , 50-H ) :   0.9893 B( 47-C , 51-H ) :   0.9899
B( 52-N , 53-C ) :   1.0351 B( 52-N , 54-C ) :   1.0057 B( 53-C , 55-C ) :   1.4575
B( 53-C , 56-C ) :   1.3137 B( 54-C , 57-C ) :   1.4532 B( 54-C , 58-C ) :   1.3150
B( 55-C , 59-C ) :   1.4189 B( 55-C , 60-H ) :   0.9541 B( 56-C , 58-C ) :   1.0032
B( 56-C , 61-C ) :   1.3032 B( 57-C , 62-C ) :   1.4330 B( 57-C , 63-H ) :   0.9716
B( 58-C , 64-C ) :   1.2927 B( 59-C , 65-C ) :   1.3401 B( 59-C , 66-H ) :   0.9779
B( 61-C , 65-C ) :   1.4648 B( 61-C , 67-H ) :   0.9853 B( 62-C , 68-C ) :   1.3323
B( 62-C , 69-H ) :   0.9821 B( 64-C , 68-C ) :   1.4620 B( 64-C , 70-H ) :   0.9807
B( 65-C , 71-H ) :   0.9868 B( 68-C , 72-H ) :   0.9895 B( 73-N , 74-C ) :   1.0479
B( 73-N , 75-C ) :   1.0453 B( 74-C , 76-C ) :   1.4231 B( 74-C , 77-C ) :   1.3196
B( 75-C , 78-C ) :   1.4184 B( 75-C , 79-C ) :   1.3239 B( 76-C , 80-C ) :   1.4321
B( 76-C , 81-H ) :   0.9645 B( 77-C , 79-C ) :   1.0350 B( 77-C , 82-C ) :   1.2989
B( 78-C , 83-C ) :   1.4318 B( 78-C , 84-H ) :   0.9610 B( 79-C , 85-C ) :   1.3039
B( 80-C , 86-C ) :   1.3413 B( 80-C , 87-H ) :   0.9754 B( 82-C , 86-C ) :   1.4610
B( 82-C , 88-H ) :   0.9847 B( 83-C , 89-C ) :   1.3446 B( 83-C , 90-H ) :   0.9757
B( 85-C , 89-C ) :   1.4650 B( 85-C , 91-H ) :   0.9816 B( 86-C , 92-H ) :   0.9878
B( 89-C , 93-H ) :   0.9868

MP2 TOTAL ENERGY:    -2479.417346065 Eh

-----------------------------------------------------------------------------
         ABSORPTION SPECTRUM VIA TRANSITION ELECTRIC DIPOLE MOMENTS
-----------------------------------------------------------------------------
State   Energy    Wavelength  fosc         T2        TX        TY        TZ
        (cm-1)      (nm)                 (au**2)    (au)      (au)      (au)
-----------------------------------------------------------------------------
   1   23993.0    416.8   0.178071519   2.44335  -0.02732   1.46982  -0.53126
   2   27215.6    367.4   0.019774569   0.23920  -0.48902  -0.00638  -0.00485
   3   27950.4    357.8   0.445882930   5.25180  -2.29136  -0.03251   0.02026
   4   26786.3    373.3   0.052287241   0.64263   0.15053  -0.75971   0.20690
   5   28123.0    355.6   0.005526444   0.06469   0.05811  -0.14229   0.20266
   6   30242.2    330.7   0.000162511   0.00177  -0.01150   0.00101   0.04044
   7   31522.6    317.2   0.016846252   0.17594   0.39298  -0.04332  -0.14008
   8   32326.6    309.3   0.162662080   1.65654   0.03361   0.28795  -1.25399
   9   36023.6    277.6   0.008181599   0.07477  -0.12820  -0.22765  -0.08070
  10   32784.4    305.0   0.149513626   1.50137  -1.20988  -0.11534  -0.15577
  11   33038.9    302.7   0.009196738   0.09164   0.25612  -0.16011  -0.02020
  12   33341.2    299.9   0.183661895   1.81348  -0.05357  -1.24082  -0.52055
  13   36418.4    274.6   0.043052016   0.38918  -0.43654  -0.42831  -0.12315
  14   36063.6    277.3   0.101745419   0.92880   0.76683  -0.48036  -0.33170
  15   33903.1    295.0   0.304867657   2.96038  -0.09329   0.80418   1.51821
  16   32555.9    307.2   0.095326313   0.96396  -0.72657  -0.49831  -0.43329
  17   32683.3    306.0   0.319612771   3.21939  -0.12602   1.65299   0.68640
  18   31024.2    322.3   0.003018248   0.03203  -0.17619  -0.01232  -0.02887
  19   31281.3    319.7   0.003553003   0.03739  -0.18438   0.05232   0.02564
  20   33063.1    302.5   0.020753869   0.20665   0.02390   0.42325   0.16411
  21   30959.1    323.0   0.013888570   0.14769  -0.38398   0.01342   0.00803
  22   33435.3    299.1   0.014199766   0.13981  -0.00276  -0.01562   0.37358
  23   35232.6    283.8   0.000065910   0.00062  -0.00477   0.01255  -0.02087
  24   37165.5    269.1   0.000782768   0.00693   0.02453   0.04368   0.06652
  25   42140.5    237.3   0.142307860   1.11174  -1.05436   0.00730  -0.00265
  26   38962.7    256.7   0.076226768   0.64407  -0.17927   0.10869   0.77467
  27   40571.9    246.5   0.070124444   0.56901   0.02101  -0.53930  -0.52699
  28   40849.1    244.8   0.199117859   1.60473  -1.25965   0.06543  -0.11717
  29   39909.7    250.6   0.079093441   0.65244  -0.14652  -0.65497   0.44943
  30   40885.2    244.6   0.291733322   2.34907  -0.00414  -1.43300  -0.54365
  31   39770.4    251.4   0.134106579   1.11011   0.88380   0.36870   0.43940
  32   40362.5    247.8   0.060400782   0.49265  -0.54635   0.07342   0.43447
  33   41661.5    240.0   0.330797875   2.61399  -0.43631  -1.05376  -1.14595
  34   41899.1    238.7   0.192205320   1.51021   0.55986  -0.64374  -0.88451
  35   40276.8    248.3   0.054732136   0.44737  -0.44994   0.28037   0.40782
  36   44059.8    227.0   0.480522135   3.59043  -0.03946  -1.52243   1.12742
  37   41668.2    240.0   0.146591207   1.15819   1.02836  -0.23723   0.21070
  38   43594.3    229.4   0.094621129   0.71455  -0.01516  -0.83946   0.09817
  39   44129.3    226.6   0.726261599   5.41803   0.84549   1.52240   1.54450
  40   44474.6    224.8   0.799083835   5.91501  -1.18320   1.53936   1.46473
  41   45102.4    221.7   0.258357917   1.88581   1.36015   0.15079   0.11434
  42   43038.4    232.4   0.116025188   0.88751   0.64624   0.52972   0.43506
  43   43956.5    227.5   0.355803011   2.66479   0.00767   0.32566   1.59959
  44   42706.0    234.2   0.053822923   0.41491   0.61632   0.15602  -0.10352
  45   42886.1    233.2   0.176600092   1.35566   1.15388   0.10519   0.11465
  46   43695.6    228.9   0.053882662   0.40596   0.00036  -0.60147   0.21022
  47   43927.2    227.6   0.634528966   4.75547   0.04515   2.13390   0.44710
  48   45679.3    218.9   0.005341350   0.03850  -0.02304  -0.15259  -0.12116
  49   44513.0    224.7   0.585307962   4.32886   0.02696  -1.62650  -1.29716
  50   43867.2    228.0   0.176178662   1.32218  -0.03306  -0.75968  -0.86254
  51   43599.6    229.4   0.149993342   1.13257   0.93781  -0.40250  -0.30179
  52   44098.9    226.8   0.297958239   2.22435   1.49075  -0.03863   0.02318
  53   45890.9    217.9   0.328921474   2.35962   1.51800   0.21612   0.09264
  54   46773.0    213.8   0.134819267   0.94892  -0.03456  -0.88210   0.41186
  55   45407.0    220.2   0.081662643   0.59207   0.12602  -0.52574  -0.54754
  56   47793.2    209.2   0.181741988   1.25189  -1.11166  -0.01334  -0.12621
  57   47917.9    208.7   0.014613391   0.10040   0.31570   0.02666   0.00444
  58   49500.5    202.0   0.001774989   0.01180  -0.03547  -0.05915  -0.08395
  59   48356.6    206.8   0.005575953   0.03796   0.14039   0.11281  -0.07434
  60   46374.8    215.6   0.042399121   0.30099   0.54847   0.00344   0.01270

FINAL SINGLE POINT ENERGY     -2475.621885873431

DIPOLE MOMENT
-------------
                                X             Y             Z
Electronic contribution:     10.27872      -0.29837      -0.16451
Nuclear contribution   :    -12.16803       0.34345       0.17306
                        -----------------------------------------
Total Dipole Moment    :     -1.88931       0.04509       0.00855
                        -----------------------------------------
Magnitude (a.u.)       :      1.88987
Magnitude (Debye)      :      4.80367

Rotational constants in cm-1:     0.001908     0.001510     0.001076
Rotational constants in MHz :    57.202954    45.270471    32.244588

                             ****ORCA TERMINATED NORMALLY****
TOTAL RUN TIME: 4 days 23 hours 56 minutes 38 seconds 185 msec
