                         Program Version 5.0.2 -  RELEASE  -
|  1> %maxcore 24000
|  2> %pal
|  3>  nprocs= 8
|  4> end
|  5> ! RI-B2PLYP D3BJ def2-TZVP def2/J def2-TZVP/C RIJCOSX CPCM TightSCF
|  6> %TDDFT DCORR 4
|  7>    NROOTS   60
|  8>   TDA      FALSE
|  9> END
| 10>
| 11>  %CPCM
| 12>    SMD          TRUE
| 13>    SMDsolvent   "ACETONITRILE"
| 14>  END
| 15>
| 16>
| 17> * xyz 0 1
| 18> C                   0.13708300   -1.17921300    0.31930200
| 19> C                  -0.55557000   -0.00182600   -0.00879400
| 20> C                   0.17541900    1.14900900   -0.35453000
| 21> C                   1.58092900    1.11156100   -0.37592900
| 22> C                   2.27561400   -0.04695700   -0.00771500
| 23> C                   1.54385000   -1.18685600    0.34407400
| 24> C                   2.29711500    2.21798600   -0.89758300
| 25> C                   2.21958000   -2.32286400    0.85557100
| 26> N                   2.88133300    3.11141900   -1.34291000
| 27> N                   2.77150900   -3.24146800    1.29073100
| 28> N                  -0.54323800   -2.34995200    0.66815600
| 29> C                  -1.50614500   -2.48840000    1.67144800
| 30> C                  -0.46523800   -3.55919600   -0.03591300
| 31> C                  -1.86852100   -1.59253500    2.66479500
| 32> C                  -2.06133600   -3.77985600    1.59078400
| 33> C                   0.31174400   -3.88150000   -1.13825200
| 34> C                  -1.39982900   -4.45894200    0.50924100
| 35> C                  -2.85713300   -1.98676600    3.55238400
| 36> H                  -1.39444800   -0.62438900    2.75418400
| 37> C                  -3.04733600   -4.15520300    2.49888900
| 38> C                   0.15766400   -5.14808800   -1.68009800
| 39> H                   1.00342200   -3.17104100   -1.57402000
| 40> C                  -1.53710300   -5.72401500   -0.05534200
| 41> C                  -3.44896500   -3.24908300    3.46604100
| 42> H                  -3.16699900   -1.30238600    4.33238500
| 43> H                  -3.48554400   -5.14437000    2.45065000
| 44> C                  -0.75208900   -6.06227000   -1.14423600
| 45> H                   0.75434000   -5.42893300   -2.53844000
| 46> H                  -2.25480000   -6.42663900    0.34980800
| 47> H                  -4.21790100   -3.52572800    4.17561500
| 48> H                  -0.84662000   -7.04305200   -1.59182800
| 49> N                  -1.95704500    0.03452400    0.02264600
| 50> C                  -2.72329000    0.88714200    0.82077400
| 51> C                  -2.82597400   -0.76917400   -0.71854200
| 52> C                  -2.30390500    1.80349400    1.77277500
| 53> C                  -4.08709800    0.63374500    0.57976800
| 54> C                  -2.53349300   -1.71964500   -1.68518000
| 55> C                  -4.15239800   -0.42587400   -0.38980200
| 56> C                  -3.27936500    2.51716500    2.45073600
| 57> H                  -1.25501600    1.94579900    1.99750400
| 58> C                  -5.04906900    1.35954100    1.27800200
| 59> C                  -3.59784400   -2.37067000   -2.28840100
| 60> H                  -1.51428700   -1.93831100   -1.97547100
| 61> C                  -5.20460700   -1.09027000   -1.01444600
| 62> C                  -4.63782200    2.30702700    2.20026800
| 63> H                  -2.97801700    3.24468400    3.19418500
| 64> H                  -6.10241500    1.17673100    1.10476800
| 65> C                  -4.91982400   -2.06831100   -1.95218400
| 66> H                  -3.39544300   -3.12362200   -3.04003600
| 67> H                  -6.22943700   -0.83797800   -0.77143200
| 68> H                  -5.37474200    2.88169000    2.74614800
| 69> H                  -5.72776900   -2.59662700   -2.44142400
| 70> N                  -0.47106700    2.33134400   -0.72615700
| 71> C                  -0.35292600    3.56244000   -0.06641300
| 72> C                  -1.43756700    2.46289400   -1.72746400
| 73> C                   0.44524700    3.90427700    1.01462900
| 74> C                  -1.26881200    4.46734500   -0.63442000
| 75> C                  -1.82862900    1.54484800   -2.68876600
| 76> C                  -1.95673600    3.77063400   -1.68793100
| 77> C                   0.32982100    5.19250100    1.51297200
| 78> H                   1.12481000    3.19252600    1.46669800
| 79> C                  -1.36739400    5.75468000   -0.11368900
| 80> C                  -2.81013900    1.93585500   -3.58559600
| 81> H                  -1.38090900    0.56179700   -2.74824300
| 82> C                  -2.93667200    4.14252200   -2.60424800
| 83> C                  -0.56251600    6.11043800    0.95479100
| 84> H                   0.94418100    5.48810100    2.35372100
| 85> H                  -2.07040300    6.46128200   -0.53718300
| 86> C                  -3.36736500    3.21586500   -3.53881100
| 87> H                  -3.14211500    1.23454300   -4.34107000
| 88> H                  -3.34792300    5.14420300   -2.58711500
| 89> H                  -0.62667900    7.10857500    1.36808600
| 90> H                  -4.13204300    3.48958200   -4.25412000
| 91> N                   3.67041100   -0.05888600    0.01233800
| 92> C                   4.49945100   -0.92778800   -0.70614300
| 93> C                   4.47884200    0.81349800    0.75011600
| 94> C                   4.15614100   -1.92990900   -1.60095800
| 95> C                   5.84035900   -0.60371400   -0.42471300
| 96> C                   4.10784700    1.81357600    1.63581300
| 97> C                   5.82726700    0.49749600    0.50011600
| 98> C                   5.18973100   -2.63091600   -2.20169000
| 99> H                   3.12314600   -2.15872200   -1.82982700
|100> C                   6.85968100   -1.32161400   -1.04402200
|101> C                   5.12221200    2.52335000    2.25843000
|102> H                   3.06808600    2.03515200    1.84063800
|103> C                   6.82728100    1.22378000    1.14126400
|104> C                   6.52640500   -2.33537600   -1.92535500
|105> H                   4.95141700   -3.42150100   -2.90157100
|106> H                   7.89609600   -1.08290000   -0.83981100
|107> C                   6.46688700    2.23720500    2.01228600
|108> H                   4.86241600    3.31320900    2.95145900
|109> H                   7.86979500    0.99261000    0.96072100
|110> H                   7.30821000   -2.90327700   -2.41275600
|111> H                   7.23355000    2.81189600    2.51552600
|112> *
|113>
|114>
|115>                          ****END OF INPUT****

CARTESIAN COORDINATES (ANGSTROEM)
---------------------------------
  C      0.137083   -1.179213    0.319302
  C     -0.555570   -0.001826   -0.008794
  C      0.175419    1.149009   -0.354530
  C      1.580929    1.111561   -0.375929
  C      2.275614   -0.046957   -0.007715
  C      1.543850   -1.186856    0.344074
  C      2.297115    2.217986   -0.897583
  C      2.219580   -2.322864    0.855571
  N      2.881333    3.111419   -1.342910
  N      2.771509   -3.241468    1.290731
  N     -0.543238   -2.349952    0.668156
  C     -1.506145   -2.488400    1.671448
  C     -0.465238   -3.559196   -0.035913
  C     -1.868521   -1.592535    2.664795
  C     -2.061336   -3.779856    1.590784
  C      0.311744   -3.881500   -1.138252
  C     -1.399829   -4.458942    0.509241
  C     -2.857133   -1.986766    3.552384
  H     -1.394448   -0.624389    2.754184
  C     -3.047336   -4.155203    2.498889
  C      0.157664   -5.148088   -1.680098
  H      1.003422   -3.171041   -1.574020
  C     -1.537103   -5.724015   -0.055342
  C     -3.448965   -3.249083    3.466041
  H     -3.166999   -1.302386    4.332385
  H     -3.485544   -5.144370    2.450650
  C     -0.752089   -6.062270   -1.144236
  H      0.754340   -5.428933   -2.538440
  H     -2.254800   -6.426639    0.349808
  H     -4.217901   -3.525728    4.175615
  H     -0.846620   -7.043052   -1.591828
  N     -1.957045    0.034524    0.022646
  C     -2.723290    0.887142    0.820774
  C     -2.825974   -0.769174   -0.718542
  C     -2.303905    1.803494    1.772775
  C     -4.087098    0.633745    0.579768
  C     -2.533493   -1.719645   -1.685180
  C     -4.152398   -0.425874   -0.389802
  C     -3.279365    2.517165    2.450736
  H     -1.255016    1.945799    1.997504
  C     -5.049069    1.359541    1.278002
  C     -3.597844   -2.370670   -2.288401
  H     -1.514287   -1.938311   -1.975471
  C     -5.204607   -1.090270   -1.014446
  C     -4.637822    2.307027    2.200268
  H     -2.978017    3.244684    3.194185
  H     -6.102415    1.176731    1.104768
  C     -4.919824   -2.068311   -1.952184
  H     -3.395443   -3.123622   -3.040036
  H     -6.229437   -0.837978   -0.771432
  H     -5.374742    2.881690    2.746148
  H     -5.727769   -2.596627   -2.441424
  N     -0.471067    2.331344   -0.726157
  C     -0.352926    3.562440   -0.066413
  C     -1.437567    2.462894   -1.727464
  C      0.445247    3.904277    1.014629
  C     -1.268812    4.467345   -0.634420
  C     -1.828629    1.544848   -2.688766
  C     -1.956736    3.770634   -1.687931
  C      0.329821    5.192501    1.512972
  H      1.124810    3.192526    1.466698
  C     -1.367394    5.754680   -0.113689
  C     -2.810139    1.935855   -3.585596
  H     -1.380909    0.561797   -2.748243
  C     -2.936672    4.142522   -2.604248
  C     -0.562516    6.110438    0.954791
  H      0.944181    5.488101    2.353721
  H     -2.070403    6.461282   -0.537183
  C     -3.367365    3.215865   -3.538811
  H     -3.142115    1.234543   -4.341070
  H     -3.347923    5.144203   -2.587115
  H     -0.626679    7.108575    1.368086
  H     -4.132043    3.489582   -4.254120
  N      3.670411   -0.058886    0.012338
  C      4.499451   -0.927788   -0.706143
  C      4.478842    0.813498    0.750116
  C      4.156141   -1.929909   -1.600958
  C      5.840359   -0.603714   -0.424713
  C      4.107847    1.813576    1.635813
  C      5.827267    0.497496    0.500116
  C      5.189731   -2.630916   -2.201690
  H      3.123146   -2.158722   -1.829827
  C      6.859681   -1.321614   -1.044022
  C      5.122212    2.523350    2.258430
  H      3.068086    2.035152    1.840638
  C      6.827281    1.223780    1.141264
  C      6.526405   -2.335376   -1.925355
  H      4.951417   -3.421501   -2.901571
  H      7.896096   -1.082900   -0.839811
  C      6.466887    2.237205    2.012286
  H      4.862416    3.313209    2.951459
  H      7.869795    0.992610    0.960721
  H      7.308210   -2.903277   -2.412756
  H      7.233550    2.811896    2.515526

 Total Charge           Charge          ....    0
 Multiplicity           Mult            ....    1
 Number of Electrons    NEL             ....  410
 Basis Dimension        Dim             .... 2114

ORBITAL ENERGIES
----------------

  NO   OCC          E(Eh)            E(eV)
   0   2.0000     -14.904793      -405.5800
   1   2.0000     -14.902138      -405.5078
   2   2.0000     -14.901827      -405.4993
   3   2.0000     -14.896528      -405.3551
   4   2.0000     -14.862411      -404.4268
   5   2.0000     -14.862314      -404.4241
   6   2.0000     -10.724346      -291.8243
   7   2.0000     -10.721683      -291.7518
   8   2.0000     -10.721637      -291.7506
   9   2.0000     -10.704784      -291.2920
  10   2.0000     -10.690849      -290.9128
  11   2.0000     -10.690685      -290.9083
  12   2.0000     -10.683198      -290.7046
  13   2.0000     -10.683136      -290.7029
  14   2.0000     -10.667132      -290.2674
  15   2.0000     -10.666862      -290.2601
  16   2.0000     -10.665890      -290.2336
  17   2.0000     -10.665775      -290.2305
  18   2.0000     -10.664982      -290.2089
  19   2.0000     -10.664820      -290.2045
  20   2.0000     -10.662351      -290.1373
  21   2.0000     -10.661937      -290.1261
  22   2.0000     -10.626495      -289.1616
  23   2.0000     -10.625864      -289.1445
  24   2.0000     -10.625636      -289.1383
  25   2.0000     -10.625545      -289.1358
  26   2.0000     -10.625005      -289.1211
  27   2.0000     -10.624916      -289.1187
  28   2.0000     -10.623293      -289.0745
  29   2.0000     -10.622667      -289.0575
  30   2.0000     -10.621793      -289.0337
  31   2.0000     -10.621765      -289.0329
  32   2.0000     -10.621560      -289.0274
  33   2.0000     -10.621445      -289.0242
  34   2.0000     -10.621251      -289.0189
  35   2.0000     -10.621193      -289.0173
  36   2.0000     -10.621053      -289.0135
  37   2.0000     -10.621005      -289.0122
  38   2.0000     -10.620623      -289.0019
  39   2.0000     -10.620589      -289.0009
  40   2.0000     -10.619878      -288.9816
  41   2.0000     -10.619735      -288.9777
  42   2.0000     -10.619708      -288.9770
  43   2.0000     -10.619604      -288.9741
  44   2.0000     -10.619537      -288.9723
  45   2.0000     -10.619536      -288.9723
  46   2.0000     -10.619465      -288.9703
  47   2.0000     -10.619394      -288.9684
  48   2.0000     -10.618354      -288.9401
  49   2.0000     -10.618346      -288.9399
  50   2.0000     -10.618329      -288.9394
  51   2.0000     -10.618136      -288.9342
  52   2.0000     -10.617442      -288.9153
  53   2.0000     -10.617241      -288.9098
  54   2.0000     -10.613141      -288.7983
  55   2.0000     -10.613065      -288.7962
  56   2.0000     -10.612770      -288.7881
  57   2.0000     -10.612764      -288.7880
  58   2.0000     -10.612703      -288.7863
  59   2.0000     -10.612602      -288.7836
  60   2.0000     -10.611407      -288.7511
  61   2.0000     -10.611219      -288.7459
  62   2.0000      -1.165931       -31.7266
  63   2.0000      -1.152700       -31.3666
  64   2.0000      -1.148726       -31.2584
  65   2.0000      -1.131761       -30.7968
  66   2.0000      -1.066614       -29.0240
  67   2.0000      -1.062897       -28.9229
  68   2.0000      -1.039397       -28.2834
  69   2.0000      -1.001908       -27.2633
  70   2.0000      -0.998549       -27.1719
  71   2.0000      -0.983627       -26.7658
  72   2.0000      -0.982182       -26.7265
  73   2.0000      -0.981602       -26.7108
  74   2.0000      -0.980782       -26.6884
  75   2.0000      -0.978935       -26.6382
  76   2.0000      -0.971361       -26.4321
  77   2.0000      -0.939645       -25.5690
  78   2.0000      -0.931765       -25.3546
  79   2.0000      -0.908101       -24.7107
  80   2.0000      -0.903805       -24.5938
  81   2.0000      -0.900858       -24.5136
  82   2.0000      -0.889042       -24.1921
  83   2.0000      -0.874551       -23.7977
  84   2.0000      -0.873971       -23.7819
  85   2.0000      -0.873403       -23.7665
  86   2.0000      -0.871371       -23.7112
  87   2.0000      -0.858830       -23.3700
  88   2.0000      -0.856196       -23.2983
  89   2.0000      -0.849692       -23.1213
  90   2.0000      -0.836075       -22.7507
  91   2.0000      -0.835486       -22.7347
  92   2.0000      -0.835204       -22.7271
  93   2.0000      -0.833173       -22.6718
  94   2.0000      -0.830230       -22.5917
  95   2.0000      -0.790391       -21.5076
  96   2.0000      -0.785849       -21.3840
  97   2.0000      -0.756171       -20.5765
  98   2.0000      -0.749102       -20.3841
  99   2.0000      -0.736585       -20.0435
 100   2.0000      -0.735977       -20.0270
 101   2.0000      -0.717454       -19.5229
 102   2.0000      -0.711759       -19.3680
 103   2.0000      -0.711123       -19.3506
 104   2.0000      -0.707016       -19.2389
 105   2.0000      -0.705307       -19.1924
 106   2.0000      -0.704279       -19.1644
 107   2.0000      -0.685590       -18.6558
 108   2.0000      -0.681557       -18.5461
 109   2.0000      -0.675579       -18.3834
 110   2.0000      -0.673741       -18.3334
 111   2.0000      -0.672931       -18.3114
 112   2.0000      -0.670702       -18.2507
 113   2.0000      -0.656990       -17.8776
 114   2.0000      -0.643676       -17.5153
 115   2.0000      -0.637852       -17.3568
 116   2.0000      -0.620214       -16.8769
 117   2.0000      -0.617954       -16.8154
 118   2.0000      -0.607339       -16.5265
 119   2.0000      -0.604479       -16.4487
 120   2.0000      -0.603449       -16.4207
 121   2.0000      -0.598844       -16.2954
 122   2.0000      -0.595914       -16.2157
 123   2.0000      -0.593719       -16.1559
 124   2.0000      -0.590773       -16.0757
 125   2.0000      -0.586657       -15.9638
 126   2.0000      -0.570394       -15.5212
 127   2.0000      -0.569975       -15.5098
 128   2.0000      -0.545636       -14.8475
 129   2.0000      -0.541282       -14.7290
 130   2.0000      -0.540979       -14.7208
 131   2.0000      -0.539365       -14.6769
 132   2.0000      -0.538525       -14.6540
 133   2.0000      -0.533601       -14.5200
 134   2.0000      -0.533088       -14.5061
 135   2.0000      -0.532911       -14.5012
 136   2.0000      -0.532212       -14.4822
 137   2.0000      -0.522027       -14.2051
 138   2.0000      -0.521209       -14.1828
 139   2.0000      -0.516923       -14.0662
 140   2.0000      -0.512329       -13.9412
 141   2.0000      -0.511921       -13.9301
 142   2.0000      -0.508676       -13.8418
 143   2.0000      -0.508216       -13.8293
 144   2.0000      -0.505663       -13.7598
 145   2.0000      -0.504524       -13.7288
 146   2.0000      -0.503764       -13.7081
 147   2.0000      -0.503356       -13.6970
 148   2.0000      -0.501427       -13.6445
 149   2.0000      -0.500561       -13.6210
 150   2.0000      -0.497756       -13.5446
 151   2.0000      -0.493406       -13.4263
 152   2.0000      -0.492950       -13.4138
 153   2.0000      -0.490276       -13.3411
 154   2.0000      -0.489906       -13.3310
 155   2.0000      -0.488749       -13.2995
 156   2.0000      -0.483888       -13.1673
 157   2.0000      -0.476991       -12.9796
 158   2.0000      -0.472991       -12.8707
 159   2.0000      -0.458380       -12.4732
 160   2.0000      -0.437441       -11.9034
 161   2.0000      -0.436494       -11.8776
 162   2.0000      -0.435831       -11.8596
 163   2.0000      -0.435708       -11.8562
 164   2.0000      -0.434796       -11.8314
 165   2.0000      -0.434752       -11.8302
 166   2.0000      -0.433786       -11.8039
 167   2.0000      -0.433571       -11.7981
 168   2.0000      -0.431839       -11.7509
 169   2.0000      -0.428298       -11.6546
 170   2.0000      -0.427191       -11.6244
 171   2.0000      -0.421170       -11.4606
 172   2.0000      -0.420609       -11.4453
 173   2.0000      -0.415642       -11.3102
 174   2.0000      -0.415241       -11.2993
 175   2.0000      -0.410191       -11.1619
 176   2.0000      -0.409551       -11.1445
 177   2.0000      -0.407926       -11.1002
 178   2.0000      -0.407648       -11.0927
 179   2.0000      -0.406774       -11.0689
 180   2.0000      -0.405226       -11.0267
 181   2.0000      -0.404923       -11.0185
 182   2.0000      -0.403702       -10.9853
 183   2.0000      -0.403108       -10.9691
 184   2.0000      -0.401076       -10.9138
 185   2.0000      -0.396855       -10.7990
 186   2.0000      -0.388561       -10.5733
 187   2.0000      -0.340899        -9.2763
 188   2.0000      -0.338872        -9.2212
 189   2.0000      -0.335160        -9.1202
 190   2.0000      -0.333208        -9.0671
 191   2.0000      -0.325157        -8.8480
 192   2.0000      -0.323494        -8.8027
 193   2.0000      -0.305618        -8.3163
 194   2.0000      -0.303141        -8.2489
 195   2.0000      -0.301050        -8.1920
 196   2.0000      -0.297037        -8.0828
 197   2.0000      -0.262148        -7.1334
 198   2.0000      -0.260344        -7.0843
 199   2.0000      -0.257646        -7.0109
 200   2.0000      -0.255804        -6.9608
 201   2.0000      -0.255243        -6.9455
 202   2.0000      -0.253834        -6.9072
 203   2.0000      -0.248619        -6.7653
 204   2.0000      -0.241987        -6.5848
 205   0.0000      -0.041375        -1.1259
 206   0.0000      -0.023504        -0.6396
 207   0.0000       0.005262         0.1432
 208   0.0000       0.006025         0.1640
 209   0.0000       0.007208         0.1961

MULLIKEN ATOMIC CHARGES
-----------------------
   0 C :   -0.048804
   1 C :    0.065495
   2 C :   -0.039979
   3 C :    0.112337
   4 C :    0.094482
   5 C :    0.132442
   6 C :   -0.181887
   7 C :   -0.180848
   8 N :   -0.114769
   9 N :   -0.114577
  10 N :    0.117893
  11 C :    0.186569
  12 C :    0.076235
  13 C :   -0.288790
  14 C :    0.038982
  15 C :   -0.265494
  16 C :   -0.011777
  17 C :   -0.154843
  18 H :    0.168509
  19 C :   -0.216869
  20 C :   -0.154236
  21 H :    0.192164
  22 C :   -0.258732
  23 C :   -0.168548
  24 H :    0.158710
  25 H :    0.161320
  26 C :   -0.155280
  27 H :    0.159909
  28 H :    0.160514
  29 H :    0.154249
  30 H :    0.155964
  31 N :    0.295192
  32 C :    0.109191
  33 C :    0.120486
  34 C :   -0.326202
  35 C :    0.033173
  36 C :   -0.339163
  37 C :    0.034754
  38 C :   -0.138369
  39 H :    0.164790
  40 C :   -0.243285
  41 C :   -0.129892
  42 H :    0.171985
  43 C :   -0.238121
  44 C :   -0.163033
  45 H :    0.157766
  46 H :    0.158907
  47 C :   -0.167495
  48 H :    0.157954
  49 H :    0.158637
  50 H :    0.153756
  51 H :    0.153387
  52 N :    0.126098
  53 C :    0.076321
  54 C :    0.181901
  55 C :   -0.260633
  56 C :   -0.005305
  57 C :   -0.283496
  58 C :    0.039482
  59 C :   -0.156571
  60 H :    0.196017
  61 C :   -0.255694
  62 C :   -0.159595
  63 H :    0.168186
  64 C :   -0.224367
  65 C :   -0.156347
  66 H :    0.159397
  67 H :    0.160273
  68 C :   -0.162319
  69 H :    0.158213
  70 H :    0.161342
  71 H :    0.155516
  72 H :    0.154872
  73 N :    0.039340
  74 C :    0.142018
  75 C :    0.146948
  76 C :   -0.275445
  77 C :    0.002652
  78 C :   -0.273950
  79 C :    0.002741
  80 C :   -0.146650
  81 H :    0.189136
  82 C :   -0.230983
  83 C :   -0.151014
  84 H :    0.187086
  85 C :   -0.230828
  86 C :   -0.167530
  87 H :    0.160354
  88 H :    0.160923
  89 C :   -0.165659
  90 H :    0.160481
  91 H :    0.161665
  92 H :    0.155220
  93 H :    0.155443
Sum of atomic charges:    0.0000000

LOEWDIN ATOMIC CHARGES
----------------------
   0 C :   -0.042613
   1 C :   -0.076151
   2 C :   -0.043833
   3 C :   -0.069427
   4 C :   -0.044569
   5 C :   -0.068808
   6 C :   -0.121883
   7 C :   -0.121661
   8 N :    0.029826
   9 N :    0.029644
  10 N :    0.323147
  11 C :   -0.112717
  12 C :   -0.118221
  13 C :   -0.109264
  14 C :   -0.084249
  15 C :   -0.119980
  16 C :   -0.085862
  17 C :   -0.140058
  18 H :    0.160114
  19 C :   -0.100056
  20 C :   -0.140157
  21 H :    0.160020
  22 C :   -0.098477
  23 C :   -0.157785
  24 H :    0.152963
  25 H :    0.155695
  26 C :   -0.157766
  27 H :    0.152862
  28 H :    0.156001
  29 H :    0.150067
  30 H :    0.150220
  31 N :    0.320611
  32 C :   -0.120324
  33 C :   -0.119934
  34 C :   -0.114233
  35 C :   -0.086273
  36 C :   -0.113698
  37 C :   -0.086348
  38 C :   -0.141715
  39 H :    0.159942
  40 C :   -0.101007
  41 C :   -0.141839
  42 H :    0.159932
  43 C :   -0.101005
  44 C :   -0.160476
  45 H :    0.152498
  46 H :    0.155158
  47 C :   -0.160791
  48 H :    0.152487
  49 H :    0.155197
  50 H :    0.149435
  51 H :    0.149361
  52 N :    0.323607
  53 C :   -0.117499
  54 C :   -0.112256
  55 C :   -0.119691
  56 C :   -0.085674
  57 C :   -0.109278
  58 C :   -0.083942
  59 C :   -0.140173
  60 H :    0.159630
  61 C :   -0.098573
  62 C :   -0.140019
  63 H :    0.160171
  64 C :   -0.100066
  65 C :   -0.157633
  66 H :    0.152911
  67 H :    0.156000
  68 C :   -0.157482
  69 H :    0.152938
  70 H :    0.155684
  71 H :    0.150234
  72 H :    0.150117
  73 N :    0.322831
  74 C :   -0.110577
  75 C :   -0.110783
  76 C :   -0.117571
  77 C :   -0.083541
  78 C :   -0.117430
  79 C :   -0.083497
  80 C :   -0.139953
  81 H :    0.159603
  82 C :   -0.098341
  83 C :   -0.139806
  84 H :    0.159407
  85 C :   -0.098190
  86 C :   -0.157278
  87 H :    0.152989
  88 H :    0.156193
  89 C :   -0.157110
  90 H :    0.153020
  91 H :    0.156174
  92 H :    0.150416
  93 H :    0.150436

  Mayer bond orders larger than 0.100000
B(  0-C ,  1-C ) :   1.5398 B(  0-C ,  2-C ) :   0.1126 B(  0-C ,  5-C ) :   1.2885
B(  0-C , 10-N ) :   1.0600 B(  1-C ,  2-C ) :   1.5295 B(  1-C , 31-N ) :   1.0823
B(  2-C ,  3-C ) :   1.2811 B(  2-C , 52-N ) :   1.0703 B(  3-C ,  4-C ) :   1.3341
B(  3-C ,  6-C ) :   1.0220 B(  4-C ,  5-C ) :   1.3417 B(  4-C , 73-N ) :   1.1092
B(  5-C ,  7-C ) :   1.0178 B(  6-C ,  8-N ) :   3.0005 B(  7-C ,  9-N ) :   3.0004
B( 10-N , 11-C ) :   1.0245 B( 10-N , 12-C ) :   1.0333 B( 11-C , 13-C ) :   1.3889
B( 11-C , 14-C ) :   1.3014 B( 12-C , 15-C ) :   1.4157 B( 12-C , 16-C ) :   1.3040
B( 13-C , 17-C ) :   1.4314 B( 13-C , 18-H ) :   0.9775 B( 14-C , 16-C ) :   1.0374
B( 14-C , 19-C ) :   1.2985 B( 15-C , 20-C ) :   1.4117 B( 15-C , 21-H ) :   0.9539
B( 16-C , 22-C ) :   1.3108 B( 17-C , 23-C ) :   1.3322 B( 17-C , 24-H ) :   0.9828
B( 19-C , 23-C ) :   1.4555 B( 19-C , 25-H ) :   0.9838 B( 20-C , 26-C ) :   1.3482
B( 20-C , 27-H ) :   0.9785 B( 22-C , 26-C ) :   1.4619 B( 22-C , 28-H ) :   0.9875
B( 23-C , 29-H ) :   0.9930 B( 26-C , 30-H ) :   0.9879 B( 31-N , 32-C ) :   0.9807
B( 31-N , 33-C ) :   0.9884 B( 32-C , 34-C ) :   1.4179 B( 32-C , 35-C ) :   1.3074
B( 33-C , 36-C ) :   1.4163 B( 33-C , 37-C ) :   1.3002 B( 34-C , 38-C ) :   1.4128
B( 34-C , 39-H ) :   0.9923 B( 35-C , 37-C ) :   1.0634 B( 35-C , 40-C ) :   1.2962
B( 36-C , 41-C ) :   1.4150 B( 36-C , 42-H ) :   0.9866 B( 37-C , 43-C ) :   1.2904
B( 38-C , 44-C ) :   1.3335 B( 38-C , 45-H ) :   0.9825 B( 40-C , 44-C ) :   1.4604
B( 40-C , 46-H ) :   0.9882 B( 41-C , 47-C ) :   1.3335 B( 41-C , 48-H ) :   0.9823
B( 43-C , 47-C ) :   1.4589 B( 43-C , 49-H ) :   0.9901 B( 44-C , 50-H ) :   0.9915
B( 47-C , 51-H ) :   0.9919 B( 52-N , 53-C ) :   1.0334 B( 52-N , 54-C ) :   1.0224
B( 53-C , 55-C ) :   1.4186 B( 53-C , 56-C ) :   1.3090 B( 54-C , 57-C ) :   1.3932
B( 54-C , 58-C ) :   1.3118 B( 55-C , 59-C ) :   1.4154 B( 55-C , 60-H ) :   0.9475
B( 56-C , 58-C ) :   1.0355 B( 56-C , 61-C ) :   1.3079 B( 57-C , 62-C ) :   1.4298
B( 57-C , 63-H ) :   0.9788 B( 58-C , 64-C ) :   1.2988 B( 59-C , 65-C ) :   1.3431
B( 59-C , 66-H ) :   0.9798 B( 61-C , 65-C ) :   1.4599 B( 61-C , 67-H ) :   0.9870
B( 62-C , 68-C ) :   1.3337 B( 62-C , 69-H ) :   0.9829 B( 64-C , 68-C ) :   1.4577
B( 64-C , 70-H ) :   0.9833 B( 65-C , 71-H ) :   0.9896 B( 68-C , 72-H ) :   0.9914
B( 73-N , 74-C ) :   1.0533 B( 73-N , 75-C ) :   1.0513 B( 74-C , 76-C ) :   1.3958
B( 74-C , 77-C ) :   1.3138 B( 75-C , 78-C ) :   1.3872 B( 75-C , 79-C ) :   1.3159
B( 76-C , 80-C ) :   1.4336 B( 76-C , 81-H ) :   0.9521 B( 77-C , 79-C ) :   1.0596
B( 77-C , 82-C ) :   1.3021 B( 78-C , 83-C ) :   1.4315 B( 78-C , 84-H ) :   0.9552
B( 79-C , 85-C ) :   1.3059 B( 80-C , 86-C ) :   1.3435 B( 80-C , 87-H ) :   0.9786
B( 82-C , 86-C ) :   1.4551 B( 82-C , 88-H ) :   0.9868 B( 83-C , 89-C ) :   1.3459
B( 83-C , 90-H ) :   0.9784 B( 85-C , 89-C ) :   1.4586 B( 85-C , 91-H ) :   0.9845
B( 86-C , 92-H ) :   0.9897 B( 89-C , 93-H ) :   0.9889

MP2 TOTAL ENERGY:    -2480.634194890 Eh

-----------------------------------------------------------------------------
         ABSORPTION SPECTRUM VIA TRANSITION ELECTRIC DIPOLE MOMENTS
-----------------------------------------------------------------------------
State   Energy    Wavelength  fosc         T2        TX        TY        TZ
        (cm-1)      (nm)                 (au**2)    (au)      (au)      (au)
-----------------------------------------------------------------------------
   1   22003.9    454.5   0.144557523   2.16280  -0.02195   1.38662  -0.48951
   2   24478.5    408.5   0.051506440   0.69271   0.83226   0.00713   0.00255
   3   24127.7    414.5   0.040612768   0.55414  -0.10776  -0.69815   0.23478
   4   25807.2    387.5   0.328496882   4.19050   2.04636  -0.05358   0.00559
   5   24849.2    402.4   0.000540679   0.00716   0.03126  -0.05627   0.05496
   6   25948.3    385.4   0.007674028   0.09736   0.31134  -0.01110   0.01743
   7   27099.3    369.0   0.003391503   0.04120   0.00029   0.02612  -0.20129
   8   27631.8    361.9   0.001998760   0.02381  -0.14201  -0.03343   0.05028
   9   27838.2    359.2   0.133617204   1.58014   0.01913   1.08816  -0.62904
  10   27382.9    365.2   0.000261155   0.00314   0.04491  -0.02913  -0.01657
  11   27864.7    358.9   0.008663306   0.10235   0.31742   0.03081   0.02550
  12   29128.2    343.3   0.087472030   0.98862  -0.99418  -0.01313   0.00744
  13   31507.7    317.4   0.000798588   0.00834  -0.05771  -0.01838  -0.06838
  14   30071.2    332.5   0.002763278   0.03025  -0.04988   0.04604  -0.16014
  15   32795.9    304.9   0.077353890   0.77649   0.86858  -0.13876   0.05296
  16   32791.6    305.0   0.037719619   0.37869  -0.08717  -0.56564   0.22613
  17   32487.7    307.8   0.009082092   0.09203  -0.27923  -0.11699   0.01943
  18   34681.2    288.3   0.107139340   1.01702  -0.04429  -0.89614  -0.46043
  19   34832.8    287.1   0.098675188   0.93260   0.19577  -0.48490  -0.81188
  20   36478.8    274.1   0.135851093   1.22602   1.09181   0.08876   0.16152
  21   36504.2    273.9   0.297861015   2.68625   0.04985   1.28378   1.01767
  22   33663.4    297.1   0.373596590   3.65360   0.06579  -1.11860  -1.54855
  23   30959.8    323.0   0.003112702   0.03310  -0.17625  -0.01145  -0.04363
  24   31669.5    315.8   0.002737209   0.02845  -0.01131   0.16803   0.00967
  25   35548.1    281.3   0.085665375   0.79335   0.87824  -0.07152   0.13010
  26   36950.5    270.6   0.048627824   0.43325   0.13956   0.36771  -0.52779
  27   36566.9    273.5   0.051604787   0.46460  -0.09183  -0.67531  -0.01134
  28   36229.5    276.0   0.010013845   0.09099   0.29160  -0.05713   0.05197
  29   36129.3    276.8   0.053969073   0.49177  -0.48913   0.25934   0.43043
  30   38874.5    257.2   0.054413180   0.46080   0.66534   0.04930   0.12528
  31   37939.1    263.6   0.055468759   0.48132   0.66483  -0.19786   0.01337
  32   39598.1    252.5   0.093134600   0.77431  -0.44592  -0.70230  -0.28678
  33   40974.9    244.1   0.216538428   1.73977  -0.11376   0.67671   1.12645
  34   39866.5    250.8   0.008741406   0.07219   0.21416   0.05491   0.15266
  35   38186.7    261.9   0.008025631   0.06919   0.00359  -0.22436  -0.13725
  36   40415.1    247.4   0.145616469   1.18616  -0.59970   0.59122   0.69063
  37   39006.4    256.4   0.145095101   1.22460  -0.71321  -0.54548  -0.64682
  38   36997.2    270.3   0.018232166   0.16224   0.39352  -0.04185   0.07500
  39   39302.2    254.4   0.087048503   0.72916   0.14833   0.78113   0.31142
  40   39128.0    255.6   0.046501499   0.39125   0.02500  -0.17019  -0.60138
  41   40026.3    249.8   0.002759220   0.02269  -0.04257  -0.09404   0.10972
  42   40100.2    249.4   0.055333334   0.45427  -0.00929  -0.65982   0.13719
  43   39805.8    251.2   0.208958428   1.72818   0.03050  -1.11802  -0.69085
  44   38817.2    257.6   0.093944521   0.79675  -0.86512  -0.21099  -0.06170
  45   41006.6    243.9   0.313554821   2.51730   0.09780  -1.49510  -0.52193
  46   41924.5    238.5   0.148528958   1.16632  -1.00100   0.36181  -0.18277
  47   42914.3    233.0   0.586946247   4.50269   0.29533   1.51612  -1.45494
  48   43037.8    232.4   0.131054825   1.00249  -0.72388  -0.22987  -0.65241
  49   42498.8    235.3   0.692394831   5.36356  -0.46366   1.21044   1.91922
  50   42520.7    235.2   0.264650635   2.04903  -1.38373  -0.13958  -0.33890
  51   42522.5    235.2   0.108948041   0.84348   0.10829   0.79161   0.45290
  52   42573.0    234.9   0.341956266   2.64431   1.62592  -0.01649  -0.02044
  53   39495.7    253.2   0.053262379   0.44396   0.55066   0.21490   0.30749
  54   41652.6    240.1   0.765619848   6.05127   0.12154   1.84016   1.62797
  55   39775.6    251.4   0.052667144   0.43591  -0.09551   0.55526  -0.34420
  56   39740.4    251.6   0.054645060   0.45268  -0.57795   0.32119   0.12446
  57   41220.4    242.6   0.626472532   5.00340  -0.12175   2.09813   0.76578
  58   43922.4    227.7   0.212309975   1.59133   1.24865   0.08192  -0.15966
  59   42662.8    234.4   0.281023705   2.16855  -1.46389  -0.00217  -0.15994
  60   41028.1    243.7   0.157693223   1.26534  -1.11357  -0.14897   0.05577

Dispersion correction           -0.147053878
FINAL SINGLE POINT ENERGY     -2477.429719725525

DIPOLE MOMENT
-------------
                                X             Y             Z
Electronic contribution:     10.30904      -0.29859      -0.16529
Nuclear contribution   :    -12.16803       0.34345       0.17306
                        -----------------------------------------
Total Dipole Moment    :     -1.85899       0.04486       0.00777
                        -----------------------------------------
Magnitude (a.u.)       :      1.85955
Magnitude (Debye)      :      4.72660

Rotational constants in cm-1:     0.001908     0.001510     0.001076
Rotational constants in MHz :    57.202954    45.270471    32.244588

                             ****ORCA TERMINATED NORMALLY****
TOTAL RUN TIME: 2 days 14 hours 4 minutes 55 seconds 551 msec
