 Gaussian 09, Revision E.01,
 Gaussian 09:  ES64L-G09RevE.01 30-Nov-2015

 ----------------------------------------------------------------------
 #p TPSSTPSS/def2TZVP td=(NStates=50) int=ultrafine scrf=(SMD,solvent=A
 cetonitrile)
 ----------------------------------------------------------------------

 -----
 Title
 -----
 Symbolic Z-matrix:
 Charge =  0 Multiplicity = 1

                         Standard orientation:
 ---------------------------------------------------------------------
 Center     Atomic      Atomic             Coordinates (Angstroms)
 Number     Number       Type             X           Y           Z
 ---------------------------------------------------------------------
      1          6           0       -0.058434   -1.191661   -0.261333
      2          6           0        0.659437    0.002201   -0.007016
      3          6           0       -0.061412    1.195217    0.240658
      4          6           0       -1.476012    1.177968    0.260129
      5          6           0       -2.192451    0.000259   -0.012680
      6          6           0       -1.472829   -1.175403   -0.286912
      7          6           0       -2.190643    2.339568    0.676748
      8          6           0       -2.184962   -2.336526   -0.708632
      9          7           0       -2.782794    3.269246    1.044981
     10          7           0       -2.775658   -3.264818   -1.082675
     11          7           0        0.597425   -2.408210   -0.545171
     12          6           0        1.391378   -2.682695   -1.676872
     13          6           0        0.479093   -3.594954    0.209849
     14          6           0        1.697173   -1.860816   -2.761010
     15          6           0        1.812603   -4.034701   -1.618348
     16          6           0       -0.209618   -3.820607    1.402667
     17          6           0        1.238757   -4.610715   -0.420687
     18          6           0        2.482901   -2.402577   -3.778364
     19          1           0        1.332901   -0.841379   -2.824146
     20          6           0        2.601058   -4.555286   -2.652891
     21          6           0       -0.133837   -5.097835    1.958003
     22          1           0       -0.784179   -3.039104    1.889977
     23          6           0        1.304216   -5.883634    0.161263
     24          6           0        2.939274   -3.730629   -3.723402
     25          1           0        2.740029   -1.782247   -4.632716
     26          1           0        2.932829   -5.589709   -2.624103
     27          6           0        0.613306   -6.119675    1.347369
     28          1           0       -0.664958   -5.301980    2.883772
     29          1           0        1.885969   -6.672949   -0.307309
     30          1           0        3.550010   -4.120150   -4.533246
     31          1           0        0.651656   -7.102718    1.808541
     32          7           0        2.074172    0.001472    0.003557
     33          6           0        2.910443    0.710910   -0.882033
     34          6           0        2.892249   -0.711315    0.903570
     35          6           0        2.570360    1.514186   -1.970789
     36          6           0        4.261259    0.446128   -0.544510
     37          6           0        2.529841   -1.511185    1.987764
     38          6           0        4.249693   -0.453692    0.588128
     39          6           0        3.610613    2.079943   -2.707582
     40          1           0        1.537214    1.689993   -2.249703
     41          6           0        5.289098    1.024235   -1.301520
     42          6           0        3.555078   -2.081493    2.741998
     43          1           0        1.491396   -1.679940    2.250713
     44          6           0        5.261980   -1.036580    1.362204
     45          6           0        4.956173    1.844366   -2.376715
     46          1           0        3.370394    2.712809   -3.557768
     47          1           0        6.329383    0.829016   -1.054845
     48          6           0        4.907147   -1.853943    2.432452
     49          1           0        3.297804   -2.711920    3.588976
     50          1           0        6.307182   -0.847119    1.132389
     51          1           0        5.741877    2.301369   -2.972108
     52          1           0        5.680506   -2.314578    3.041036
     53          7           0        0.592057    2.412353    0.529365
     54          6           0        0.487561    3.595300   -0.232407
     55          6           0        1.359619    2.692582    1.677141
     56          6           0       -0.173622    3.812703   -1.442129
     57          6           0        1.230211    4.615691    0.411069
     58          6           0        1.645212    1.873349    2.768667
     59          6           0        1.778875    4.045479    1.623291
     60          6           0       -0.088328    5.087524   -2.001601
     61          1           0       -0.732694    3.025768   -1.938525
     62          6           0        1.305793    5.885967   -0.175507
     63          6           0        2.408222    2.419409    3.800855
     64          1           0        1.283231    0.852555    2.824538
     65          6           0        2.544493    4.570157    2.672829
     66          6           0        0.641809    6.114272   -1.378413
     67          1           0       -0.597742    5.286155   -2.940686
     68          1           0        1.874938    6.678969    0.302185
     69          6           0        2.861933    3.748733    3.752221
     70          1           0        2.649741    1.801674    4.661656
     71          1           0        2.874760    5.605193    2.648641
     72          1           0        0.688359    7.095160   -1.843428
     73          1           0        3.454597    4.141977    4.573615
     74          7           0       -3.601571   -0.003197   -0.009634
     75          6           0       -4.419789   -0.688495    0.909483
     76          6           0       -4.429350    0.681107   -0.920583
     77          6           0       -4.052650   -1.465621    2.008581
     78          6           0       -5.775556   -0.437789    0.581220
     79          6           0       -4.073512    1.460687   -2.021615
     80          6           0       -5.781601    0.426827   -0.580696
     81          6           0       -5.079331   -2.015636    2.776040
     82          1           0       -3.011903   -1.637482    2.265356
     83          6           0       -6.787216   -1.000638    1.370927
     84          6           0       -5.108222    2.008437   -2.779856
     85          1           0       -3.035234    1.635508   -2.285991
     86          6           0       -6.801510    0.987485   -1.361270
     87          6           0       -6.430838   -1.790460    2.461610
     88          1           0       -4.824476   -2.628668    3.636304
     89          1           0       -7.832858   -0.818916    1.137239
     90          6           0       -6.456455    1.779125   -2.454254
     91          1           0       -4.862549    2.623108   -3.641591
     92          1           0       -7.844622    0.803025   -1.118610
     93          1           0       -7.204555   -2.234225    3.082096
     94          1           0       -7.236506    2.221324   -3.067858
 ---------------------------------------------------------------------

 SCF Done:  E(RTPSS-TPSS) =  -2483.16525370     A.U. after   16 cycles

 Excitation energies and oscillator strengths:

 Excited State   1:      Singlet-A      2.0189 eV  614.13 nm  f=0.0534  <S**2>=0.000
     205 -> 206        0.70187
 This state for optimization and/or second-order correction.
 Total Energy, E(TD-HF/TD-KS) =  -2483.09106151
 Copying the excited state density for this state as the 1-particle RhoCI density.

 Excited State   2:      Singlet-A      2.1831 eV  567.92 nm  f=0.0185  <S**2>=0.000
     202 -> 206       -0.17641
     203 -> 206        0.67748

 Excited State   3:      Singlet-A      2.2131 eV  560.22 nm  f=0.0279  <S**2>=0.000
     201 -> 206       -0.14633
     204 -> 206        0.67817

 Excited State   4:      Singlet-A      2.2384 eV  553.91 nm  f=0.0457  <S**2>=0.000
     202 -> 206        0.68028
     203 -> 206        0.18030

 Excited State   5:      Singlet-A      2.3580 eV  525.81 nm  f=0.0145  <S**2>=0.000
     200 -> 206        0.10098
     201 -> 206        0.68039
     204 -> 206        0.12914

 Excited State   6:      Singlet-A      2.3898 eV  518.81 nm  f=0.0021  <S**2>=0.000
     200 -> 206        0.69162

 Excited State   7:      Singlet-A      2.4046 eV  515.62 nm  f=0.0002  <S**2>=0.000
     199 -> 206        0.70657

 Excited State   8:      Singlet-A      2.4169 eV  512.99 nm  f=0.0673  <S**2>=0.000
     198 -> 206        0.18734
     205 -> 207        0.67358

 Excited State   9:      Singlet-A      2.4181 eV  512.74 nm  f=0.0000  <S**2>=0.000
     198 -> 206        0.67186
     205 -> 207       -0.17870

 Excited State  10:      Singlet-A      2.5748 eV  481.54 nm  f=0.0596  <S**2>=0.000
     204 -> 207        0.70056

 Excited State  11:      Singlet-A      2.6145 eV  474.21 nm  f=0.0519  <S**2>=0.000
     202 -> 207        0.32218
     203 -> 207        0.61589

 Excited State  12:      Singlet-A      2.6443 eV  468.87 nm  f=0.0506  <S**2>=0.000
     202 -> 207        0.62539
     203 -> 207       -0.31714

 Excited State  13:      Singlet-A      2.7401 eV  452.48 nm  f=0.0112  <S**2>=0.000
     201 -> 207        0.70158

 Excited State  14:      Singlet-A      2.7882 eV  444.68 nm  f=0.0009  <S**2>=0.000
     200 -> 207        0.70600

 Excited State  15:      Singlet-A      2.8022 eV  442.45 nm  f=0.0095  <S**2>=0.000
     199 -> 207        0.69591

 Excited State  16:      Singlet-A      2.8083 eV  441.50 nm  f=0.0096  <S**2>=0.000
     198 -> 207        0.69812

 Excited State  17:      Singlet-A      3.1479 eV  393.86 nm  f=0.0000  <S**2>=0.000
     197 -> 206        0.70643

 Excited State  18:      Singlet-A      3.2730 eV  378.81 nm  f=0.0040  <S**2>=0.000
     196 -> 206        0.70548

 Excited State  19:      Singlet-A      3.2919 eV  376.64 nm  f=0.0076  <S**2>=0.000
     195 -> 206        0.70660

 Excited State  20:      Singlet-A      3.3690 eV  368.01 nm  f=0.0022  <S**2>=0.000
     194 -> 206        0.69327
     205 -> 208       -0.12361

 Excited State  21:      Singlet-A      3.3774 eV  367.10 nm  f=0.0116  <S**2>=0.000
     194 -> 206        0.12755
     205 -> 208        0.63962
     205 -> 209        0.21037

 Excited State  22:      Singlet-A      3.3903 eV  365.71 nm  f=0.0049  <S**2>=0.000
     204 -> 208       -0.10952
     205 -> 210        0.68297

 Excited State  23:      Singlet-A      3.3955 eV  365.14 nm  f=0.0013  <S**2>=0.000
     204 -> 210        0.11833
     205 -> 208       -0.18956
     205 -> 209        0.63544
     205 -> 211        0.15232

 Excited State  24:      Singlet-A      3.4817 eV  356.10 nm  f=0.0061  <S**2>=0.000
     203 -> 208        0.17181
     203 -> 209       -0.18290
     203 -> 211        0.17618
     205 -> 209       -0.10766
     205 -> 211        0.61525

 Excited State  25:      Singlet-A      3.5355 eV  350.69 nm  f=0.0009  <S**2>=0.000
     204 -> 208        0.52790
     204 -> 209        0.45538

 Excited State  26:      Singlet-A      3.5404 eV  350.19 nm  f=0.0028  <S**2>=0.000
     197 -> 207        0.70349

 Excited State  27:      Singlet-A      3.5583 eV  348.44 nm  f=0.0014  <S**2>=0.000
     202 -> 208        0.15117
     203 -> 208        0.34739
     203 -> 209        0.16125
     203 -> 210        0.30194
     204 -> 208       -0.21578
     204 -> 209        0.32590
     204 -> 210       -0.23871

 Excited State  28:      Singlet-A      3.5600 eV  348.27 nm  f=0.0015  <S**2>=0.000
     202 -> 208        0.15226
     202 -> 209        0.11004
     203 -> 208        0.41227
     203 -> 209        0.18457
     203 -> 210       -0.32299
     204 -> 208        0.18527
     204 -> 209       -0.28335
     204 -> 210       -0.13958

 Excited State  29:      Singlet-A      3.5754 eV  346.77 nm  f=0.0003  <S**2>=0.000
     202 -> 208       -0.10469
     202 -> 209        0.28477
     203 -> 209        0.42182
     203 -> 211        0.18842
     204 -> 210        0.41640

 Excited State  30:      Singlet-A      3.5875 eV  345.60 nm  f=0.0020  <S**2>=0.000
     202 -> 208       -0.28837
     202 -> 209        0.14570
     202 -> 210       -0.34749
     203 -> 208        0.18714
     203 -> 209       -0.21515
     203 -> 210        0.34818
     203 -> 211       -0.13346
     204 -> 208        0.13206
     204 -> 209       -0.13906

 Excited State  31:      Singlet-A      3.5882 eV  345.53 nm  f=0.0024  <S**2>=0.000
     202 -> 208        0.33507
     202 -> 209       -0.20006
     202 -> 210       -0.30445
     203 -> 208       -0.18973
     203 -> 209        0.22918
     203 -> 210        0.27663
     203 -> 211        0.16057
     204 -> 208        0.12971
     204 -> 209       -0.14144
     204 -> 210       -0.11308

 Excited State  32:      Singlet-A      3.6263 eV  341.90 nm  f=0.0005  <S**2>=0.000
     201 -> 211        0.12332
     202 -> 210        0.28082
     203 -> 210        0.11267
     204 -> 208        0.10362
     204 -> 209       -0.11995
     204 -> 211        0.58759

 Excited State  33:      Singlet-A      3.6551 eV  339.21 nm  f=0.0001  <S**2>=0.000
     196 -> 207        0.44357
     202 -> 208       -0.12978
     202 -> 209        0.20267
     202 -> 211       -0.41604
     203 -> 208       -0.11231
     204 -> 210       -0.18677

 Excited State  34:      Singlet-A      3.6586 eV  338.88 nm  f=0.0051  <S**2>=0.000
     196 -> 207        0.54832
     202 -> 209       -0.16179
     202 -> 211        0.34764
     204 -> 210        0.13663

 Excited State  35:      Singlet-A      3.6904 eV  335.97 nm  f=0.0016  <S**2>=0.000
     195 -> 207        0.70437

 Excited State  36:      Singlet-A      3.7093 eV  334.26 nm  f=0.0046  <S**2>=0.000
     198 -> 210       -0.15112
     199 -> 208        0.15537
     199 -> 209       -0.13924
     201 -> 210        0.36319
     202 -> 208       -0.18340
     202 -> 211        0.34230
     203 -> 208       -0.12611
     203 -> 209        0.16026
     203 -> 211       -0.17725
     204 -> 210       -0.19479
     205 -> 211        0.13606

 Excited State  37:      Singlet-A      3.7130 eV  333.92 nm  f=0.0191  <S**2>=0.000
     198 -> 208       -0.11666
     199 -> 210        0.14840
     201 -> 208        0.45977
     201 -> 211       -0.14651
     202 -> 210       -0.29110
     203 -> 210       -0.14499
     204 -> 208       -0.17251
     204 -> 209        0.12919
     204 -> 211        0.21019

 Excited State  38:      Singlet-A      3.7343 eV  332.01 nm  f=0.0062  <S**2>=0.000
     201 -> 208        0.30306
     201 -> 209        0.57332
     201 -> 211        0.13568
     202 -> 210        0.13394

 Excited State  39:      Singlet-A      3.7542 eV  330.25 nm  f=0.0119  <S**2>=0.000
     198 -> 210       -0.11183
     199 -> 209        0.14735
     199 -> 211       -0.23502
     201 -> 210        0.23010
     202 -> 211        0.13425
     203 -> 209       -0.13290
     203 -> 211        0.48568
     204 -> 210       -0.12013
     205 -> 211       -0.14247

 Excited State  40:      Singlet-A      3.7572 eV  329.99 nm  f=0.0007  <S**2>=0.000
     194 -> 207        0.70213

 Excited State  41:      Singlet-A      3.7714 eV  328.75 nm  f=0.0024  <S**2>=0.000
     198 -> 208        0.12608
     199 -> 210        0.15797
     200 -> 208        0.47338
     200 -> 209       -0.35966
     201 -> 208        0.18630
     201 -> 209       -0.17969

 Excited State  42:      Singlet-A      3.7741 eV  328.51 nm  f=0.0066  <S**2>=0.000
     198 -> 210        0.11023
     199 -> 208        0.45336
     199 -> 209        0.34529
     200 -> 210        0.17782
     201 -> 210        0.10543
     202 -> 208        0.20332
     202 -> 209        0.20675
     203 -> 209       -0.11320

 Excited State  43:      Singlet-A      3.7826 eV  327.77 nm  f=0.0037  <S**2>=0.000
     198 -> 208        0.35483
     198 -> 209       -0.16866
     199 -> 210        0.31702
     200 -> 208       -0.27315
     200 -> 209        0.21526
     200 -> 210       -0.11508
     201 -> 208        0.17146
     201 -> 209       -0.17788
     201 -> 211        0.10957

 Excited State  44:      Singlet-A      3.7839 eV  327.67 nm  f=0.0023  <S**2>=0.000
     199 -> 208       -0.10095
     199 -> 209       -0.17713
     200 -> 210        0.63770
     201 -> 210        0.14687

 Excited State  45:      Singlet-A      3.7991 eV  326.35 nm  f=0.0089  <S**2>=0.000
     198 -> 210        0.42409
     199 -> 208        0.27101
     199 -> 209       -0.33786
     199 -> 211       -0.15868
     200 -> 210       -0.12016
     201 -> 210        0.16004
     202 -> 209       -0.14339

 Excited State  46:      Singlet-A      3.7997 eV  326.30 nm  f=0.0010  <S**2>=0.000
     198 -> 208        0.43196
     198 -> 209        0.52686

 Excited State  47:      Singlet-A      3.8321 eV  323.54 nm  f=0.0310  <S**2>=0.000
     198 -> 210        0.14375
     199 -> 208       -0.13585
     199 -> 209       -0.30794
     201 -> 210       -0.12989
     202 -> 208        0.20909
     202 -> 209        0.40715
     202 -> 211        0.17321
     203 -> 208       -0.15011
     203 -> 209       -0.15187
     204 -> 210       -0.10320
     205 -> 208       -0.10727

 Excited State  48:      Singlet-A      3.8348 eV  323.31 nm  f=0.0059  <S**2>=0.000
     198 -> 209        0.17292
     198 -> 211        0.47773
     199 -> 210       -0.31623
     201 -> 208        0.13750
     201 -> 209       -0.14372
     201 -> 211        0.27789

 Excited State  49:      Singlet-A      3.8365 eV  323.17 nm  f=0.0025  <S**2>=0.000
     192 -> 206       -0.11439
     198 -> 210       -0.21512
     199 -> 208       -0.13903
     199 -> 211       -0.15679
     200 -> 210       -0.16518
     201 -> 210        0.33751
     202 -> 208        0.26269
     202 -> 211       -0.12694
     203 -> 209       -0.12733
     203 -> 211       -0.17722
     204 -> 210        0.23894

 Excited State  50:      Singlet-A      3.8404 eV  322.85 nm  f=0.0044  <S**2>=0.000
     193 -> 206        0.36658
     198 -> 208        0.16692
     198 -> 209       -0.21400
     200 -> 211        0.22797
     201 -> 208       -0.13152
     201 -> 211        0.32200
     202 -> 210       -0.15278
     203 -> 210       -0.10745
     204 -> 208       -0.10971
     204 -> 211        0.12136

 The electronic state is 1-A.
 Alpha  occ. eigenvalues --  -14.16887 -14.16877 -14.16845 -14.16593 -14.12069
 Alpha  occ. eigenvalues --  -14.12063 -10.08697 -10.08667 -10.08659 -10.07849
 Alpha  occ. eigenvalues --  -10.06417 -10.06412 -10.04701 -10.04695 -10.03515
 Alpha  occ. eigenvalues --  -10.03511 -10.03484 -10.03467 -10.03458 -10.03442
 Alpha  occ. eigenvalues --  -10.03248 -10.03247  -9.99879  -9.99855  -9.99837
 Alpha  occ. eigenvalues --   -9.99828  -9.99812  -9.99803  -9.99643  -9.99618
 Alpha  occ. eigenvalues --   -9.99492  -9.99490  -9.99488  -9.99479  -9.99381
 Alpha  occ. eigenvalues --   -9.99369  -9.99281  -9.99280  -9.99263  -9.99259
 Alpha  occ. eigenvalues --   -9.99257  -9.99249  -9.99232  -9.99227  -9.99126
 Alpha  occ. eigenvalues --   -9.99124  -9.99121  -9.99121  -9.99108  -9.99107
 Alpha  occ. eigenvalues --   -9.99053  -9.99049  -9.98962  -9.98958  -9.98606
 Alpha  occ. eigenvalues --   -9.98605  -9.98602  -9.98596  -9.98590  -9.98580
 Alpha  occ. eigenvalues --   -9.98475  -9.98472  -0.95555  -0.94413  -0.94130
 Alpha  occ. eigenvalues --   -0.92766  -0.86844  -0.86405  -0.84605  -0.81196
 Alpha  occ. eigenvalues --   -0.80932  -0.79587  -0.79286  -0.79274  -0.79231
 Alpha  occ. eigenvalues --   -0.79067  -0.78573  -0.76077  -0.75342  -0.73099
 Alpha  occ. eigenvalues --   -0.72671  -0.72524  -0.71472  -0.70156  -0.70145
 Alpha  occ. eigenvalues --   -0.70104  -0.69921  -0.69016  -0.68893  -0.68169
 Alpha  occ. eigenvalues --   -0.66836  -0.66796  -0.66788  -0.66633  -0.66633
 Alpha  occ. eigenvalues --   -0.63510  -0.63106  -0.60639  -0.60048  -0.58728
 Alpha  occ. eigenvalues --   -0.58635  -0.57287  -0.56603  -0.56547  -0.56363
 Alpha  occ. eigenvalues --   -0.56209  -0.56125  -0.54546  -0.54170  -0.53542
 Alpha  occ. eigenvalues --   -0.53360  -0.53322  -0.53102  -0.52252  -0.51193
 Alpha  occ. eigenvalues --   -0.50666  -0.49333  -0.49185  -0.48057  -0.47831
 Alpha  occ. eigenvalues --   -0.47777  -0.47315  -0.47276  -0.46833  -0.46509
 Alpha  occ. eigenvalues --   -0.46135  -0.44835  -0.44825  -0.42239  -0.42205
 Alpha  occ. eigenvalues --   -0.41889  -0.41883  -0.41798  -0.41609  -0.41596
 Alpha  occ. eigenvalues --   -0.41486  -0.41336  -0.40439  -0.40370  -0.39995
 Alpha  occ. eigenvalues --   -0.39768  -0.39745  -0.39533  -0.39489  -0.39126
 Alpha  occ. eigenvalues --   -0.38864  -0.38701  -0.38613  -0.38492  -0.38445
 Alpha  occ. eigenvalues --   -0.38409  -0.38270  -0.38020  -0.37893  -0.37743
 Alpha  occ. eigenvalues --   -0.37690  -0.37584  -0.36033  -0.34961  -0.34676
 Alpha  occ. eigenvalues --   -0.33601  -0.33561  -0.33204  -0.33142  -0.33129
 Alpha  occ. eigenvalues --   -0.33022  -0.32988  -0.32927  -0.32869  -0.32825
 Alpha  occ. eigenvalues --   -0.32756  -0.32655  -0.32390  -0.32260  -0.32130
 Alpha  occ. eigenvalues --   -0.31021  -0.31010  -0.30654  -0.30619  -0.30527
 Alpha  occ. eigenvalues --   -0.30468  -0.30394  -0.30338  -0.30322  -0.30127
 Alpha  occ. eigenvalues --   -0.30086  -0.30005  -0.26912  -0.26757  -0.26377
 Alpha  occ. eigenvalues --   -0.26225  -0.25972  -0.25721  -0.24046  -0.23771
 Alpha  occ. eigenvalues --   -0.23676  -0.23240  -0.20545  -0.20499  -0.20463
 Alpha  occ. eigenvalues --   -0.20284  -0.19810  -0.19644  -0.19571  -0.18922
 Alpha virt. eigenvalues --   -0.11691  -0.10252  -0.06611  -0.06556  -0.06552
 Alpha virt. eigenvalues --   -0.06301  -0.03778  -0.03596  -0.03409  -0.03216
 Alpha virt. eigenvalues --   -0.03196  -0.02942  -0.02092  -0.01994  -0.01873

 Mulliken charges:
               1
     1  C    0.039738
     2  C    0.004172
     3  C    0.029643
     4  C    0.057439
     5  C    0.070718
     6  C    0.054048
     7  C   -0.196716
     8  C   -0.195770
     9  N   -0.026493
    10  N   -0.026236
    11  N    0.193428
    12  C    0.166872
    13  C    0.012511
    14  C   -0.254024
    15  C    0.006478
    16  C   -0.215207
    17  C    0.024036
    18  C   -0.136273
    19  H    0.130188
    20  C   -0.233877
    21  C   -0.105054
    22  H    0.152184
    23  C   -0.241275
    24  C   -0.132051
    25  H    0.138634
    26  H    0.137157
    27  C   -0.135413
    28  H    0.139721
    29  H    0.136874
    30  H    0.137652
    31  H    0.137585
    32  N    0.284724
    33  C    0.070615
    34  C    0.072376
    35  C   -0.241910
    36  C    0.030670
    37  C   -0.242269
    38  C    0.029294
    39  C   -0.116088
    40  H    0.128177
    41  C   -0.245970
    42  C   -0.115420
    43  H    0.128462
    44  C   -0.245649
    45  C   -0.134069
    46  H    0.137509
    47  H    0.135354
    48  C   -0.134227
    49  H    0.137591
    50  H    0.135388
    51  H    0.136108
    52  H    0.136137
    53  N    0.192542
    54  C    0.009042
    55  C    0.168346
    56  C   -0.215930
    57  C    0.027331
    58  C   -0.254635
    59  C    0.004965
    60  C   -0.104206
    61  H    0.150906
    62  C   -0.241957
    63  C   -0.136235
    64  H    0.130274
    65  C   -0.234124
    66  C   -0.134850
    67  H    0.139806
    68  H    0.136886
    69  C   -0.132441
    70  H    0.138658
    71  H    0.137106
    72  H    0.137622
    73  H    0.137600
    74  N    0.108915
    75  C    0.108361
    76  C    0.108500
    77  C   -0.246565
    78  C    0.001045
    79  C   -0.247730
    80  C    0.001137
    81  C   -0.120890
    82  H    0.145372
    83  C   -0.228870
    84  C   -0.119142
    85  H    0.145140
    86  C   -0.228577
    87  C   -0.138117
    88  H    0.141274
    89  H    0.138188
    90  C   -0.138603
    91  H    0.141238
    92  H    0.138218
    93  H    0.138459
    94  H    0.138452
 Sum of Mulliken charges =  -0.00000

 Dipole moment (field-independent basis, Debye):
    X=              4.6895    Y=             -0.0499    Z=              0.0093  Tot=              4.6897
 Quadrupole moment (field-independent basis, Debye-Ang):
   XX=           -346.8882   YY=           -358.4279   ZZ=           -326.8325
   XY=              0.0686   XZ=             -0.3485   YZ=            -32.3371

 Normal termination of Gaussian 09 at Thu Jun 30 16:24:37 2022.
