 Gaussian 09, Revision E.01,
 Gaussian 09:  ES64L-G09RevE.01 30-Nov-2015

 ----------------------------------------------------------------------
 #p hf/def2TZVP td=(NStates=50) int=ultrafine scrf=(SMD,solvent=Acetoni
 trile)
 ----------------------------------------------------------------------

 -----
 Title
 -----
 Symbolic Z-matrix:
 Charge =  0 Multiplicity = 1

                         Standard orientation:
 ---------------------------------------------------------------------
 Center     Atomic      Atomic             Coordinates (Angstroms)
 Number     Number       Type             X           Y           Z
 ---------------------------------------------------------------------
      1          6           0       -0.024105    1.200118    0.024507
      2          6           0        0.694466    0.002905    0.000974
      3          6           0       -0.006291   -1.204866   -0.024488
      4          6           0       -1.397623   -1.198516   -0.029807
      5          6           0       -2.117747   -0.018203   -0.001261
      6          6           0       -1.415047    1.172534    0.027582
      7          6           0       -2.113368   -2.449631   -0.067648
      8          6           0       -2.149496    2.412643    0.063921
      9          7           0       -2.677778   -3.423944   -0.099011
     10          7           0       -2.728309    3.378509    0.094174
     11          7           0        0.620026    2.454145    0.042994
     12          6           0        0.915354    3.199870    1.182635
     13          6           0        0.860411    3.254082   -1.073013
     14          6           0        0.734045    2.875633    2.516799
     15          6           0        1.424627    4.438300    0.796134
     16          6           0        0.614981    2.992610   -2.410852
     17          6           0        1.389727    4.472844   -0.653403
     18          6           0        1.105622    3.810936    3.458872
     19          1           0        0.316458    1.935020    2.814897
     20          6           0        1.800376    5.364154    1.759583
     21          6           0        0.942454    3.971453   -3.324485
     22          1           0        0.180856    2.067344   -2.732462
     23          6           0        1.720824    5.443242   -1.589208
     24          6           0        1.643015    5.043199    3.089706
     25          1           0        0.975289    3.583197    4.500488
     26          1           0        2.197227    6.319527    1.470914
     27          6           0        1.499183    5.185271   -2.923805
     28          1           0        0.761737    3.792973   -4.368183
     29          1           0        2.133116    6.384021   -1.275363
     30          1           0        1.924663    5.748095    3.849142
     31          1           0        1.745370    5.925343   -3.661807
     32          7           0        2.105539    0.013031    0.006083
     33          6           0        2.917548   -0.034156    1.135783
     34          6           0        2.929148    0.070640   -1.114836
     35          6           0        2.564666   -0.098075    2.473716
     36          6           0        4.254329   -0.006992    0.741362
     37          6           0        2.590265    0.128325   -2.456740
     38          6           0        4.261719    0.060705   -0.705620
     39          6           0        3.578544   -0.135462    3.405787
     40          1           0        1.540234   -0.116865    2.782539
     41          6           0        5.263395   -0.045225    1.694381
     42          6           0        3.613755    0.177791   -3.377541
     43          1           0        1.568858    0.133680   -2.775339
     44          6           0        5.280674    0.110399   -1.647503
     45          6           0        4.920140   -0.109901    3.025984
     46          1           0        3.326796   -0.185288    4.448941
     47          1           0        6.294934   -0.024928    1.395650
     48          6           0        4.951310    0.169361   -2.982844
     49          1           0        3.373138    0.223200   -4.423546
     50          1           0        6.309031    0.102852   -1.337405
     51          1           0        5.685863   -0.140500    3.778202
     52          1           0        5.724909    0.208572   -3.726529
     53          7           0        0.657585   -2.448010   -0.043693
     54          6           0        0.898853   -3.250922    1.069464
     55          6           0        0.981392   -3.179362   -1.184942
     56          6           0        0.635728   -3.000713    2.406022
     57          6           0        1.453568   -4.457749    0.648094
     58          6           0        0.812108   -2.847648   -2.518964
     59          6           0        1.507201   -4.411557   -0.800678
     60          6           0        0.968103   -3.980288    3.317111
     61          1           0        0.186518   -2.083002    2.728653
     62          6           0        1.789267   -5.428790    1.581582
     63          6           0        1.213264   -3.768635   -3.462940
     64          1           0        0.380109   -1.912797   -2.814636
     65          6           0        1.912696   -5.322700   -1.766099
     66          6           0        1.547861   -5.182931    2.915090
     67          1           0        0.773652   -3.811224    4.359918
     68          1           0        2.220662   -6.360736    1.267058
     69          6           0        1.768007   -4.993872   -3.095747
     70          1           0        1.093053   -3.535105   -4.504488
     71          1           0        2.322723   -6.273148   -1.479514
     72          1           0        1.797095   -5.923755    3.651297
     73          1           0        2.073166   -5.687367   -3.856610
     74          7           0       -3.521715   -0.027283   -0.003693
     75          6           0       -4.329923    0.002260   -1.135584
     76          6           0       -4.337298   -0.062092    1.122637
     77          6           0       -3.963149    0.042042   -2.470408
     78          6           0       -5.665265   -0.013944   -0.737053
     79          6           0       -3.979863   -0.097064    2.460149
     80          6           0       -5.670007   -0.055262    0.714681
     81          6           0       -4.975578    0.065890   -3.406414
     82          1           0       -2.933355    0.053647   -2.771559
     83          6           0       -6.668547    0.010675   -1.695763
     84          6           0       -4.998785   -0.125767    3.388942
     85          1           0       -2.951965   -0.101943    2.768164
     86          6           0       -6.679852   -0.084571    1.666241
     87          6           0       -6.317363    0.050668   -3.027675
     88          1           0       -4.722503    0.096884   -4.449784
     89          1           0       -7.702109   -0.000894   -1.403981
     90          6           0       -6.337898   -0.119799    3.000685
     91          1           0       -4.753051   -0.153156    4.434191
     92          1           0       -7.711341   -0.079603    1.367004
     93          1           0       -7.080657    0.070189   -3.782577
     94          1           0       -7.106426   -0.142516    3.750133
 ---------------------------------------------------------------------

 SCF Done:  E(RHF) =  -2466.91331682     A.U. after   19 cycles

 Excitation energies and oscillator strengths:

 Excited State   1:      Singlet-A      4.9081 eV  252.61 nm  f=0.0048  <S**2>=0.000
     201 -> 211        0.31740
     203 -> 210        0.28731
     204 -> 208        0.42267
     204 -> 211       -0.14914
     205 -> 212        0.12937
 This state for optimization and/or second-order correction.
 Total Energy, E(TD-HF/TD-KS) =  -2466.73294655
 Copying the excited state density for this state as the 1-particle RhoCI density.

 Excited State   2:      Singlet-A      4.9542 eV  250.26 nm  f=0.0002  <S**2>=0.000
     199 -> 212       -0.10876
     201 -> 210        0.33098
     203 -> 208        0.35319
     203 -> 211        0.26414
     204 -> 210        0.28477
     205 -> 215        0.10290

 Excited State   3:      Singlet-A      4.9695 eV  249.49 nm  f=0.0746  <S**2>=0.000
     189 -> 226        0.12340
     195 -> 220       -0.11950
     200 -> 214       -0.16550
     202 -> 209        0.59117
     204 -> 211        0.10004

 Excited State   4:      Singlet-A      5.0033 eV  247.81 nm  f=0.7627  <S**2>=0.000
     198 -> 212       -0.11341
     199 -> 215       -0.11349
     201 -> 208        0.35174
     202 -> 209       -0.15346
     203 -> 210        0.31868
     204 -> 211        0.33644
     205 -> 219       -0.12959

 Excited State   5:      Singlet-A      5.1043 eV  242.90 nm  f=0.0173  <S**2>=0.000
     197 -> 223       -0.11934
     198 -> 211       -0.25696
     199 -> 210       -0.24721
     200 -> 211       -0.17141
     201 -> 219        0.13225
     203 -> 215       -0.10786
     204 -> 212       -0.17807
     205 -> 208        0.42336
     205 -> 211       -0.13654

 Excited State   6:      Singlet-A      5.1639 eV  240.10 nm  f=0.1377  <S**2>=0.000
     198 -> 210       -0.27123
     199 -> 208       -0.33695
     199 -> 211       -0.24224
     200 -> 210       -0.10254
     201 -> 215       -0.14684
     203 -> 212       -0.15737
     203 -> 219        0.11731
     204 -> 215       -0.12401
     205 -> 210        0.31644

 Excited State   7:      Singlet-A      5.1708 eV  239.78 nm  f=0.1144  <S**2>=0.000
     189 -> 220        0.10312
     195 -> 226        0.16570
     198 -> 209       -0.28156
     200 -> 208       -0.11561
     200 -> 209        0.49534
     202 -> 214        0.27952
     205 -> 209       -0.11075

 Excited State   8:      Singlet-A      5.2044 eV  238.23 nm  f=0.0426  <S**2>=0.000
     198 -> 208        0.30807
     199 -> 210        0.32136
     200 -> 208        0.15986
     200 -> 209        0.12113
     201 -> 212        0.17592
     203 -> 215        0.16301
     204 -> 219       -0.15777
     205 -> 211       -0.32843

 Excited State   9:      Singlet-A      5.2249 eV  237.30 nm  f=0.0048  <S**2>=0.000
     187 -> 206       -0.13414
     198 -> 206       -0.30288
     200 -> 206       -0.21971
     205 -> 206        0.54060

 Excited State  10:      Singlet-A      5.3712 eV  230.83 nm  f=0.0118  <S**2>=0.000
     185 -> 206        0.12466
     191 -> 207       -0.20765
     192 -> 206        0.29566
     199 -> 206        0.53331
     201 -> 206        0.10939

 Excited State  11:      Singlet-A      5.4457 eV  227.67 nm  f=0.0153  <S**2>=0.000
     191 -> 207       -0.32751
     192 -> 206        0.44519
     199 -> 206       -0.35335

 Excited State  12:      Singlet-A      5.5722 eV  222.51 nm  f=0.0014  <S**2>=0.000
     184 -> 207        0.12680
     187 -> 207        0.11272
     198 -> 207       -0.23147
     200 -> 207        0.57178
     205 -> 207       -0.21636

 Excited State  13:      Singlet-A      5.5847 eV  222.01 nm  f=0.0573  <S**2>=0.000
     191 -> 206        0.55496
     192 -> 207        0.36658

 Excited State  14:      Singlet-A      5.7217 eV  216.69 nm  f=0.0126  <S**2>=0.000
     186 -> 206        0.11102
     194 -> 211       -0.12662
     197 -> 208        0.17762
     198 -> 206        0.24298
     200 -> 206        0.37128
     204 -> 216        0.10763
     205 -> 206        0.30294
     205 -> 212       -0.12760
     205 -> 223       -0.10343

 Excited State  15:      Singlet-A      5.7700 eV  214.88 nm  f=0.0010  <S**2>=0.000
     194 -> 211        0.14403
     195 -> 209        0.15287
     196 -> 210       -0.17190
     197 -> 208       -0.20320
     198 -> 219        0.11390
     199 -> 215       -0.14961
     200 -> 206        0.27308
     200 -> 214       -0.11976
     201 -> 222        0.12350
     202 -> 220        0.11112
     203 -> 218        0.12818
     204 -> 216       -0.13329
     205 -> 206        0.19346
     205 -> 212        0.19593

 Excited State  16:      Singlet-A      5.8052 eV  213.57 nm  f=0.0460  <S**2>=0.000
     189 -> 214       -0.12319
     195 -> 209       -0.32226
     198 -> 206        0.30724
     198 -> 214       -0.12858
     200 -> 214        0.21802
     200 -> 226       -0.14949
     202 -> 216       -0.11251
     202 -> 220       -0.25108
     205 -> 206        0.16771

 Excited State  17:      Singlet-A      5.8158 eV  213.18 nm  f=0.0000  <S**2>=0.000
     194 -> 210       -0.18411
     196 -> 208        0.22067
     196 -> 211        0.16469
     197 -> 210        0.20616
     198 -> 215        0.15053
     199 -> 212        0.18541
     199 -> 219       -0.12313
     199 -> 223        0.11343
     201 -> 218       -0.17892
     203 -> 216        0.16517
     203 -> 222       -0.16318
     204 -> 218       -0.14390
     205 -> 207        0.10579
     205 -> 215       -0.15843

 Excited State  18:      Singlet-A      5.8902 eV  210.49 nm  f=0.2558  <S**2>=0.000
     193 -> 219        0.10624
     194 -> 208        0.21712
     196 -> 210       -0.18189
     197 -> 211       -0.22632
     198 -> 212       -0.16088
     198 -> 223       -0.10043
     199 -> 215       -0.12726
     200 -> 206       -0.14433
     200 -> 212       -0.10188
     201 -> 216       -0.19574
     203 -> 218        0.17448
     204 -> 222        0.21566
     205 -> 219       -0.13418
     205 -> 238       -0.12735

 Excited State  19:      Singlet-A      5.9194 eV  209.45 nm  f=0.0104  <S**2>=0.000
     186 -> 207        0.13069
     198 -> 207        0.19242
     200 -> 207        0.28315
     205 -> 207        0.54757

 Excited State  20:      Singlet-A      5.9551 eV  208.20 nm  f=0.2203  <S**2>=0.000
     195 -> 209        0.13701
     198 -> 206        0.42425
     200 -> 206       -0.40733
     200 -> 214       -0.14814
     202 -> 209       -0.12412
     202 -> 220        0.15440

 Excited State  21:      Singlet-A      6.0222 eV  205.88 nm  f=0.0117  <S**2>=0.000
     201 -> 206        0.31420
     204 -> 206        0.56046

 Excited State  22:      Singlet-A      6.0643 eV  204.45 nm  f=0.0068  <S**2>=0.000
     203 -> 206        0.65173

 Excited State  23:      Singlet-A      6.1691 eV  200.98 nm  f=0.1280  <S**2>=0.000
     189 -> 209        0.20959
     191 -> 207        0.10677
     195 -> 214       -0.25506
     198 -> 220        0.18120
     200 -> 216       -0.16507
     200 -> 220       -0.26049
     202 -> 206        0.33670
     202 -> 226        0.22659

 Excited State  24:      Singlet-A      6.1758 eV  200.76 nm  f=0.0104  <S**2>=0.000
     188 -> 211       -0.12643
     193 -> 208        0.16044
     194 -> 219       -0.14416
     196 -> 215       -0.10247
     197 -> 212       -0.19592
     198 -> 222        0.17163
     199 -> 218        0.13989
     200 -> 222        0.10764
     201 -> 206        0.26108
     201 -> 238       -0.11926
     204 -> 223        0.16161
     205 -> 216        0.24898
     205 -> 220       -0.12703

 Excited State  25:      Singlet-A      6.2078 eV  199.72 nm  f=0.1315  <S**2>=0.000
     188 -> 210       -0.11268
     190 -> 208       -0.12668
     192 -> 207       -0.15113
     193 -> 210        0.11294
     194 -> 215        0.13692
     196 -> 212       -0.16258
     196 -> 219        0.12121
     197 -> 215       -0.14832
     198 -> 218        0.18364
     199 -> 216       -0.20428
     199 -> 222        0.19469
     203 -> 206        0.20266
     203 -> 223        0.12982
     205 -> 218       -0.21111

 Excited State  26:      Singlet-A      6.2639 eV  197.94 nm  f=0.0653  <S**2>=0.000
     188 -> 208        0.11928
     190 -> 210        0.14255
     193 -> 211       -0.10423
     194 -> 212       -0.12614
     196 -> 215        0.15277
     197 -> 219       -0.11475
     198 -> 216        0.14889
     199 -> 218       -0.20029
     201 -> 206        0.24957
     201 -> 223       -0.13478
     202 -> 206        0.18343
     204 -> 206       -0.23814
     204 -> 238        0.11451
     205 -> 222        0.16740

 Excited State  27:      Singlet-A      6.2816 eV  197.38 nm  f=0.0073  <S**2>=0.000
     198 -> 207        0.56190
     199 -> 206        0.11935
     200 -> 207        0.11788
     205 -> 207       -0.26507

 Excited State  28:      Singlet-A      6.3624 eV  194.87 nm  f=0.3166  <S**2>=0.000
     185 -> 207        0.10718
     198 -> 206        0.10813
     199 -> 207        0.59682
     199 -> 215        0.10138
     201 -> 207        0.10904
     205 -> 212       -0.12147

 Excited State  29:      Singlet-A      6.3690 eV  194.67 nm  f=0.0066  <S**2>=0.000
     200 -> 216       -0.10059
     201 -> 206        0.43713
     202 -> 206       -0.28295
     204 -> 206       -0.28162
     205 -> 222       -0.12427

 Excited State  30:      Singlet-A      6.3908 eV  194.00 nm  f=0.0030  <S**2>=0.000
     189 -> 209       -0.13459
     195 -> 214        0.16363
     198 -> 216       -0.11298
     200 -> 220        0.20719
     201 -> 206        0.17780
     202 -> 206        0.50514
     202 -> 214        0.10119
     204 -> 206       -0.10025

 Excited State  31:      Singlet-A      6.4527 eV  192.14 nm  f=0.0303  <S**2>=0.000
     195 -> 207       -0.11776
     202 -> 207        0.68316

 Excited State  32:      Singlet-A      6.5304 eV  189.86 nm  f=1.7719  <S**2>=0.000
     191 -> 206       -0.24205
     192 -> 207        0.34971
     199 -> 215       -0.11314
     201 -> 215        0.12427
     203 -> 212        0.16223
     204 -> 207        0.14248
     204 -> 215        0.12605
     205 -> 212        0.16517

 Excited State  33:      Singlet-A      6.5431 eV  189.49 nm  f=0.6883  <S**2>=0.000
     191 -> 206        0.14024
     192 -> 207       -0.21965
     194 -> 222       -0.10131
     197 -> 208        0.11545
     197 -> 216       -0.12356
     198 -> 219        0.13924
     199 -> 207        0.21407
     199 -> 215       -0.10980
     201 -> 215       -0.10964
     204 -> 208       -0.11606
     204 -> 216        0.11295
     205 -> 212        0.26305
     205 -> 223       -0.10807

 Excited State  34:      Singlet-A      6.6147 eV  187.44 nm  f=3.1066  <S**2>=0.000
     191 -> 207        0.34466
     192 -> 206        0.26266
     200 -> 209       -0.10815
     201 -> 212       -0.14700
     202 -> 214        0.29417
     204 -> 212        0.17269
     204 -> 219        0.15330

 Excited State  35:      Singlet-A      6.6563 eV  186.27 nm  f=0.0870  <S**2>=0.000
     194 -> 210       -0.10803
     194 -> 218       -0.11285
     196 -> 208        0.12638
     196 -> 216       -0.12415
     196 -> 222        0.12199
     197 -> 210        0.11822
     197 -> 218        0.12707
     198 -> 207        0.12495
     198 -> 215       -0.19345
     199 -> 212       -0.25132
     199 -> 219        0.17496
     199 -> 223        0.11136
     201 -> 210       -0.10482
     203 -> 208       -0.12770
     204 -> 210       -0.10089
     205 -> 215        0.24248

 Excited State  36:      Singlet-A      6.6755 eV  185.73 nm  f=0.0921  <S**2>=0.000
     192 -> 207       -0.16555
     204 -> 207        0.62805

 Excited State  37:      Singlet-A      6.6810 eV  185.58 nm  f=0.2346  <S**2>=0.000
     195 -> 209        0.23238
     195 -> 220        0.22009
     198 -> 214       -0.20723
     198 -> 226       -0.10508
     200 -> 214        0.35710
     200 -> 226        0.18828
     202 -> 209        0.20261
     202 -> 220        0.10401
     204 -> 207       -0.13739

 Excited State  38:      Singlet-A      6.6910 eV  185.30 nm  f=0.0977  <S**2>=0.000
     199 -> 210       -0.13312
     201 -> 219       -0.22762
     202 -> 214       -0.17133
     203 -> 207        0.23036
     203 -> 215        0.27228
     204 -> 212        0.33901
     205 -> 208        0.20722

 Excited State  39:      Singlet-A      6.7877 eV  182.66 nm  f=4.0297  <S**2>=0.000
     194 -> 208        0.16451
     194 -> 216       -0.10907
     195 -> 209       -0.10740
     196 -> 210       -0.15228
     196 -> 218       -0.12052
     197 -> 211       -0.16950
     197 -> 222       -0.12626
     198 -> 212        0.21304
     198 -> 223       -0.11686
     199 -> 207       -0.13148
     199 -> 215        0.22600
     200 -> 212        0.10879
     200 -> 214       -0.13753
     201 -> 208        0.13966
     203 -> 210        0.12300
     204 -> 211        0.11046
     205 -> 219        0.23393
     205 -> 238       -0.11792

 Excited State  40:      Singlet-A      6.8326 eV  181.46 nm  f=0.1386  <S**2>=0.000
     191 -> 206        0.13921
     192 -> 207       -0.19608
     199 -> 208       -0.12978
     201 -> 207        0.46772
     201 -> 215        0.17053
     203 -> 212        0.19904
     203 -> 219       -0.14074
     204 -> 215        0.15295
     205 -> 210        0.12598

 Excited State  41:      Singlet-A      6.8427 eV  181.19 nm  f=0.0005  <S**2>=0.000
     202 -> 214        0.14102
     203 -> 207        0.61125
     204 -> 212       -0.12725

 Excited State  42:      Singlet-A      6.8850 eV  180.08 nm  f=0.0019  <S**2>=0.000
     193 -> 212        0.12579
     194 -> 211        0.16312
     196 -> 210       -0.17567
     197 -> 208       -0.26818
     201 -> 222       -0.24244
     203 -> 218       -0.22541
     204 -> 216        0.30563
     204 -> 220       -0.15811
     205 -> 223        0.14243

 Excited State  43:      Singlet-A      6.9461 eV  178.49 nm  f=0.1823  <S**2>=0.000
     191 -> 206       -0.12771
     192 -> 207        0.13013
     199 -> 208        0.10406
     201 -> 207        0.47119
     201 -> 215       -0.18300
     203 -> 212       -0.20305
     203 -> 219        0.14098
     204 -> 207        0.11363
     204 -> 215       -0.16515
     205 -> 210       -0.10935

 Excited State  44:      Singlet-A      6.9762 eV  177.72 nm  f=0.0043  <S**2>=0.000
     189 -> 220        0.10393
     191 -> 207       -0.21340
     192 -> 206       -0.10984
     200 -> 209       -0.21736
     201 -> 212        0.14981
     202 -> 214        0.42557
     202 -> 226        0.12959
     203 -> 207       -0.14233
     203 -> 215        0.17342
     204 -> 219       -0.11874

 Excited State  45:      Singlet-A      6.9950 eV  177.25 nm  f=0.0007  <S**2>=0.000
     194 -> 210       -0.16466
     196 -> 208        0.21405
     196 -> 211        0.14580
     197 -> 210        0.20516
     199 -> 223        0.10672
     201 -> 218        0.24864
     203 -> 216       -0.24779
     203 -> 222        0.22724
     204 -> 218        0.22811

 Excited State  46:      Singlet-A      7.0399 eV  176.12 nm  f=0.0730  <S**2>=0.000
     189 -> 214        0.17295
     195 -> 209       -0.33554
     200 -> 226       -0.14437
     202 -> 216        0.20414
     202 -> 220        0.44412

 Excited State  47:      Singlet-A      7.0542 eV  175.76 nm  f=0.1077  <S**2>=0.000
     191 -> 207        0.23439
     192 -> 206        0.17075
     198 -> 208       -0.16150
     199 -> 210       -0.12853
     200 -> 208       -0.12338
     201 -> 212        0.27283
     202 -> 214       -0.11172
     203 -> 207       -0.11044
     203 -> 215        0.22047
     204 -> 219       -0.25279
     205 -> 211        0.12326

 Excited State  48:      Singlet-A      7.1098 eV  174.39 nm  f=0.0000  <S**2>=0.000
     160 -> 234       -0.14408
     169 -> 206        0.32627
     169 -> 270       -0.17522
     170 -> 206       -0.12416
     171 -> 207        0.14145
     171 -> 239        0.11847
     173 -> 207       -0.21916
     173 -> 235       -0.11879
     173 -> 239       -0.18688
     178 -> 245       -0.14690
     191 -> 245       -0.10193
     192 -> 234       -0.16584

 Excited State  49:      Singlet-A      7.1311 eV  173.86 nm  f=0.0043  <S**2>=0.000
     160 -> 245       -0.16319
     169 -> 207       -0.23193
     169 -> 235       -0.13148
     169 -> 239       -0.20729
     171 -> 206       -0.19913
     171 -> 270        0.10533
     173 -> 206        0.31318
     173 -> 270       -0.16418
     178 -> 234       -0.12211
     192 -> 245       -0.16373

 Excited State  50:      Singlet-A      7.2243 eV  171.62 nm  f=1.4614  <S**2>=0.000
     194 -> 208        0.18624
     196 -> 210       -0.17219
     197 -> 211       -0.19185
     198 -> 212       -0.10686
     199 -> 215       -0.11356
     201 -> 216        0.25480
     201 -> 220       -0.11221
     202 -> 220        0.12654
     203 -> 218       -0.24096
     204 -> 222       -0.26564
     205 -> 219       -0.11893

 The electronic state is 1-A.
 Alpha  occ. eigenvalues --  -15.61816 -15.61577 -15.61568 -15.61207 -15.58603
 Alpha  occ. eigenvalues --  -15.58598 -11.34017 -11.33755 -11.33750 -11.32355
 Alpha  occ. eigenvalues --  -11.31177 -11.31166 -11.29529 -11.29523 -11.28112
 Alpha  occ. eigenvalues --  -11.28103 -11.27929 -11.27925 -11.27925 -11.27917
 Alpha  occ. eigenvalues --  -11.27611 -11.27608 -11.23612 -11.23545 -11.23452
 Alpha  occ. eigenvalues --  -11.23451 -11.23432 -11.23412 -11.23387 -11.23387
 Alpha  occ. eigenvalues --  -11.23305 -11.23303 -11.23284 -11.23283 -11.23259
 Alpha  occ. eigenvalues --  -11.23257 -11.23218 -11.23176 -11.23144 -11.23142
 Alpha  occ. eigenvalues --  -11.23139 -11.23137 -11.23130 -11.23128 -11.23089
 Alpha  occ. eigenvalues --  -11.23042 -11.22966 -11.22960 -11.22945 -11.22944
 Alpha  occ. eigenvalues --  -11.22933 -11.22930 -11.22697 -11.22695 -11.22266
 Alpha  occ. eigenvalues --  -11.22265 -11.22184 -11.22180 -11.22176 -11.22176
 Alpha  occ. eigenvalues --  -11.22038 -11.22038  -1.35100  -1.33839  -1.33259
 Alpha  occ. eigenvalues --   -1.31684  -1.26077  -1.25903  -1.22264  -1.17332
 Alpha  occ. eigenvalues --   -1.16920  -1.15526  -1.15419  -1.15386  -1.15325
 Alpha  occ. eigenvalues --   -1.15154  -1.14142  -1.10157  -1.09440  -1.06617
 Alpha  occ. eigenvalues --   -1.06242  -1.05766  -1.04704  -1.03036  -1.03009
 Alpha  occ. eigenvalues --   -1.02883  -1.02576  -1.01102  -1.00673  -1.00084
 Alpha  occ. eigenvalues --   -0.98930  -0.98769  -0.98755  -0.98523  -0.97971
 Alpha  occ. eigenvalues --   -0.92597  -0.91884  -0.88570  -0.87841  -0.86665
 Alpha  occ. eigenvalues --   -0.86659  -0.84055  -0.83330  -0.83321  -0.83233
 Alpha  occ. eigenvalues --   -0.83049  -0.82696  -0.80865  -0.80372  -0.80133
 Alpha  occ. eigenvalues --   -0.79936  -0.79791  -0.79307  -0.77591  -0.76530
 Alpha  occ. eigenvalues --   -0.74695  -0.72719  -0.72712  -0.71516  -0.71180
 Alpha  occ. eigenvalues --   -0.70961  -0.70582  -0.70541  -0.69960  -0.69659
 Alpha  occ. eigenvalues --   -0.69162  -0.67760  -0.67655  -0.64568  -0.64121
 Alpha  occ. eigenvalues --   -0.64010  -0.63908  -0.63685  -0.63615  -0.63444
 Alpha  occ. eigenvalues --   -0.62975  -0.62209  -0.61658  -0.61406  -0.61172
 Alpha  occ. eigenvalues --   -0.61019  -0.60861  -0.60808  -0.60206  -0.60167
 Alpha  occ. eigenvalues --   -0.60154  -0.59996  -0.59984  -0.59612  -0.59544
 Alpha  occ. eigenvalues --   -0.59460  -0.59137  -0.58879  -0.58583  -0.58540
 Alpha  occ. eigenvalues --   -0.58467  -0.57953  -0.57661  -0.57608  -0.54137
 Alpha  occ. eigenvalues --   -0.52636  -0.52538  -0.52500  -0.52454  -0.52392
 Alpha  occ. eigenvalues --   -0.52301  -0.52268  -0.52087  -0.50836  -0.50779
 Alpha  occ. eigenvalues --   -0.50304  -0.50271  -0.50244  -0.50013  -0.49604
 Alpha  occ. eigenvalues --   -0.49588  -0.49338  -0.49143  -0.49025  -0.48927
 Alpha  occ. eigenvalues --   -0.48881  -0.48770  -0.48331  -0.47582  -0.47308
 Alpha  occ. eigenvalues --   -0.46898  -0.46535  -0.39452  -0.38958  -0.38839
 Alpha  occ. eigenvalues --   -0.38777  -0.38551  -0.38076  -0.35896  -0.35172
 Alpha  occ. eigenvalues --   -0.35041  -0.33928  -0.30305  -0.29887  -0.29752
 Alpha  occ. eigenvalues --   -0.29728  -0.29572  -0.29424  -0.28919  -0.28754
 Alpha virt. eigenvalues --    0.04051   0.06055   0.07724   0.08367   0.08521
 Alpha virt. eigenvalues --    0.09734   0.12349   0.12405   0.13045   0.13104
 Alpha virt. eigenvalues --    0.13854   0.13885   0.14215   0.14384   0.14495

 Mulliken charges:
               1
     1  C   -0.021395
     2  C    0.045656
     3  C   -0.022653
     4  C    0.475239
     5  C   -0.177180
     6  C    0.474152
     7  C   -0.231568
     8  C   -0.231348
     9  N   -0.177402
    10  N   -0.177478
    11  N    0.139357
    12  C    0.152291
    13  C    0.142375
    14  C   -0.342087
    15  C   -0.003864
    16  C   -0.346079
    17  C    0.005967
    18  C   -0.122209
    19  H    0.159388
    20  C   -0.231869
    21  C   -0.124831
    22  H    0.163589
    23  C   -0.234734
    24  C   -0.171661
    25  H    0.162507
    26  H    0.168521
    27  C   -0.168459
    28  H    0.162503
    29  H    0.168514
    30  H    0.160346
    31  H    0.160512
    32  N    0.262790
    33  C    0.132009
    34  C    0.133849
    35  C   -0.363656
    36  C   -0.001089
    37  C   -0.360878
    38  C   -0.001785
    39  C   -0.119557
    40  H    0.154366
    41  C   -0.227570
    42  C   -0.121747
    43  H    0.153739
    44  C   -0.227938
    45  C   -0.181389
    46  H    0.161198
    47  H    0.167610
    48  C   -0.180831
    49  H    0.161170
    50  H    0.167588
    51  H    0.158879
    52  H    0.158850
    53  N    0.140846
    54  C    0.142921
    55  C    0.153036
    56  C   -0.347615
    57  C    0.005577
    58  C   -0.340969
    59  C   -0.004536
    60  C   -0.122961
    61  H    0.163188
    62  C   -0.233848
    63  C   -0.123316
    64  H    0.159401
    65  C   -0.232104
    66  C   -0.169705
    67  H    0.162494
    68  H    0.168536
    69  C   -0.171173
    70  H    0.162461
    71  H    0.168480
    72  H    0.160460
    73  H    0.160327
    74  N    0.099493
    75  C    0.173728
    76  C    0.175329
    77  C   -0.354629
    78  C   -0.010057
    79  C   -0.354155
    80  C   -0.010605
    81  C   -0.109624
    82  H    0.167748
    83  C   -0.224486
    84  C   -0.110340
    85  H    0.167807
    86  C   -0.224479
    87  C   -0.178614
    88  H    0.163444
    89  H    0.169483
    90  C   -0.178258
    91  H    0.163447
    92  H    0.169510
    93  H    0.161018
    94  H    0.161032
 Sum of Mulliken charges =  -0.00000

 Dipole moment (field-independent basis, Debye):
    X=              3.7765    Y=              0.0339    Z=             -0.0020  Tot=              3.7766
 Quadrupole moment (field-independent basis, Debye-Ang):
   XX=           -359.0110   YY=           -386.4632   ZZ=           -306.2378
   XY=              0.0073   XZ=             -0.2674   YZ=             -3.0082

 Normal termination of Gaussian 09 at Sat Jul  2 14:41:48 2022.
