 Gaussian 09, Revision E.01,
 Gaussian 09:  ES64L-G09RevE.01 30-Nov-2015

 ----------------------------------------------------------------------
 #p m06l/def2TZVP td=(NStates=50) int=ultrafine scrf=(SMD,solvent=Aceto
 nitrile)
 ----------------------------------------------------------------------

 -----
 Title
 -----
 Symbolic Z-matrix:
 Charge =  0 Multiplicity = 1

                         Standard orientation:
 ---------------------------------------------------------------------
 Center     Atomic      Atomic             Coordinates (Angstroms)
 Number     Number       Type             X           Y           Z
 ---------------------------------------------------------------------
      1          6           0        0.137083   -1.179213    0.319302
      2          6           0       -0.555569   -0.001826   -0.008794
      3          6           0        0.175420    1.149009   -0.354530
      4          6           0        1.580930    1.111562   -0.375929
      5          6           0        2.275613   -0.046958   -0.007715
      6          6           0        1.543850   -1.186856    0.344073
      7          6           0        2.297115    2.217986   -0.897582
      8          6           0        2.219580   -2.322864    0.855571
      9          7           0        2.881333    3.111419   -1.342910
     10          7           0        2.771509   -3.241468    1.290731
     11          7           0       -0.543238   -2.349952    0.668156
     12          6           0       -1.506144   -2.488400    1.671448
     13          6           0       -0.465239   -3.559196   -0.035914
     14          6           0       -1.868522   -1.592535    2.664795
     15          6           0       -2.061336   -3.779856    1.590785
     16          6           0        0.311744   -3.881500   -1.138253
     17          6           0       -1.399829   -4.458942    0.509240
     18          6           0       -2.857134   -1.986766    3.552384
     19          1           0       -1.394448   -0.624389    2.754184
     20          6           0       -3.047337   -4.155204    2.498889
     21          6           0        0.157664   -5.148087   -1.680098
     22          1           0        1.003422   -3.171041   -1.574021
     23          6           0       -1.537104   -5.724015   -0.055342
     24          6           0       -3.448965   -3.249083    3.466040
     25          1           0       -3.166999   -1.302386    4.332385
     26          1           0       -3.485545   -5.144370    2.450650
     27          6           0       -0.752090   -6.062270   -1.144235
     28          1           0        0.754340   -5.428933   -2.538440
     29          1           0       -2.254800   -6.426638    0.349808
     30          1           0       -4.217901   -3.525728    4.175616
     31          1           0       -0.846620   -7.043053   -1.591828
     32          7           0       -1.957045    0.034524    0.022646
     33          6           0       -2.723290    0.887142    0.820775
     34          6           0       -2.825974   -0.769174   -0.718542
     35          6           0       -2.303904    1.803494    1.772775
     36          6           0       -4.087098    0.633746    0.579768
     37          6           0       -2.533493   -1.719645   -1.685180
     38          6           0       -4.152398   -0.425874   -0.389802
     39          6           0       -3.279366    2.517164    2.450736
     40          1           0       -1.255016    1.945799    1.997504
     41          6           0       -5.049069    1.359541    1.278002
     42          6           0       -3.597844   -2.370669   -2.288401
     43          1           0       -1.514287   -1.938310   -1.975471
     44          6           0       -5.204607   -1.090270   -1.014446
     45          6           0       -4.637822    2.307027    2.200268
     46          1           0       -2.978017    3.244684    3.194185
     47          1           0       -6.102414    1.176730    1.104767
     48          6           0       -4.919825   -2.068311   -1.952185
     49          1           0       -3.395443   -3.123621   -3.040036
     50          1           0       -6.229437   -0.837978   -0.771433
     51          1           0       -5.374743    2.881690    2.746148
     52          1           0       -5.727769   -2.596627   -2.441424
     53          7           0       -0.471067    2.331344   -0.726157
     54          6           0       -0.352926    3.562440   -0.066413
     55          6           0       -1.437566    2.462894   -1.727464
     56          6           0        0.445247    3.904276    1.014629
     57          6           0       -1.268811    4.467345   -0.634419
     58          6           0       -1.828630    1.544848   -2.688766
     59          6           0       -1.956736    3.770634   -1.687931
     60          6           0        0.329821    5.192501    1.512973
     61          1           0        1.124811    3.192526    1.466697
     62          6           0       -1.367394    5.754680   -0.113689
     63          6           0       -2.810139    1.935855   -3.585595
     64          1           0       -1.380909    0.561797   -2.748243
     65          6           0       -2.936672    4.142522   -2.604249
     66          6           0       -0.562516    6.110438    0.954791
     67          1           0        0.944181    5.488101    2.353721
     68          1           0       -2.070403    6.461282   -0.537183
     69          6           0       -3.367365    3.215866   -3.538810
     70          1           0       -3.142116    1.234543   -4.341070
     71          1           0       -3.347923    5.144204   -2.587114
     72          1           0       -0.626678    7.108575    1.368086
     73          1           0       -4.132043    3.489582   -4.254121
     74          7           0        3.670411   -0.058886    0.012338
     75          6           0        4.499451   -0.927788   -0.706143
     76          6           0        4.478841    0.813498    0.750115
     77          6           0        4.156141   -1.929909   -1.600958
     78          6           0        5.840359   -0.603714   -0.424713
     79          6           0        4.107847    1.813576    1.635813
     80          6           0        5.827267    0.497495    0.500116
     81          6           0        5.189731   -2.630917   -2.201690
     82          1           0        3.123145   -2.158722   -1.829827
     83          6           0        6.859680   -1.321615   -1.044022
     84          6           0        5.122212    2.523350    2.258430
     85          1           0        3.068086    2.035151    1.840638
     86          6           0        6.827280    1.223780    1.141263
     87          6           0        6.526405   -2.335376   -1.925355
     88          1           0        4.951417   -3.421501   -2.901571
     89          1           0        7.896096   -1.082900   -0.839810
     90          6           0        6.466887    2.237204    2.012286
     91          1           0        4.862416    3.313209    2.951459
     92          1           0        7.869796    0.992610    0.960721
     93          1           0        7.308210   -2.903277   -2.412756
     94          1           0        7.233550    2.811895    2.515526
 ---------------------------------------------------------------------

 SCF Done:  E(RM06L) =  -2482.41726494     A.U. after   17 cycles

 Excitation energies and oscillator strengths:

 Excited State   1:      Singlet-A      2.3078 eV  537.24 nm  f=0.0600  <S**2>=0.000
     205 -> 206        0.70047
 This state for optimization and/or second-order correction.
 Total Energy, E(TD-HF/TD-KS) =  -2482.33245419
 Copying the excited state density for this state as the 1-particle RhoCI density.

 Excited State   2:      Singlet-A      2.5077 eV  494.41 nm  f=0.0237  <S**2>=0.000
     201 -> 206       -0.24569
     204 -> 206        0.65881

 Excited State   3:      Singlet-A      2.5268 eV  490.67 nm  f=0.0478  <S**2>=0.000
     202 -> 206       -0.43766
     203 -> 206        0.55112

 Excited State   4:      Singlet-A      2.5399 eV  488.14 nm  f=0.0402  <S**2>=0.000
     202 -> 206        0.55354
     203 -> 206        0.43748

 Excited State   5:      Singlet-A      2.6512 eV  467.66 nm  f=0.0393  <S**2>=0.000
     200 -> 206       -0.22476
     201 -> 206        0.62543
     204 -> 206        0.21461

 Excited State   6:      Singlet-A      2.6816 eV  462.36 nm  f=0.0093  <S**2>=0.000
     200 -> 206        0.66854
     201 -> 206        0.19739

 Excited State   7:      Singlet-A      2.7222 eV  455.46 nm  f=0.0002  <S**2>=0.000
     199 -> 206        0.70660

 Excited State   8:      Singlet-A      2.7328 eV  453.69 nm  f=0.1034  <S**2>=0.000
     205 -> 207        0.69864

 Excited State   9:      Singlet-A      2.7901 eV  444.36 nm  f=0.0049  <S**2>=0.000
     198 -> 206        0.70268

 Excited State  10:      Singlet-A      2.9011 eV  427.37 nm  f=0.0501  <S**2>=0.000
     201 -> 207       -0.11375
     204 -> 207        0.69427

 Excited State  11:      Singlet-A      2.9433 eV  421.25 nm  f=0.1211  <S**2>=0.000
     202 -> 207        0.15481
     203 -> 207        0.67971

 Excited State  12:      Singlet-A      3.0129 eV  411.51 nm  f=0.0404  <S**2>=0.000
     199 -> 207        0.12725
     202 -> 207        0.67307
     203 -> 207       -0.14000

 Excited State  13:      Singlet-A      3.0375 eV  408.18 nm  f=0.0482  <S**2>=0.000
     201 -> 207        0.69458
     204 -> 207        0.10716

 Excited State  14:      Singlet-A      3.1020 eV  399.70 nm  f=0.0021  <S**2>=0.000
     200 -> 207        0.70628

 Excited State  15:      Singlet-A      3.1503 eV  393.56 nm  f=0.0071  <S**2>=0.000
     199 -> 207        0.69188
     202 -> 207       -0.11156

 Excited State  16:      Singlet-A      3.2039 eV  386.98 nm  f=0.0064  <S**2>=0.000
     198 -> 207        0.70555

 Excited State  17:      Singlet-A      3.4921 eV  355.04 nm  f=0.0020  <S**2>=0.000
     197 -> 206        0.70588

 Excited State  18:      Singlet-A      3.5457 eV  349.67 nm  f=0.0012  <S**2>=0.000
     205 -> 208        0.67184
     205 -> 210       -0.11033
     205 -> 211       -0.10070

 Excited State  19:      Singlet-A      3.5565 eV  348.61 nm  f=0.0233  <S**2>=0.000
     205 -> 209        0.67754
     205 -> 210       -0.12690

 Excited State  20:      Singlet-A      3.5743 eV  346.88 nm  f=0.0001  <S**2>=0.000
     205 -> 210        0.61238
     205 -> 211       -0.29538

 Excited State  21:      Singlet-A      3.5823 eV  346.11 nm  f=0.0044  <S**2>=0.000
     196 -> 206        0.70259

 Excited State  22:      Singlet-A      3.6060 eV  343.83 nm  f=0.0039  <S**2>=0.000
     195 -> 206        0.70590

 Excited State  23:      Singlet-A      3.6263 eV  341.91 nm  f=0.0050  <S**2>=0.000
     202 -> 211       -0.10240
     203 -> 211        0.14417
     205 -> 208        0.13373
     205 -> 210        0.25852
     205 -> 211        0.59096

 Excited State  24:      Singlet-A      3.6848 eV  336.47 nm  f=0.0067  <S**2>=0.000
     194 -> 206        0.70113

 Excited State  25:      Singlet-A      3.7415 eV  331.38 nm  f=0.0004  <S**2>=0.000
     204 -> 209        0.66465
     204 -> 210        0.13590
     204 -> 211       -0.16354

 Excited State  26:      Singlet-A      3.7646 eV  329.35 nm  f=0.0068  <S**2>=0.000
     202 -> 210       -0.11999
     203 -> 209        0.35146
     203 -> 210       -0.18715
     204 -> 208        0.53200

 Excited State  27:      Singlet-A      3.7726 eV  328.64 nm  f=0.0033  <S**2>=0.000
     202 -> 208       -0.19196
     203 -> 208       -0.43439
     204 -> 210        0.47338
     204 -> 211       -0.14174

 Excited State  28:      Singlet-A      3.7803 eV  327.97 nm  f=0.0000  <S**2>=0.000
     202 -> 209       -0.11529
     203 -> 209        0.55572
     203 -> 210        0.28142
     203 -> 211       -0.20375
     204 -> 208       -0.20723

 Excited State  29:      Singlet-A      3.8011 eV  326.18 nm  f=0.0080  <S**2>=0.000
     201 -> 210        0.13334
     201 -> 211        0.14237
     202 -> 208        0.34048
     203 -> 208       -0.10981
     204 -> 210        0.17394
     204 -> 211        0.50720

 Excited State  30:      Singlet-A      3.8076 eV  325.62 nm  f=0.0005  <S**2>=0.000
     201 -> 211       -0.13547
     202 -> 208        0.51120
     203 -> 208       -0.17901
     203 -> 211        0.23721
     204 -> 210       -0.10357
     204 -> 211       -0.28948

 Excited State  31:      Singlet-A      3.8157 eV  324.93 nm  f=0.0017  <S**2>=0.000
     202 -> 210        0.25561
     202 -> 211        0.35904
     203 -> 208        0.23428
     203 -> 210        0.18728
     203 -> 211        0.39931
     204 -> 210        0.15416

 Excited State  32:      Singlet-A      3.8268 eV  323.99 nm  f=0.0004  <S**2>=0.000
     201 -> 208        0.20281
     202 -> 209       -0.27448
     202 -> 210        0.46787
     202 -> 211       -0.19506
     203 -> 210       -0.30974
     203 -> 211        0.11509

 Excited State  33:      Singlet-A      3.8653 eV  320.76 nm  f=0.0107  <S**2>=0.000
     199 -> 208        0.13452
     199 -> 210        0.11075
     201 -> 208        0.24185
     201 -> 209       -0.22265
     201 -> 210        0.10259
     202 -> 208       -0.10853
     202 -> 209        0.18158
     202 -> 210       -0.10671
     202 -> 211        0.24151
     203 -> 208       -0.20213
     203 -> 209        0.11686
     203 -> 210       -0.18223
     203 -> 211        0.11952
     204 -> 208       -0.17585
     204 -> 209        0.11707
     204 -> 210       -0.15853
     204 -> 211        0.15354

 Excited State  34:      Singlet-A      3.8755 eV  319.92 nm  f=0.0119  <S**2>=0.000
     199 -> 208       -0.13111
     199 -> 210        0.13821
     201 -> 208        0.27209
     201 -> 209        0.25010
     201 -> 210       -0.18332
     202 -> 208        0.16226
     202 -> 210       -0.19223
     203 -> 208        0.18644
     203 -> 210       -0.23418
     204 -> 208       -0.17299
     204 -> 210        0.24634

 Excited State  35:      Singlet-A      3.8901 eV  318.71 nm  f=0.0034  <S**2>=0.000
     201 -> 209        0.55027
     201 -> 210        0.29123
     201 -> 211       -0.24403
     203 -> 208       -0.11880
     204 -> 210       -0.11603

 Excited State  36:      Singlet-A      3.8999 eV  317.92 nm  f=0.0082  <S**2>=0.000
     199 -> 211        0.21261
     202 -> 208        0.12351
     202 -> 210        0.25672
     202 -> 211        0.36741
     203 -> 210       -0.11649
     203 -> 211       -0.36120
     205 -> 211        0.13127

 Excited State  37:      Singlet-A      3.9069 eV  317.35 nm  f=0.0004  <S**2>=0.000
     197 -> 207        0.69690

 Excited State  38:      Singlet-A      3.9481 eV  314.03 nm  f=0.0006  <S**2>=0.000
     200 -> 208        0.64328
     201 -> 208       -0.19457

 Excited State  39:      Singlet-A      3.9623 eV  312.91 nm  f=0.0096  <S**2>=0.000
     198 -> 208       -0.13312
     198 -> 210       -0.13736
     198 -> 211       -0.24394
     199 -> 208        0.10063
     200 -> 208        0.14973
     200 -> 210       -0.16333
     201 -> 208        0.16397
     201 -> 210        0.34993
     201 -> 211        0.36885
     204 -> 211       -0.13886

 Excited State  40:      Singlet-A      3.9642 eV  312.76 nm  f=0.0249  <S**2>=0.000
     199 -> 209        0.38817
     199 -> 210        0.10951
     199 -> 211       -0.12931
     200 -> 208       -0.13910
     202 -> 209        0.42569
     202 -> 210        0.16567
     202 -> 211       -0.22986

 Excited State  41:      Singlet-A      3.9725 eV  312.10 nm  f=0.0032  <S**2>=0.000
     200 -> 209       -0.30487
     200 -> 210        0.48022
     200 -> 211       -0.26400
     201 -> 210       -0.10560
     201 -> 211        0.20753

 Excited State  42:      Singlet-A      3.9839 eV  311.22 nm  f=0.0007  <S**2>=0.000
     196 -> 207       -0.18509
     200 -> 208        0.10558
     200 -> 209        0.10659
     200 -> 210        0.31625
     200 -> 211        0.52567
     201 -> 208        0.16251
     203 -> 210        0.10016

 Excited State  43:      Singlet-A      3.9888 eV  310.83 nm  f=0.0009  <S**2>=0.000
     196 -> 207        0.64433
     200 -> 210        0.16045
     200 -> 211        0.17669

 Excited State  44:      Singlet-A      3.9991 eV  310.03 nm  f=0.0105  <S**2>=0.000
     196 -> 207        0.20742
     199 -> 208       -0.17937
     199 -> 209       -0.16206
     199 -> 210        0.15417
     199 -> 211       -0.12806
     200 -> 208        0.13937
     200 -> 210       -0.18344
     201 -> 208        0.29220
     201 -> 210       -0.18639
     202 -> 210        0.10940
     203 -> 210        0.23614
     204 -> 208        0.16643
     204 -> 210       -0.11083

 Excited State  45:      Singlet-A      4.0039 eV  309.66 nm  f=0.0231  <S**2>=0.000
     198 -> 211       -0.12182
     199 -> 208       -0.26677
     199 -> 209        0.11832
     199 -> 211        0.11942
     200 -> 209        0.13885
     200 -> 210       -0.15454
     200 -> 211        0.18370
     201 -> 209        0.16009
     201 -> 210       -0.19808
     201 -> 211        0.29119
     203 -> 208       -0.20352
     203 -> 211        0.10833
     204 -> 210       -0.16874

 Excited State  46:      Singlet-A      4.0267 eV  307.90 nm  f=0.0005  <S**2>=0.000
     195 -> 207        0.69912

 Excited State  47:      Singlet-A      4.0334 eV  307.39 nm  f=0.0173  <S**2>=0.000
     199 -> 209        0.47398
     199 -> 210        0.17189
     199 -> 211       -0.19741
     200 -> 213       -0.11023
     202 -> 209       -0.32748
     202 -> 210       -0.12560
     202 -> 211        0.14902

 Excited State  48:      Singlet-A      4.0470 eV  306.36 nm  f=0.0010  <S**2>=0.000
     198 -> 208        0.46176
     198 -> 209       -0.15725
     198 -> 211       -0.13989
     199 -> 208       -0.12474
     199 -> 210       -0.42580
     201 -> 208        0.10106

 Excited State  49:      Singlet-A      4.0551 eV  305.75 nm  f=0.0094  <S**2>=0.000
     198 -> 208        0.15292
     198 -> 209        0.41654
     198 -> 210       -0.32030
     199 -> 208        0.30721
     201 -> 210       -0.18264
     203 -> 208       -0.10395

 Excited State  50:      Singlet-A      4.0732 eV  304.39 nm  f=0.0053  <S**2>=0.000
     198 -> 209        0.48856
     198 -> 210        0.31573
     198 -> 211       -0.26108
     199 -> 208       -0.16821
     199 -> 211       -0.18684

 The electronic state is 1-A.
 Alpha  occ. eigenvalues --  -14.24311 -14.24204 -14.24173 -14.23809 -14.18597
 Alpha  occ. eigenvalues --  -14.18588 -10.14746 -10.14607 -10.14605 -10.13473
 Alpha  occ. eigenvalues --  -10.11964 -10.11948 -10.10618 -10.10612 -10.09613
 Alpha  occ. eigenvalues --  -10.09610 -10.09600 -10.09589 -10.09505 -10.09490
 Alpha  occ. eigenvalues --  -10.09366 -10.09323 -10.05861 -10.05854 -10.05853
 Alpha  occ. eigenvalues --  -10.05829 -10.05823 -10.05822 -10.05720 -10.05690
 Alpha  occ. eigenvalues --  -10.05519 -10.05516 -10.05507 -10.05500 -10.05410
 Alpha  occ. eigenvalues --  -10.05390 -10.05314 -10.05299 -10.05284 -10.05278
 Alpha  occ. eigenvalues --  -10.05259 -10.05250 -10.05246 -10.05245 -10.05207
 Alpha  occ. eigenvalues --  -10.05203 -10.05201 -10.05191 -10.05160 -10.05149
 Alpha  occ. eigenvalues --  -10.05131 -10.05125 -10.05107 -10.05093 -10.04653
 Alpha  occ. eigenvalues --  -10.04642 -10.04636 -10.04635 -10.04618 -10.04608
 Alpha  occ. eigenvalues --  -10.04568 -10.04553  -0.99244  -0.98014  -0.97748
 Alpha  occ. eigenvalues --   -0.96306  -0.89289  -0.88604  -0.87038  -0.83964
 Alpha  occ. eigenvalues --   -0.83683  -0.82394  -0.81999  -0.81976  -0.81944
 Alpha  occ. eigenvalues --   -0.81809  -0.81264  -0.78499  -0.77756  -0.75629
 Alpha  occ. eigenvalues --   -0.75191  -0.74994  -0.73908  -0.72501  -0.72484
 Alpha  occ. eigenvalues --   -0.72445  -0.72302  -0.71261  -0.71065  -0.70452
 Alpha  occ. eigenvalues --   -0.69075  -0.69054  -0.69046  -0.68914  -0.68849
 Alpha  occ. eigenvalues --   -0.65363  -0.64949  -0.62281  -0.61710  -0.60422
 Alpha  occ. eigenvalues --   -0.60369  -0.58879  -0.58264  -0.58218  -0.57833
 Alpha  occ. eigenvalues --   -0.57724  -0.57666  -0.56012  -0.55652  -0.54926
 Alpha  occ. eigenvalues --   -0.54740  -0.54710  -0.54555  -0.53476  -0.52196
 Alpha  occ. eigenvalues --   -0.51749  -0.50346  -0.50083  -0.49042  -0.48812
 Alpha  occ. eigenvalues --   -0.48750  -0.48250  -0.48023  -0.47824  -0.47445
 Alpha  occ. eigenvalues --   -0.47108  -0.45757  -0.45721  -0.43338  -0.43141
 Alpha  occ. eigenvalues --   -0.42992  -0.42916  -0.42907  -0.42426  -0.42315
 Alpha  occ. eigenvalues --   -0.42283  -0.42258  -0.41401  -0.41322  -0.40784
 Alpha  occ. eigenvalues --   -0.40616  -0.40400  -0.40386  -0.40093  -0.39954
 Alpha  occ. eigenvalues --   -0.39588  -0.39564  -0.39531  -0.39470  -0.39403
 Alpha  occ. eigenvalues --   -0.39340  -0.39119  -0.38636  -0.38510  -0.38444
 Alpha  occ. eigenvalues --   -0.38403  -0.38310  -0.36578  -0.35356  -0.35058
 Alpha  occ. eigenvalues --   -0.34344  -0.34254  -0.33934  -0.33808  -0.33737
 Alpha  occ. eigenvalues --   -0.33512  -0.33490  -0.33407  -0.33393  -0.33306
 Alpha  occ. eigenvalues --   -0.33237  -0.33190  -0.32972  -0.32788  -0.32726
 Alpha  occ. eigenvalues --   -0.31976  -0.31902  -0.31423  -0.31117  -0.31088
 Alpha  occ. eigenvalues --   -0.30891  -0.30883  -0.30786  -0.30784  -0.30643
 Alpha  occ. eigenvalues --   -0.30608  -0.30549  -0.27324  -0.27179  -0.26728
 Alpha  occ. eigenvalues --   -0.26700  -0.26272  -0.26042  -0.24419  -0.24148
 Alpha  occ. eigenvalues --   -0.24035  -0.23723  -0.21132  -0.20877  -0.20739
 Alpha  occ. eigenvalues --   -0.20459  -0.20181  -0.20060  -0.19927  -0.19165
 Alpha virt. eigenvalues --   -0.10903  -0.09379  -0.06216  -0.06193  -0.06112
 Alpha virt. eigenvalues --   -0.06086  -0.03544  -0.03093  -0.02946  -0.02516
 Alpha virt. eigenvalues --   -0.02411  -0.02095  -0.01516  -0.01199  -0.01018

 Mulliken charges:
               1
     1  C    0.020928
     2  C   -0.105666
     3  C    0.008908
     4  C    0.233907
     5  C    0.265201
     6  C    0.234626
     7  C    0.065465
     8  C    0.070345
     9  N   -0.468755
    10  N   -0.469600
    11  N    0.082490
    12  C    0.234795
    13  C    0.021321
    14  C   -0.311171
    15  C   -0.093524
    16  C   -0.363032
    17  C   -0.155764
    18  C   -0.106649
    19  H    0.154792
    20  C    0.049968
    21  C   -0.063593
    22  H    0.207915
    23  C   -0.002352
    24  C   -0.091522
    25  H    0.107857
    26  H    0.092560
    27  C   -0.091781
    28  H    0.095463
    29  H    0.089211
    30  H    0.089079
    31  H    0.088985
    32  N    0.584871
    33  C    0.018451
    34  C    0.034758
    35  C   -0.521152
    36  C   -0.091129
    37  C   -0.538915
    38  C   -0.090683
    39  C   -0.036737
    40  H    0.145850
    41  C    0.069930
    42  C   -0.025047
    43  H    0.156082
    44  C    0.085674
    45  C   -0.093753
    46  H    0.107369
    47  H    0.088167
    48  C   -0.102718
    49  H    0.107236
    50  H    0.088284
    51  H    0.088212
    52  H    0.087610
    53  N    0.086940
    54  C   -0.018048
    55  C    0.211638
    56  C   -0.330314
    57  C   -0.127553
    58  C   -0.293857
    59  C   -0.082455
    60  C   -0.083056
    61  H    0.223354
    62  C   -0.002746
    63  C   -0.111879
    64  H    0.154560
    65  C    0.036658
    66  C   -0.084463
    67  H    0.094116
    68  H    0.088949
    69  C   -0.084669
    70  H    0.107137
    71  H    0.092515
    72  H    0.088775
    73  H    0.089541
    74  N   -0.194593
    75  C    0.089047
    76  C    0.113841
    77  C   -0.259083
    78  C   -0.110679
    79  C   -0.272344
    80  C   -0.110612
    81  C   -0.085902
    82  H    0.226122
    83  C    0.010427
    84  C   -0.080798
    85  H    0.211903
    86  C    0.011372
    87  C   -0.105694
    88  H    0.095118
    89  H    0.092244
    90  C   -0.106118
    91  H    0.095939
    92  H    0.092512
    93  H    0.089602
    94  H    0.089783
 Sum of Mulliken charges =  -0.00000

 Dipole moment (field-independent basis, Debye):
    X=             -4.6496    Y=              0.1143    Z=              0.0206  Tot=              4.6510
 Quadrupole moment (field-independent basis, Debye-Ang):
   XX=           -340.4831   YY=           -352.6748   ZZ=           -339.8514
   XY=              0.3089   XZ=              0.7295   YZ=             33.8351

 Normal termination of Gaussian 09 at Thu Jun 30 05:49:54 2022.
