 Gaussian 09, Revision E.01,
 Gaussian 09:  ES64L-G09RevE.01 30-Nov-2015

 ----------------------------------------------------------------------
 #p wB97XD/def2TZVP td=(NStates=50) int=ultrafine scrf=(SMD,solvent=Ace
 tonitrile)
 ----------------------------------------------------------------------

 -----
 Title
 -----
 Symbolic Z-matrix:
 Charge =  0 Multiplicity = 1

                         Standard orientation:
 ---------------------------------------------------------------------
 Center     Atomic      Atomic             Coordinates (Angstroms)
 Number     Number       Type             X           Y           Z
 ---------------------------------------------------------------------
      1          6           0       -0.167899   -1.146634   -0.384830
      2          6           0        0.535510    0.004472   -0.004857
      3          6           0       -0.180217    1.151047    0.365998
      4          6           0       -1.578401    1.122758    0.390594
      5          6           0       -2.282669   -0.005915   -0.018331
      6          6           0       -1.565835   -1.127883   -0.423706
      7          6           0       -2.295423    2.239270    0.920351
      8          6           0       -2.270592   -2.249008   -0.959614
      9          7           0       -2.876883    3.125162    1.360692
     10          7           0       -2.841407   -3.139459   -1.404701
     11          7           0        0.498903   -2.321894   -0.746651
     12          6           0        1.453189   -2.452763   -1.756097
     13          6           0        0.455766   -3.518363   -0.023087
     14          6           0        1.793687   -1.556919   -2.758231
     15          6           0        2.035663   -3.724822   -1.668315
     16          6           0       -0.316527   -3.851029    1.081290
     17          6           0        1.399062   -4.404795   -0.561292
     18          6           0        2.778173   -1.941896   -3.651146
     19          1           0        1.310065   -0.593603   -2.844171
     20          6           0        3.018301   -4.095842   -2.580372
     21          6           0       -0.131542   -5.106490    1.634214
     22          1           0       -1.031131   -3.160502    1.510725
     23          6           0        1.569470   -5.661066    0.010788
     24          6           0        3.391799   -3.194608   -3.561653
     25          1           0        3.072694   -1.257604   -4.437134
     26          1           0        3.478180   -5.074752   -2.522665
     27          6           0        0.799160   -6.005700    1.107065
     28          1           0       -0.721704   -5.393304    2.495629
     29          1           0        2.298385   -6.352374   -0.394072
     30          1           0        4.158668   -3.464422   -4.276665
     31          1           0        0.918421   -6.979290    1.565266
     32          7           0        1.937735    0.008530    0.003980
     33          6           0        2.757005    0.802227   -0.797743
     34          6           0        2.750502   -0.785435    0.811949
     35          6           0        2.407103    1.704799   -1.791891
     36          6           0        4.097513    0.518068   -0.499647
     37          6           0        2.392173   -1.688929    1.802277
     38          6           0        4.093289   -0.500885    0.525360
     39          6           0        3.430853    2.354291   -2.458185
     40          1           0        1.375050    1.888403   -2.055670
     41          6           0        5.112904    1.177952   -1.184501
     42          6           0        3.410272   -2.339085    2.476423
     43          1           0        1.357709   -1.873759    2.055320
     44          6           0        5.102928   -1.161722    1.217751
     45          6           0        4.772088    2.101669   -2.156114
     46          1           0        3.183262    3.068009   -3.234208
     47          1           0        6.151254    0.965287   -0.961263
     48          6           0        4.754064   -2.086396    2.185530
     49          1           0        3.156178   -3.054172    3.249044
     50          1           0        6.143129   -0.949520    1.002881
     51          1           0        5.548852    2.627408   -2.696820
     52          1           0        5.526310   -2.613050    2.731798
     53          7           0        0.474706    2.330221    0.735140
     54          6           0        0.431100    3.525905    0.011077
     55          6           0        1.418687    2.466763    1.753049
     56          6           0       -0.337255    3.853504   -1.097252
     57          6           0        1.365611    4.417393    0.555923
     58          6           0        1.751628    1.574111    2.760382
     59          6           0        1.996298    3.741310    1.668912
     60          6           0       -0.156669    5.110094   -1.649004
     61          1           0       -1.045991    3.157062   -1.527153
     62          6           0        1.531851    5.674638   -0.015128
     63          6           0        2.725818    1.964477    3.662234
     64          1           0        1.268397    0.610352    2.843717
     65          6           0        2.968635    4.117616    2.589744
     66          6           0        0.765912    6.014462   -1.116081
     67          1           0       -0.744095    5.394494   -2.513093
     68          1           0        2.253197    6.370923    0.394652
     69          6           0        3.336111    3.219096    3.575889
     70          1           0        3.014759    1.283316    4.453050
     71          1           0        3.425079    5.098268    2.535003
     72          1           0        0.881644    6.989071   -1.572942
     73          1           0        4.094888    3.493030    4.297937
     74          7           0       -3.679817   -0.016948   -0.015946
     75          6           0       -4.482428   -0.816138    0.798373
     76          6           0       -4.503126    0.780048   -0.810855
     77          6           0       -4.106106   -1.742919    1.760791
     78          6           0       -5.827732   -0.529585    0.523039
     79          6           0       -4.151475    1.708316   -1.780946
     80          6           0       -5.840885    0.488417   -0.505875
     81          6           0       -5.118533   -2.396706    2.441896
     82          1           0       -3.065302   -1.952090    1.974974
     83          6           0       -6.827906   -1.197436    1.222449
     84          6           0       -5.181070    2.359036   -2.438769
     85          1           0       -3.116418    1.919389   -2.018527
     86          6           0       -6.858715    1.153197   -1.182275
     87          6           0       -6.465140   -2.130933    2.177294
     88          1           0       -4.858104   -3.128489    3.196429
     89          1           0       -7.871216   -0.986389    1.022172
     90          6           0       -6.520584    2.088729   -2.144099
     91          1           0       -4.940114    3.092070   -3.198512
     92          1           0       -7.896562    0.938650   -0.958722
     93          1           0       -7.230576   -2.660949    2.729794
     94          1           0       -7.299956    2.616670   -2.678836
 ---------------------------------------------------------------------

 SCF Done:  E(RwB97XD) =  -2481.88556707     A.U. after   17 cycles

 Excitation energies and oscillator strengths:

 Excited State   1:      Singlet-A      3.4972 eV  354.53 nm  f=0.1485  <S**2>=0.000
     193 -> 206       -0.10163
     203 -> 206        0.17193
     205 -> 206        0.64934
 This state for optimization and/or second-order correction.
 Total Energy, E(TD-HF/TD-KS) =  -2481.75704785
 Copying the excited state density for this state as the 1-particle RhoCI density.

 Excited State   2:      Singlet-A      3.7521 eV  330.44 nm  f=0.0692  <S**2>=0.000
     201 -> 206       -0.34355
     204 -> 206        0.55664
     205 -> 207       -0.14256

 Excited State   3:      Singlet-A      3.8507 eV  321.98 nm  f=0.2768  <S**2>=0.000
     202 -> 207        0.34528
     203 -> 207        0.21996
     204 -> 206        0.11637
     205 -> 207        0.52739

 Excited State   4:      Singlet-A      3.8770 eV  319.79 nm  f=0.0301  <S**2>=0.000
     199 -> 206        0.14352
     202 -> 206       -0.42346
     203 -> 206        0.48045
     205 -> 206       -0.18165

 Excited State   5:      Singlet-A      4.0252 eV  308.02 nm  f=0.0020  <S**2>=0.000
     202 -> 206        0.52099
     203 -> 206        0.44171

 Excited State   6:      Singlet-A      4.2188 eV  293.88 nm  f=0.0230  <S**2>=0.000
     199 -> 207        0.13502
     202 -> 207        0.38277
     203 -> 207        0.35973
     205 -> 207       -0.37820
     205 -> 216        0.10155

 Excited State   7:      Singlet-A      4.3143 eV  287.38 nm  f=0.1497  <S**2>=0.000
     192 -> 207        0.12049
     199 -> 206       -0.10095
     201 -> 207       -0.31993
     202 -> 206       -0.12415
     204 -> 207        0.54064

 Excited State   8:      Singlet-A      4.3609 eV  284.31 nm  f=0.0041  <S**2>=0.000
     198 -> 206       -0.20965
     201 -> 206        0.56713
     204 -> 206        0.32522

 Excited State   9:      Singlet-A      4.4152 eV  280.81 nm  f=0.0915  <S**2>=0.000
     199 -> 207        0.13346
     202 -> 207       -0.42521
     203 -> 207        0.44518
     205 -> 207        0.10403
     205 -> 211        0.14408

 Excited State  10:      Singlet-A      4.4502 eV  278.60 nm  f=0.0147  <S**2>=0.000
     199 -> 206        0.65536
     203 -> 206       -0.14212
     204 -> 207        0.11113

 Excited State  11:      Singlet-A      4.4928 eV  275.96 nm  f=0.0004  <S**2>=0.000
     199 -> 211       -0.17747
     203 -> 207       -0.16974
     203 -> 210       -0.16362
     203 -> 211       -0.26851
     205 -> 210        0.32391
     205 -> 211        0.34627

 Excited State  12:      Singlet-A      4.5085 eV  275.00 nm  f=0.0650  <S**2>=0.000
     200 -> 206       -0.10444
     200 -> 213       -0.21741
     202 -> 208        0.42252
     202 -> 210       -0.16320
     202 -> 211        0.12626
     203 -> 208        0.28664
     205 -> 208        0.26882

 Excited State  13:      Singlet-A      4.5295 eV  273.73 nm  f=0.0323  <S**2>=0.000
     198 -> 214       -0.10257
     199 -> 212        0.10756
     201 -> 210       -0.19302
     201 -> 211        0.10908
     202 -> 209       -0.26855
     203 -> 209        0.19286
     204 -> 207        0.10574
     204 -> 208        0.13989
     204 -> 210        0.26400
     204 -> 211       -0.17018
     205 -> 209        0.31866

 Excited State  14:      Singlet-A      4.5335 eV  273.48 nm  f=0.0122  <S**2>=0.000
     198 -> 212       -0.10621
     199 -> 214        0.13101
     201 -> 209       -0.22643
     202 -> 207       -0.11863
     202 -> 208       -0.16572
     202 -> 210       -0.18417
     202 -> 211        0.10692
     203 -> 210        0.19999
     204 -> 209        0.33293
     205 -> 210        0.19047
     205 -> 211       -0.23892

 Excited State  15:      Singlet-A      4.6185 eV  268.45 nm  f=0.0069  <S**2>=0.000
     200 -> 206        0.68847

 Excited State  16:      Singlet-A      4.6427 eV  267.05 nm  f=0.0040  <S**2>=0.000
     197 -> 206       -0.11048
     198 -> 206        0.64666
     201 -> 206        0.13816
     204 -> 206        0.19828

 Excited State  17:      Singlet-A      4.6521 eV  266.51 nm  f=0.0027  <S**2>=0.000
     200 -> 207        0.67467

 Excited State  18:      Singlet-A      4.7668 eV  260.10 nm  f=0.0337  <S**2>=0.000
     198 -> 210        0.28416
     198 -> 211        0.20165
     199 -> 209       -0.17186
     201 -> 211        0.28011
     204 -> 210        0.18089
     204 -> 211        0.37246

 Excited State  19:      Singlet-A      4.8048 eV  258.04 nm  f=0.1654  <S**2>=0.000
     198 -> 210       -0.10639
     198 -> 211        0.18849
     199 -> 209        0.26294
     200 -> 208       -0.22441
     201 -> 207       -0.14366
     201 -> 208        0.12736
     201 -> 209        0.10005
     201 -> 210        0.21790
     203 -> 209       -0.22269
     204 -> 210        0.18402
     205 -> 209        0.11662
     205 -> 212       -0.10210

 Excited State  20:      Singlet-A      4.8049 eV  258.04 nm  f=0.1187  <S**2>=0.000
     198 -> 209       -0.26574
     199 -> 208        0.13356
     199 -> 210        0.26716
     199 -> 211       -0.15790
     201 -> 209        0.30644
     203 -> 208       -0.10440
     203 -> 210       -0.18442
     203 -> 211        0.14270
     204 -> 209        0.15142

 Excited State  21:      Singlet-A      4.8381 eV  256.26 nm  f=0.5516  <S**2>=0.000
     199 -> 209        0.12304
     200 -> 208        0.54651
     200 -> 210       -0.16447
     200 -> 211        0.14145
     201 -> 210        0.12383
     202 -> 213        0.11401
     203 -> 209       -0.10160

 Excited State  22:      Singlet-A      4.8878 eV  253.66 nm  f=0.0288  <S**2>=0.000
     198 -> 207        0.10441
     201 -> 207        0.50632
     204 -> 207        0.35212

 Excited State  23:      Singlet-A      5.0645 eV  244.81 nm  f=0.0083  <S**2>=0.000
     199 -> 207        0.64634
     203 -> 207       -0.20524

 Excited State  24:      Singlet-A      5.1222 eV  242.05 nm  f=0.0005  <S**2>=0.000
     198 -> 207        0.63601
     198 -> 216       -0.10113
     201 -> 207       -0.17629

 Excited State  25:      Singlet-A      5.2561 eV  235.89 nm  f=0.0508  <S**2>=0.000
     188 -> 206        0.27369
     189 -> 207        0.14577
     192 -> 207       -0.28426
     193 -> 206        0.44388
     201 -> 207       -0.13755
     205 -> 206        0.11684

 Excited State  26:      Singlet-A      5.4011 eV  229.55 nm  f=0.0602  <S**2>=0.000
     194 -> 211       -0.10394
     197 -> 210        0.15845
     198 -> 207        0.14949
     199 -> 209       -0.15685
     199 -> 212        0.11036
     201 -> 214       -0.11652
     202 -> 212       -0.11098
     203 -> 209       -0.15653
     203 -> 212        0.24822
     204 -> 210       -0.12609
     204 -> 214        0.10505
     205 -> 209        0.24811
     205 -> 212       -0.14428
     205 -> 215       -0.24723

 Excited State  27:      Singlet-A      5.4041 eV  229.43 nm  f=0.0365  <S**2>=0.000
     189 -> 206        0.10573
     192 -> 206       -0.25328
     194 -> 206        0.19190
     196 -> 210        0.10812
     197 -> 206        0.43395
     204 -> 212        0.14395
     205 -> 214        0.11187

 Excited State  28:      Singlet-A      5.4616 eV  227.01 nm  f=0.2035  <S**2>=0.000
     192 -> 206       -0.10769
     194 -> 206        0.10001
     196 -> 210       -0.10890
     197 -> 206        0.35089
     197 -> 209       -0.11694
     201 -> 212        0.11145
     202 -> 210       -0.11242
     202 -> 211       -0.10517
     202 -> 214        0.14115
     203 -> 210        0.18306
     203 -> 214       -0.11297
     204 -> 212       -0.19130
     205 -> 211        0.20439
     205 -> 214       -0.16284

 Excited State  29:      Singlet-A      5.4673 eV  226.77 nm  f=0.0644  <S**2>=0.000
     194 -> 210        0.14173
     196 -> 206        0.28090
     196 -> 209        0.18735
     197 -> 211       -0.15533
     198 -> 218        0.12682
     199 -> 219       -0.10131
     201 -> 214       -0.11207
     202 -> 213        0.12570
     203 -> 215       -0.11708
     204 -> 214        0.16537
     205 -> 212        0.28806

 Excited State  30:      Singlet-A      5.5011 eV  225.38 nm  f=0.0762  <S**2>=0.000
     195 -> 208        0.28883
     196 -> 206       -0.23785
     200 -> 220       -0.22875
     202 -> 213        0.31650
     203 -> 213        0.20724
     205 -> 213        0.19232

 Excited State  31:      Singlet-A      5.5144 eV  224.84 nm  f=0.0935  <S**2>=0.000
     189 -> 206       -0.19307
     192 -> 206        0.45961
     193 -> 207        0.13325
     197 -> 206        0.31778
     205 -> 210        0.16055

 Excited State  32:      Singlet-A      5.5529 eV  223.28 nm  f=0.1497  <S**2>=0.000
     196 -> 206        0.43967
     197 -> 211        0.15817
     203 -> 209        0.18201
     205 -> 209       -0.23090
     205 -> 212       -0.14262

 Excited State  33:      Singlet-A      5.5610 eV  222.95 nm  f=0.0645  <S**2>=0.000
     192 -> 206       -0.18538
     199 -> 208       -0.10811
     199 -> 210       -0.16014
     199 -> 211        0.17813
     202 -> 211       -0.14728
     203 -> 208       -0.11034
     203 -> 210       -0.12369
     203 -> 211        0.22969
     205 -> 208        0.16676
     205 -> 210        0.40874

 Excited State  34:      Singlet-A      5.5807 eV  222.17 nm  f=0.3735  <S**2>=0.000
     196 -> 206        0.29858
     199 -> 209       -0.23722
     201 -> 210       -0.12651
     203 -> 209       -0.18401
     204 -> 214       -0.13517
     205 -> 209        0.36138
     205 -> 215        0.11800

 Excited State  35:      Singlet-A      5.6310 eV  220.18 nm  f=0.0022  <S**2>=0.000
     194 -> 209        0.11389
     196 -> 211       -0.11054
     202 -> 210       -0.18201
     202 -> 211       -0.22492
     203 -> 210        0.23281
     203 -> 211        0.18886
     204 -> 215       -0.11842
     205 -> 211        0.34249
     205 -> 214        0.12702

 Excited State  36:      Singlet-A      5.6784 eV  218.35 nm  f=0.0344  <S**2>=0.000
     198 -> 209       -0.16298
     198 -> 215        0.18006
     199 -> 214        0.13321
     201 -> 209       -0.10275
     201 -> 212        0.28748
     202 -> 211       -0.11232
     203 -> 210        0.10189
     203 -> 211        0.24556
     203 -> 214       -0.11022
     204 -> 209       -0.26147
     204 -> 212        0.20763
     204 -> 215        0.14810

 Excited State  37:      Singlet-A      5.7412 eV  215.95 nm  f=0.2072  <S**2>=0.000
     197 -> 207       -0.14244
     197 -> 211        0.13736
     198 -> 214        0.13372
     199 -> 212       -0.22475
     201 -> 210        0.20721
     201 -> 211        0.29793
     201 -> 214       -0.10999
     203 -> 215       -0.14031
     204 -> 211       -0.11590
     204 -> 214       -0.14378
     205 -> 209        0.10638
     205 -> 212        0.12134
     205 -> 215        0.21430

 Excited State  38:      Singlet-A      5.7513 eV  215.57 nm  f=0.0325  <S**2>=0.000
     195 -> 206        0.67759

 Excited State  39:      Singlet-A      5.7584 eV  215.31 nm  f=0.0983  <S**2>=0.000
     194 -> 211       -0.14722
     196 -> 206       -0.15066
     196 -> 209        0.15484
     197 -> 207       -0.23897
     197 -> 210        0.16505
     201 -> 210       -0.15218
     201 -> 214        0.11354
     201 -> 218       -0.11975
     203 -> 212       -0.18144
     204 -> 211        0.27538
     204 -> 218       -0.10173
     205 -> 215        0.13909

 Excited State  40:      Singlet-A      5.7824 eV  214.42 nm  f=0.4547  <S**2>=0.000
     195 -> 207        0.48638
     195 -> 208        0.17702
     200 -> 208        0.16348
     200 -> 220       -0.11151
     202 -> 213       -0.21976
     203 -> 213       -0.14453
     205 -> 213       -0.13368

 Excited State  41:      Singlet-A      5.7868 eV  214.25 nm  f=0.0758  <S**2>=0.000
     194 -> 206        0.49371
     197 -> 206       -0.18757
     199 -> 214       -0.10579
     201 -> 209       -0.11660
     202 -> 214        0.10806
     203 -> 211       -0.11143
     204 -> 212       -0.13242
     204 -> 215        0.12322
     205 -> 214       -0.15637

 Excited State  42:      Singlet-A      5.7936 eV  214.00 nm  f=0.4109  <S**2>=0.000
     198 -> 211       -0.27085
     198 -> 214        0.10896
     199 -> 212       -0.13337
     199 -> 215        0.11445
     201 -> 210       -0.14073
     201 -> 211       -0.18188
     201 -> 214       -0.20376
     203 -> 209        0.11126
     203 -> 212        0.16860
     204 -> 210        0.30655
     204 -> 211        0.16065
     205 -> 212       -0.10806

 Excited State  43:      Singlet-A      5.8383 eV  212.36 nm  f=0.6375  <S**2>=0.000
     193 -> 207       -0.10260
     198 -> 212        0.14057
     199 -> 214       -0.10733
     200 -> 213        0.46437
     202 -> 208        0.10091
     202 -> 220        0.15539
     203 -> 208        0.11777
     205 -> 208        0.12831

 Excited State  44:      Singlet-A      5.8710 eV  211.18 nm  f=0.0089  <S**2>=0.000
     194 -> 206        0.12517
     198 -> 212       -0.21012
     199 -> 210       -0.13238
     199 -> 214        0.15318
     200 -> 213        0.25587
     201 -> 215       -0.16148
     202 -> 216       -0.10479
     203 -> 214       -0.15419
     204 -> 215       -0.12247
     205 -> 218        0.22551

 Excited State  45:      Singlet-A      5.8810 eV  210.82 nm  f=0.0938  <S**2>=0.000
     193 -> 207        0.11035
     194 -> 206        0.37212
     194 -> 209       -0.11887
     196 -> 207        0.11822
     196 -> 210       -0.13667
     197 -> 209       -0.12356
     201 -> 209        0.13542
     201 -> 215        0.10089
     202 -> 214       -0.12007
     203 -> 211        0.13552
     204 -> 209        0.11675
     204 -> 212        0.18859
     205 -> 214        0.17155

 Excited State  46:      Singlet-A      5.8901 eV  210.50 nm  f=0.3640  <S**2>=0.000
     189 -> 207       -0.14585
     192 -> 207        0.32261
     193 -> 206        0.20845
     195 -> 207        0.27168
     195 -> 208       -0.15403
     198 -> 210        0.15111
     200 -> 220        0.10076
     202 -> 213        0.11746
     204 -> 211       -0.10892

 Excited State  47:      Singlet-A      5.9043 eV  209.99 nm  f=0.3684  <S**2>=0.000
     198 -> 208        0.12067
     198 -> 210        0.30865
     201 -> 208        0.11516
     201 -> 210        0.13029
     201 -> 211       -0.25912
     203 -> 209       -0.10275
     204 -> 208        0.11209
     204 -> 210        0.26223
     204 -> 214        0.10306
     205 -> 212        0.14270

 Excited State  48:      Singlet-A      5.9105 eV  209.77 nm  f=0.1096  <S**2>=0.000
     195 -> 207       -0.12194
     198 -> 209        0.36080
     199 -> 210       -0.19609
     201 -> 209        0.19051
     204 -> 209        0.27036
     204 -> 215        0.10573
     205 -> 212       -0.10511

 Excited State  49:      Singlet-A      5.9119 eV  209.72 nm  f=0.2770  <S**2>=0.000
     194 -> 210       -0.10682
     195 -> 207        0.27350
     195 -> 208       -0.13047
     196 -> 209       -0.10829
     198 -> 209        0.17077
     198 -> 210       -0.18368
     202 -> 213        0.12147
     204 -> 209        0.13005
     204 -> 211        0.19980
     204 -> 214        0.13924
     205 -> 212        0.18136

 Excited State  50:      Singlet-A      5.9653 eV  207.84 nm  f=1.6957  <S**2>=0.000
     189 -> 207       -0.11243
     192 -> 207        0.26249
     193 -> 206        0.18173
     195 -> 207       -0.17332
     195 -> 208        0.16484
     196 -> 209       -0.12676
     198 -> 210       -0.17371
     202 -> 212       -0.10164
     202 -> 213       -0.16914
     203 -> 213       -0.10423
     204 -> 211        0.12881
     204 -> 214        0.13038
     205 -> 212        0.14624
     205 -> 213       -0.12251

 The electronic state is 1-A.
 Alpha  occ. eigenvalues --  -14.50231 -14.50131 -14.50124 -14.49740 -14.45784
 Alpha  occ. eigenvalues --  -14.45776 -10.39235 -10.39083 -10.39079 -10.37870
 Alpha  occ. eigenvalues --  -10.36621 -10.36605 -10.35240 -10.35233 -10.33700
 Alpha  occ. eigenvalues --  -10.33691 -10.33650 -10.33638 -10.33496 -10.33490
 Alpha  occ. eigenvalues --  -10.33319 -10.33312 -10.29821 -10.29783 -10.29744
 Alpha  occ. eigenvalues --  -10.29740 -10.29703 -10.29699 -10.29530 -10.29491
 Alpha  occ. eigenvalues --  -10.29353 -10.29344 -10.29314 -10.29311 -10.29239
 Alpha  occ. eigenvalues --  -10.29235 -10.29204 -10.29201 -10.29159 -10.29159
 Alpha  occ. eigenvalues --  -10.29129 -10.29127 -10.29062 -10.29059 -10.29050
 Alpha  occ. eigenvalues --  -10.29045 -10.29043 -10.29042 -10.29030 -10.29029
 Alpha  occ. eigenvalues --  -10.28931 -10.28928 -10.28858 -10.28857 -10.28415
 Alpha  occ. eigenvalues --  -10.28413 -10.28402 -10.28399 -10.28373 -10.28371
 Alpha  occ. eigenvalues --  -10.28262 -10.28262  -1.13643  -1.12345  -1.11976
 Alpha  occ. eigenvalues --   -1.10415  -1.04314  -1.03817  -1.02041  -0.98256
 Alpha  occ. eigenvalues --   -0.97932  -0.96396  -0.96213  -0.96201  -0.96115
 Alpha  occ. eigenvalues --   -0.95945  -0.95349  -0.92667  -0.91897  -0.89457
 Alpha  occ. eigenvalues --   -0.88953  -0.88729  -0.87580  -0.86247  -0.86236
 Alpha  occ. eigenvalues --   -0.86162  -0.85959  -0.84890  -0.84692  -0.83980
 Alpha  occ. eigenvalues --   -0.82655  -0.82596  -0.82574  -0.82410  -0.82242
 Alpha  occ. eigenvalues --   -0.78845  -0.78487  -0.75885  -0.75077  -0.73638
 Alpha  occ. eigenvalues --   -0.73565  -0.72000  -0.71491  -0.71266  -0.71200
 Alpha  occ. eigenvalues --   -0.70959  -0.70943  -0.69052  -0.68718  -0.68061
 Alpha  occ. eigenvalues --   -0.67851  -0.67785  -0.67616  -0.66566  -0.65802
 Alpha  occ. eigenvalues --   -0.64893  -0.63338  -0.63214  -0.61971  -0.61695
 Alpha  occ. eigenvalues --   -0.61615  -0.61176  -0.61086  -0.60665  -0.60178
 Alpha  occ. eigenvalues --   -0.59774  -0.58539  -0.58425  -0.55981  -0.55940
 Alpha  occ. eigenvalues --   -0.55645  -0.55568  -0.55453  -0.54947  -0.54825
 Alpha  occ. eigenvalues --   -0.54820  -0.54748  -0.53853  -0.53777  -0.53240
 Alpha  occ. eigenvalues --   -0.53218  -0.53065  -0.52836  -0.52502  -0.52376
 Alpha  occ. eigenvalues --   -0.51974  -0.51925  -0.51859  -0.51790  -0.51688
 Alpha  occ. eigenvalues --   -0.51662  -0.51527  -0.50974  -0.50830  -0.50629
 Alpha  occ. eigenvalues --   -0.50597  -0.50500  -0.48979  -0.48687  -0.48412
 Alpha  occ. eigenvalues --   -0.46574  -0.46321  -0.46228  -0.45818  -0.45682
 Alpha  occ. eigenvalues --   -0.45405  -0.45375  -0.45254  -0.45192  -0.45185
 Alpha  occ. eigenvalues --   -0.45130  -0.45086  -0.44821  -0.44778  -0.44777
 Alpha  occ. eigenvalues --   -0.43563  -0.43451  -0.43011  -0.42841  -0.42718
 Alpha  occ. eigenvalues --   -0.42577  -0.42495  -0.42363  -0.42306  -0.42289
 Alpha  occ. eigenvalues --   -0.42186  -0.42103  -0.37946  -0.37763  -0.37383
 Alpha  occ. eigenvalues --   -0.37317  -0.36591  -0.36462  -0.34766  -0.34426
 Alpha  occ. eigenvalues --   -0.34210  -0.33677  -0.30362  -0.30115  -0.29968
 Alpha  occ. eigenvalues --   -0.29574  -0.29392  -0.29210  -0.28987  -0.28115
 Alpha virt. eigenvalues --   -0.03034  -0.01452   0.01879   0.01961   0.02027
 Alpha virt. eigenvalues --    0.02140   0.05067   0.05580   0.05746   0.06377
 Alpha virt. eigenvalues --    0.06693   0.07176   0.07295   0.07693   0.07744

 Mulliken charges:
               1
     1  C   -0.019532
     2  C   -0.090065
     3  C   -0.015936
     4  C    0.190368
     5  C   -0.015521
     6  C    0.187690
     7  C   -0.245651
     8  C   -0.242929
     9  N   -0.032037
    10  N   -0.032304
    11  N    0.220940
    12  C    0.132769
    13  C   -0.020858
    14  C   -0.277006
    15  C    0.031204
    16  C   -0.279612
    17  C   -0.009350
    18  C   -0.170646
    19  H    0.178114
    20  C   -0.214590
    21  C   -0.150666
    22  H    0.206505
    23  C   -0.230614
    24  C   -0.145349
    25  H    0.161150
    26  H    0.159106
    27  C   -0.148284
    28  H    0.160389
    29  H    0.157890
    30  H    0.159107
    31  H    0.159161
    32  N    0.457354
    33  C    0.007827
    34  C    0.006356
    35  C   -0.372486
    36  C    0.038970
    37  C   -0.369863
    38  C    0.039480
    39  C   -0.126076
    40  H    0.177864
    41  C   -0.214401
    42  C   -0.127799
    43  H    0.178120
    44  C   -0.214711
    45  C   -0.150965
    46  H    0.160559
    47  H    0.156113
    48  C   -0.150507
    49  H    0.160498
    50  H    0.156091
    51  H    0.157806
    52  H    0.157789
    53  N    0.219806
    54  C   -0.019341
    55  C    0.130831
    56  C   -0.279562
    57  C   -0.011291
    58  C   -0.276402
    59  C    0.032018
    60  C   -0.148431
    61  H    0.205424
    62  C   -0.229749
    63  C   -0.170365
    64  H    0.178193
    65  C   -0.214328
    66  C   -0.149217
    67  H    0.160651
    68  H    0.157914
    69  C   -0.145460
    70  H    0.161155
    71  H    0.159104
    72  H    0.159191
    73  H    0.159099
    74  N    0.128291
    75  C    0.079757
    76  C    0.080761
    77  C   -0.283697
    78  C   -0.010498
    79  C   -0.285791
    80  C   -0.008264
    81  C   -0.149892
    82  H    0.199328
    83  C   -0.212224
    84  C   -0.145109
    85  H    0.196413
    86  C   -0.211628
    87  C   -0.157798
    88  H    0.163168
    89  H    0.160455
    90  C   -0.158810
    91  H    0.163412
    92  H    0.160548
    93  H    0.160399
    94  H    0.160477
 Sum of Mulliken charges =  -0.00000

 Dipole moment (field-independent basis, Debye):
    X=              4.7814    Y=              0.0302    Z=              0.0377  Tot=              4.7816
 Quadrupole moment (field-independent basis, Debye-Ang):
   XX=           -338.2446   YY=           -352.5759   ZZ=           -336.9400
   XY=             -0.0075   XZ=             -0.1541   YZ=            -40.2723

 Normal termination of Gaussian 09 at Fri Jul  1 20:14:44 2022.
