 Gaussian 09, Revision E.01,
 Gaussian 09:  ES64L-G09RevE.01 30-Nov-2015

 ----------------------------------------------------------------------
 #p cam-b3lyp/def2TZVP td=(NStates=50) int=ultrafine scrf=(SMD,solvent=
 Acetonitrile) EmpiricalDispersion=GD3BJ
 ----------------------------------------------------------------------

 -----
 Title
 -----
 Symbolic Z-matrix:
 Charge =  0 Multiplicity = 1

                         Standard orientation:
 ---------------------------------------------------------------------
 Center     Atomic      Atomic             Coordinates (Angstroms)
 Number     Number       Type             X           Y           Z
 ---------------------------------------------------------------------
      1          6           0       -0.148680   -1.152252   -0.363499
      2          6           0        0.553283    0.003726   -0.002872
      3          6           0       -0.163244    1.152387    0.353586
      4          6           0       -1.560058    1.122088    0.381719
      5          6           0       -2.261813   -0.011214   -0.011547
      6          6           0       -1.545424   -1.136420   -0.401310
      7          6           0       -2.278856    2.239425    0.902540
      8          6           0       -2.249331   -2.261312   -0.925705
      9          7           0       -2.861445    3.123567    1.337192
     10          7           0       -2.819380   -3.152396   -1.362843
     11          7           0        0.516560   -2.332898   -0.708361
     12          6           0        1.449779   -2.489866   -1.735879
     13          6           0        0.454754   -3.526991    0.021037
     14          6           0        1.795085   -1.610441   -2.747646
     15          6           0        2.002709   -3.775827   -1.650610
     16          6           0       -0.306905   -3.839188    1.135714
     17          6           0        1.368482   -4.436542   -0.529791
     18          6           0        2.752366   -2.024493   -3.655116
     19          1           0        1.334764   -0.637501   -2.833547
     20          6           0        2.958970   -4.174161   -2.576261
     21          6           0       -0.143603   -5.096034    1.688774
     22          1           0       -0.999275   -3.132832    1.572558
     23          6           0        1.517510   -5.693002    0.043561
     24          6           0        3.336321   -3.289250   -3.568736
     25          1           0        3.049260   -1.352715   -4.449809
     26          1           0        3.396502   -5.162603   -2.521462
     27          6           0        0.756879   -6.016566    1.150998
     28          1           0       -0.727258   -5.367067    2.558710
     29          1           0        2.222844   -6.402814   -0.368943
     30          1           0        4.083218   -3.581609   -4.294777
     31          1           0        0.860311   -6.990927    1.609586
     32          7           0        1.955964    0.011409   -0.000134
     33          6           0        2.770055    0.803372   -0.813672
     34          6           0        2.776335   -0.775131    0.812249
     35          6           0        2.416652    1.697578   -1.810653
     36          6           0        4.112653    0.524725   -0.517994
     37          6           0        2.430121   -1.673617    1.807893
     38          6           0        4.116622   -0.485794    0.516461
     39          6           0        3.435563    2.342667   -2.486056
     40          1           0        1.385192    1.882150   -2.069397
     41          6           0        5.122127    1.180465   -1.211721
     42          6           0        3.454166   -2.311718    2.482129
     43          1           0        1.400150   -1.867421    2.065242
     44          6           0        5.131283   -1.134864    1.208795
     45          6           0        4.776542    2.094391   -2.188778
     46          1           0        3.183631    3.050736   -3.264691
     47          1           0        6.161360    0.972724   -0.991662
     48          6           0        4.793142   -2.052754    2.184711
     49          1           0        3.207911   -3.023383    3.259273
     50          1           0        6.168833   -0.919355    0.988248
     51          1           0        5.549785    2.616540   -2.736443
     52          1           0        5.570562   -2.569876    2.731217
     53          7           0        0.488099    2.338113    0.705474
     54          6           0        0.414912    3.535427   -0.017056
     55          6           0        1.417881    2.499209    1.735437
     56          6           0       -0.352614    3.846494   -1.127726
     57          6           0        1.319675    4.450781    0.538701
     58          6           0        1.766805    1.619115    2.745220
     59          6           0        1.959103    3.790502    1.656895
     60          6           0       -0.203375    5.108317   -1.673385
     61          1           0       -1.040045    3.134950   -1.564067
     62          6           0        1.454743    5.712208   -0.027095
     63          6           0        2.717627    2.037994    3.657267
     64          1           0        1.312991    0.642692    2.826232
     65          6           0        2.909140    4.193553    2.586844
     66          6           0        0.688912    6.034496   -1.131431
     67          1           0       -0.792224    5.379580   -2.539750
     68          1           0        2.152472    6.427182    0.389344
     69          6           0        3.291289    3.307898    3.576877
     70          1           0        3.017533    1.366221    4.450873
     71          1           0        3.337913    5.186088    2.537345
     72          1           0        0.780992    7.012957   -1.583634
     73          1           0        4.033194    3.604117    4.306477
     74          7           0       -3.659065   -0.021821   -0.011290
     75          6           0       -4.465517   -0.802426    0.819640
     76          6           0       -4.479531    0.756013   -0.830440
     77          6           0       -4.096614   -1.704124    1.804994
     78          6           0       -5.809316   -0.522488    0.530088
     79          6           0       -4.126953    1.659593   -1.819860
     80          6           0       -5.818208    0.470383   -0.523569
     81          6           0       -5.111608   -2.340291    2.496044
     82          1           0       -3.058621   -1.908619    2.030467
     83          6           0       -6.811462   -1.172667    1.239586
     84          6           0       -5.153356    2.292200   -2.497185
     85          1           0       -3.092756    1.866913   -2.058697
     86          6           0       -6.832081    1.116991   -1.219450
     87          6           0       -6.454843   -2.081506    2.217906
     88          1           0       -4.855679   -3.052852    3.269159
     89          1           0       -7.853215   -0.967501    1.029459
     90          6           0       -6.491862    2.028015   -2.201573
     91          1           0       -4.910418    3.006347   -3.272985
     92          1           0       -7.870189    0.907720   -0.995765
     93          1           0       -7.222982   -2.597363    2.778511
     94          1           0       -7.269274    2.541267   -2.751676
 ---------------------------------------------------------------------

 SCF Done:  E(RCAM-B3LYP) =  -2481.52691097     A.U. after   17 cycles

 Excitation energies and oscillator strengths:

 Excited State   1:      Singlet-A      3.4230 eV  362.21 nm  f=0.1486  <S**2>=0.000
     203 -> 206        0.16610
     205 -> 206        0.65798
 This state for optimization and/or second-order correction.
 Total Energy, E(TD-HF/TD-KS) =  -2481.40111836
 Copying the excited state density for this state as the 1-particle RhoCI density.

 Excited State   2:      Singlet-A      3.6580 eV  338.94 nm  f=0.0714  <S**2>=0.000
     201 -> 206       -0.32630
     204 -> 206        0.58128
     205 -> 207       -0.12579

 Excited State   3:      Singlet-A      3.7706 eV  328.82 nm  f=0.0294  <S**2>=0.000
     199 -> 206        0.13638
     202 -> 206        0.39639
     203 -> 206        0.51280
     205 -> 206       -0.18830

 Excited State   4:      Singlet-A      3.7965 eV  326.57 nm  f=0.2505  <S**2>=0.000
     202 -> 207       -0.33134
     203 -> 207        0.20607
     205 -> 207        0.55421

 Excited State   5:      Singlet-A      3.9116 eV  316.96 nm  f=0.0025  <S**2>=0.000
     202 -> 206        0.55037
     203 -> 206       -0.41733

 Excited State   6:      Singlet-A      4.1275 eV  300.39 nm  f=0.0155  <S**2>=0.000
     199 -> 207       -0.13120
     202 -> 207        0.39832
     203 -> 207       -0.38274
     205 -> 207        0.36469

 Excited State   7:      Singlet-A      4.1929 eV  295.70 nm  f=0.0054  <S**2>=0.000
     198 -> 206       -0.18020
     201 -> 206        0.59515
     204 -> 206        0.31006

 Excited State   8:      Singlet-A      4.2160 eV  294.08 nm  f=0.1195  <S**2>=0.000
     199 -> 206       -0.17001
     201 -> 207       -0.29377
     202 -> 206        0.11392
     204 -> 207        0.56288

 Excited State   9:      Singlet-A      4.2870 eV  289.21 nm  f=0.0215  <S**2>=0.000
     199 -> 206        0.65579
     203 -> 206       -0.13129
     204 -> 207        0.16114

 Excited State  10:      Singlet-A      4.3134 eV  287.44 nm  f=0.0657  <S**2>=0.000
     199 -> 207        0.13285
     202 -> 207        0.45002
     203 -> 207        0.48498

 Excited State  11:      Singlet-A      4.4120 eV  281.02 nm  f=0.0003  <S**2>=0.000
     200 -> 206        0.68399

 Excited State  12:      Singlet-A      4.4405 eV  279.21 nm  f=0.0043  <S**2>=0.000
     198 -> 206        0.65257
     201 -> 206        0.11942
     204 -> 206        0.17226

 Excited State  13:      Singlet-A      4.4687 eV  277.45 nm  f=0.0181  <S**2>=0.000
     198 -> 206        0.11222
     199 -> 211       -0.18739
     203 -> 210       -0.11873
     203 -> 211       -0.30727
     205 -> 210        0.25202
     205 -> 211        0.43642

 Excited State  14:      Singlet-A      4.4915 eV  276.04 nm  f=0.0895  <S**2>=0.000
     200 -> 206        0.14108
     200 -> 213       -0.19732
     202 -> 208        0.36734
     202 -> 210        0.22555
     202 -> 211       -0.11968
     203 -> 208       -0.28924
     204 -> 209       -0.12604
     205 -> 208       -0.30049

 Excited State  15:      Singlet-A      4.5016 eV  275.42 nm  f=0.0459  <S**2>=0.000
     198 -> 214       -0.10270
     199 -> 212       -0.10851
     201 -> 210        0.20163
     201 -> 214        0.10087
     202 -> 209        0.27034
     203 -> 209        0.19501
     204 -> 208        0.14590
     204 -> 210       -0.30212
     204 -> 211        0.12055
     205 -> 209        0.33691

 Excited State  16:      Singlet-A      4.5073 eV  275.07 nm  f=0.0032  <S**2>=0.000
     199 -> 214        0.12826
     201 -> 209       -0.21181
     202 -> 208        0.25533
     202 -> 210       -0.15864
     203 -> 210       -0.21290
     204 -> 209        0.33467
     205 -> 210       -0.26459
     205 -> 211        0.19387

 Excited State  17:      Singlet-A      4.5481 eV  272.61 nm  f=0.0012  <S**2>=0.000
     200 -> 207        0.68158

 Excited State  18:      Singlet-A      4.6911 eV  264.30 nm  f=0.0454  <S**2>=0.000
     198 -> 207        0.10943
     198 -> 211       -0.10856
     201 -> 207        0.55019
     204 -> 207        0.31386
     204 -> 211       -0.13324

 Excited State  19:      Singlet-A      4.7449 eV  261.30 nm  f=0.0082  <S**2>=0.000
     198 -> 210        0.26061
     198 -> 211        0.18528
     199 -> 209        0.23604
     201 -> 207        0.15350
     201 -> 211        0.27188
     203 -> 209       -0.14523
     204 -> 211        0.35435

 Excited State  20:      Singlet-A      4.7709 eV  259.87 nm  f=0.1147  <S**2>=0.000
     198 -> 209       -0.26842
     199 -> 207        0.16998
     199 -> 208        0.13526
     199 -> 210       -0.29645
     199 -> 211        0.10671
     201 -> 209        0.32105
     203 -> 208       -0.11002
     203 -> 210        0.21339
     203 -> 211       -0.11096
     204 -> 209        0.14800
     205 -> 210       -0.11478

 Excited State  21:      Singlet-A      4.7831 eV  259.21 nm  f=0.1247  <S**2>=0.000
     198 -> 211        0.21268
     199 -> 209       -0.21968
     200 -> 208        0.26655
     200 -> 210        0.12174
     201 -> 207        0.11601
     201 -> 208       -0.12515
     201 -> 210        0.22992
     203 -> 209        0.20962
     204 -> 210        0.18895
     204 -> 211        0.20179
     205 -> 209       -0.11062
     205 -> 212       -0.10691

 Excited State  22:      Singlet-A      4.8086 eV  257.84 nm  f=0.5857  <S**2>=0.000
     199 -> 209        0.13132
     200 -> 208        0.53287
     200 -> 210        0.17591
     200 -> 211       -0.11267
     201 -> 210       -0.15493
     202 -> 213        0.11152
     203 -> 209       -0.11742

 Excited State  23:      Singlet-A      4.8715 eV  254.51 nm  f=0.0016  <S**2>=0.000
     199 -> 207        0.64419
     203 -> 207       -0.18809

 Excited State  24:      Singlet-A      4.9290 eV  251.54 nm  f=0.0049  <S**2>=0.000
     198 -> 207        0.66032
     201 -> 207       -0.14273

 Excited State  25:      Singlet-A      5.2063 eV  238.14 nm  f=0.0501  <S**2>=0.000
     188 -> 206        0.28262
     189 -> 207       -0.15640
     192 -> 207       -0.29318
     193 -> 206        0.45895
     201 -> 207       -0.11002
     205 -> 206        0.10446

 Excited State  26:      Singlet-A      5.2801 eV  234.82 nm  f=0.0374  <S**2>=0.000
     194 -> 206        0.17363
     197 -> 206        0.64817

 Excited State  27:      Singlet-A      5.3116 eV  233.42 nm  f=0.0491  <S**2>=0.000
     196 -> 206       -0.11450
     199 -> 209       -0.23154
     203 -> 209       -0.25189
     203 -> 212       -0.17411
     204 -> 210        0.16560
     205 -> 209        0.42205
     205 -> 215       -0.15254

 Excited State  28:      Singlet-A      5.3502 eV  231.74 nm  f=0.0223  <S**2>=0.000
     199 -> 210       -0.19307
     202 -> 210       -0.13030
     203 -> 208        0.10101
     203 -> 210       -0.28481
     204 -> 209        0.14648
     204 -> 212        0.12144
     205 -> 208       -0.20224
     205 -> 210        0.30598
     205 -> 211       -0.28036

 Excited State  29:      Singlet-A      5.3699 eV  230.89 nm  f=0.0108  <S**2>=0.000
     196 -> 206        0.62901

 Excited State  30:      Singlet-A      5.3977 eV  229.70 nm  f=0.0100  <S**2>=0.000
     192 -> 206        0.13122
     199 -> 210       -0.10163
     199 -> 211        0.14481
     202 -> 211        0.25635
     203 -> 211        0.29942
     204 -> 212       -0.16788
     205 -> 210        0.34611
     205 -> 211        0.17167
     205 -> 214        0.12076

 Excited State  31:      Singlet-A      5.4423 eV  227.82 nm  f=0.0135  <S**2>=0.000
     194 -> 211       -0.12260
     197 -> 211        0.21531
     198 -> 217       -0.10950
     199 -> 209       -0.13245
     199 -> 212        0.11038
     201 -> 211        0.15859
     203 -> 209       -0.14846
     203 -> 212        0.16076
     203 -> 215       -0.12682
     204 -> 211       -0.15137
     204 -> 217       -0.10227
     205 -> 209        0.25604
     205 -> 212       -0.22076
     205 -> 215        0.20726

 Excited State  32:      Singlet-A      5.4577 eV  227.17 nm  f=0.2023  <S**2>=0.000
     188 -> 207        0.10206
     189 -> 206        0.21383
     192 -> 206        0.51262
     193 -> 207        0.14647
     194 -> 206       -0.16215
     197 -> 206        0.13099
     202 -> 211       -0.13271
     203 -> 211       -0.17262
     205 -> 211       -0.10903

 Excited State  33:      Singlet-A      5.4654 eV  226.85 nm  f=0.0971  <S**2>=0.000
     195 -> 208        0.18691
     196 -> 206       -0.14827
     196 -> 209       -0.13882
     200 -> 219       -0.14389
     201 -> 211       -0.10831
     201 -> 214       -0.10200
     202 -> 213        0.24568
     203 -> 213       -0.14310
     204 -> 214        0.17499
     205 -> 209       -0.11225
     205 -> 212       -0.24163
     205 -> 213       -0.12902

 Excited State  34:      Singlet-A      5.4996 eV  225.44 nm  f=0.4792  <S**2>=0.000
     195 -> 208        0.24834
     196 -> 206        0.13926
     196 -> 209        0.12000
     200 -> 216        0.10327
     200 -> 219       -0.21210
     202 -> 212        0.13859
     202 -> 213        0.23717
     203 -> 213       -0.16352
     204 -> 214       -0.13181
     205 -> 212        0.14295
     205 -> 213       -0.17451

 Excited State  35:      Singlet-A      5.5199 eV  224.61 nm  f=0.0769  <S**2>=0.000
     192 -> 206        0.17627
     194 -> 209       -0.14826
     196 -> 210       -0.16338
     197 -> 209       -0.13673
     201 -> 212       -0.11739
     202 -> 211        0.14366
     202 -> 214       -0.15367
     203 -> 210        0.11813
     203 -> 211        0.15763
     203 -> 214       -0.10656
     204 -> 212        0.14646
     204 -> 215        0.12068
     205 -> 211        0.21039
     205 -> 214       -0.20438

 Excited State  36:      Singlet-A      5.5604 eV  222.98 nm  f=0.0269  <S**2>=0.000
     195 -> 206        0.69052

 Excited State  37:      Singlet-A      5.5907 eV  221.77 nm  f=0.0374  <S**2>=0.000
     198 -> 209        0.29270
     198 -> 215       -0.12398
     199 -> 211       -0.15546
     201 -> 209        0.19337
     201 -> 212        0.22758
     203 -> 211        0.17204
     204 -> 209        0.34700
     204 -> 212        0.14734
     204 -> 215       -0.12053

 Excited State  38:      Singlet-A      5.6088 eV  221.05 nm  f=0.0408  <S**2>=0.000
     196 -> 209       -0.11712
     199 -> 212       -0.10290
     201 -> 210        0.23328
     201 -> 211        0.37525
     204 -> 211       -0.34793
     204 -> 214        0.10388
     205 -> 215       -0.14161

 Excited State  39:      Singlet-A      5.6113 eV  220.95 nm  f=0.0265  <S**2>=0.000
     192 -> 206        0.12765
     194 -> 206        0.61860
     197 -> 206       -0.14705

 Excited State  40:      Singlet-A      5.6655 eV  218.84 nm  f=0.1219  <S**2>=0.000
     198 -> 208       -0.16092
     198 -> 210        0.23529
     198 -> 211       -0.27890
     201 -> 210        0.17890
     201 -> 211       -0.11457
     201 -> 214        0.15036
     203 -> 212        0.12701
     204 -> 208       -0.17766
     204 -> 210        0.39969

 Excited State  41:      Singlet-A      5.6853 eV  218.08 nm  f=0.0137  <S**2>=0.000
     194 -> 211        0.12942
     195 -> 207        0.11769
     197 -> 207        0.37546
     197 -> 210       -0.11142
     197 -> 211       -0.14706
     199 -> 212        0.12755
     201 -> 211       -0.17506
     203 -> 212        0.10176
     204 -> 211       -0.16617
     204 -> 214       -0.12562
     204 -> 217        0.11336
     205 -> 212       -0.10420
     205 -> 215        0.20416

 Excited State  42:      Singlet-A      5.7048 eV  217.34 nm  f=0.2176  <S**2>=0.000
     195 -> 207        0.60817
     200 -> 208       -0.12080
     202 -> 213        0.14297

 Excited State  43:      Singlet-A      5.7170 eV  216.87 nm  f=0.0002  <S**2>=0.000
     198 -> 209        0.28059
     199 -> 210        0.24644
     199 -> 211        0.32104
     201 -> 209        0.22115
     201 -> 212       -0.12487
     203 -> 211       -0.21452
     204 -> 209        0.22196
     204 -> 212       -0.12848

 Excited State  44:      Singlet-A      5.7354 eV  216.17 nm  f=0.2230  <S**2>=0.000
     197 -> 207       -0.23294
     198 -> 210        0.34604
     198 -> 211        0.28147
     199 -> 209        0.11161
     199 -> 212        0.13586
     201 -> 211       -0.23531
     201 -> 214       -0.14277
     203 -> 209        0.10165
     203 -> 212       -0.14269
     204 -> 211       -0.13994

 Excited State  45:      Singlet-A      5.7889 eV  214.17 nm  f=0.4732  <S**2>=0.000
     200 -> 213        0.46289
     202 -> 219        0.15724
     205 -> 208       -0.32285
     205 -> 210       -0.11024

 Excited State  46:      Singlet-A      5.8078 eV  213.48 nm  f=0.0287  <S**2>=0.000
     193 -> 207       -0.10469
     194 -> 206       -0.11557
     194 -> 209       -0.16527
     196 -> 207        0.20364
     196 -> 210       -0.17257
     197 -> 209       -0.13108
     198 -> 209       -0.15318
     198 -> 212        0.10124
     199 -> 210       -0.10210
     199 -> 216        0.10208
     201 -> 212        0.11888
     202 -> 214        0.14918
     204 -> 212       -0.14202
     204 -> 215       -0.19750
     205 -> 214        0.25153

 Excited State  47:      Singlet-A      5.8192 eV  213.06 nm  f=0.1184  <S**2>=0.000
     196 -> 207        0.10651
     198 -> 212       -0.24070
     199 -> 210       -0.13462
     199 -> 211       -0.20657
     199 -> 214       -0.10934
     201 -> 215        0.18270
     203 -> 214        0.13901
     204 -> 209        0.11004
     204 -> 212       -0.20173
     204 -> 215        0.15400
     205 -> 217        0.26734

 Excited State  48:      Singlet-A      5.8307 eV  212.64 nm  f=0.1118  <S**2>=0.000
     192 -> 207        0.11787
     194 -> 210       -0.10799
     195 -> 207        0.24907
     195 -> 208        0.25243
     196 -> 209       -0.12250
     197 -> 211        0.10161
     200 -> 208        0.11788
     200 -> 219       -0.14871
     202 -> 213       -0.22159
     203 -> 213        0.14776
     204 -> 214       -0.13021
     205 -> 212        0.20740
     205 -> 213        0.11466

 Excited State  49:      Singlet-A      5.8401 eV  212.30 nm  f=0.7979  <S**2>=0.000
     192 -> 207        0.22137
     193 -> 206        0.15466
     194 -> 207       -0.13695
     195 -> 208        0.10468
     197 -> 207       -0.20880
     197 -> 211       -0.15981
     204 -> 211       -0.10903
     204 -> 214        0.11534
     204 -> 216        0.16166
     205 -> 212       -0.20983
     205 -> 213        0.12788
     205 -> 218        0.14536

 Excited State  50:      Singlet-A      5.8472 eV  212.04 nm  f=0.3165  <S**2>=0.000
     192 -> 207       -0.18764
     193 -> 206       -0.13494
     198 -> 211        0.34900
     198 -> 214       -0.15099
     199 -> 212       -0.16460
     201 -> 210       -0.14062
     201 -> 211       -0.19993
     201 -> 214        0.19211
     203 -> 215        0.10342

 The electronic state is 1-A.
 Alpha  occ. eigenvalues --  -14.45270 -14.45198 -14.45190 -14.44790 -14.41068
 Alpha  occ. eigenvalues --  -14.41063 -10.34882 -10.34757 -10.34747 -10.33543
 Alpha  occ. eigenvalues --  -10.32300 -10.32284 -10.31160 -10.31156 -10.29493
 Alpha  occ. eigenvalues --  -10.29482 -10.29423 -10.29418 -10.29305 -10.29303
 Alpha  occ. eigenvalues --  -10.29091 -10.29085 -10.25605 -10.25567 -10.25528
 Alpha  occ. eigenvalues --  -10.25522 -10.25490 -10.25484 -10.25296 -10.25259
 Alpha  occ. eigenvalues --  -10.25153 -10.25147 -10.25108 -10.25105 -10.25063
 Alpha  occ. eigenvalues --  -10.25060 -10.25025 -10.25021 -10.24956 -10.24953
 Alpha  occ. eigenvalues --  -10.24953 -10.24950 -10.24891 -10.24890 -10.24873
 Alpha  occ. eigenvalues --  -10.24867 -10.24853 -10.24850 -10.24799 -10.24793
 Alpha  occ. eigenvalues --  -10.24754 -10.24750 -10.24664 -10.24661 -10.24251
 Alpha  occ. eigenvalues --  -10.24250 -10.24236 -10.24232 -10.24207 -10.24202
 Alpha  occ. eigenvalues --  -10.24086 -10.24084  -1.11559  -1.10236  -1.09870
 Alpha  occ. eigenvalues --   -1.08244  -1.02414  -1.01957  -1.00132  -0.96346
 Alpha  occ. eigenvalues --   -0.96036  -0.94530  -0.94414  -0.94396  -0.94297
 Alpha  occ. eigenvalues --   -0.94129  -0.93482  -0.90731  -0.89958  -0.87507
 Alpha  occ. eigenvalues --   -0.87024  -0.86792  -0.85643  -0.84329  -0.84323
 Alpha  occ. eigenvalues --   -0.84249  -0.84034  -0.82941  -0.82762  -0.82039
 Alpha  occ. eigenvalues --   -0.80721  -0.80659  -0.80638  -0.80456  -0.80268
 Alpha  occ. eigenvalues --   -0.76870  -0.76503  -0.73938  -0.73099  -0.71687
 Alpha  occ. eigenvalues --   -0.71615  -0.70038  -0.69532  -0.69297  -0.69240
 Alpha  occ. eigenvalues --   -0.68991  -0.68950  -0.67107  -0.66766  -0.66149
 Alpha  occ. eigenvalues --   -0.65933  -0.65874  -0.65704  -0.64627  -0.63914
 Alpha  occ. eigenvalues --   -0.62959  -0.61403  -0.61290  -0.60043  -0.59763
 Alpha  occ. eigenvalues --   -0.59659  -0.59254  -0.59144  -0.58706  -0.58242
 Alpha  occ. eigenvalues --   -0.57818  -0.56586  -0.56488  -0.54108  -0.54038
 Alpha  occ. eigenvalues --   -0.53745  -0.53681  -0.53575  -0.53025  -0.52924
 Alpha  occ. eigenvalues --   -0.52920  -0.52797  -0.51923  -0.51834  -0.51344
 Alpha  occ. eigenvalues --   -0.51242  -0.51117  -0.50957  -0.50624  -0.50479
 Alpha  occ. eigenvalues --   -0.50186  -0.50144  -0.50087  -0.49961  -0.49882
 Alpha  occ. eigenvalues --   -0.49795  -0.49624  -0.49092  -0.48966  -0.48768
 Alpha  occ. eigenvalues --   -0.48734  -0.48622  -0.47051  -0.46797  -0.46548
 Alpha  occ. eigenvalues --   -0.44569  -0.44355  -0.44189  -0.43866  -0.43744
 Alpha  occ. eigenvalues --   -0.43529  -0.43525  -0.43400  -0.43341  -0.43335
 Alpha  occ. eigenvalues --   -0.43278  -0.43201  -0.42940  -0.42884  -0.42879
 Alpha  occ. eigenvalues --   -0.41528  -0.41422  -0.41018  -0.40974  -0.40870
 Alpha  occ. eigenvalues --   -0.40691  -0.40654  -0.40480  -0.40456  -0.40371
 Alpha  occ. eigenvalues --   -0.40251  -0.40198  -0.35737  -0.35570  -0.35200
 Alpha  occ. eigenvalues --   -0.35118  -0.34443  -0.34301  -0.32545  -0.32245
 Alpha  occ. eigenvalues --   -0.32033  -0.31527  -0.28171  -0.27949  -0.27822
 Alpha  occ. eigenvalues --   -0.27449  -0.27276  -0.27087  -0.26855  -0.26037
 Alpha virt. eigenvalues --   -0.05027  -0.03419  -0.00246  -0.00148  -0.00068
 Alpha virt. eigenvalues --    0.00039   0.02951   0.03473   0.03618   0.04258
 Alpha virt. eigenvalues --    0.04522   0.05077   0.05112   0.05486   0.05558

 Mulliken charges:
               1
     1  C    0.070067
     2  C   -0.001323
     3  C    0.076642
     4  C    0.059799
     5  C    0.073699
     6  C    0.062171
     7  C   -0.217954
     8  C   -0.216858
     9  N    0.025454
    10  N    0.025047
    11  N    0.065889
    12  C    0.138204
    13  C    0.051067
    14  C   -0.272310
    15  C    0.042775
    16  C   -0.272489
    17  C   -0.006913
    18  C   -0.167935
    19  H    0.184033
    20  C   -0.223724
    21  C   -0.147213
    22  H    0.208235
    23  C   -0.231406
    24  C   -0.166109
    25  H    0.165272
    26  H    0.165792
    27  C   -0.174169
    28  H    0.165781
    29  H    0.165176
    30  H    0.162318
    31  H    0.162344
    32  N    0.189742
    33  C    0.082518
    34  C    0.082560
    35  C   -0.340390
    36  C    0.039699
    37  C   -0.339407
    38  C    0.039627
    39  C   -0.134909
    40  H    0.183562
    41  C   -0.223666
    42  C   -0.135529
    43  H    0.183622
    44  C   -0.223609
    45  C   -0.172835
    46  H    0.164932
    47  H    0.163382
    48  C   -0.172814
    49  H    0.164907
    50  H    0.163334
    51  H    0.161064
    52  H    0.161044
    53  N    0.065879
    54  C    0.053331
    55  C    0.136076
    56  C   -0.271524
    57  C   -0.008270
    58  C   -0.271428
    59  C    0.043226
    60  C   -0.146581
    61  H    0.207067
    62  C   -0.230543
    63  C   -0.168277
    64  H    0.184508
    65  C   -0.223579
    66  C   -0.174846
    67  H    0.165839
    68  H    0.165221
    69  C   -0.165906
    70  H    0.165246
    71  H    0.165812
    72  H    0.162343
    73  H    0.162321
    74  N    0.003008
    75  C    0.113400
    76  C    0.112784
    77  C   -0.261937
    78  C   -0.003096
    79  C   -0.261932
    80  C   -0.001758
    81  C   -0.157594
    82  H    0.195832
    83  C   -0.223081
    84  C   -0.155736
    85  H    0.193473
    86  C   -0.223050
    87  C   -0.174439
    88  H    0.166964
    89  H    0.166902
    90  C   -0.174510
    91  H    0.167063
    92  H    0.166918
    93  H    0.163316
    94  H    0.163361
 Sum of Mulliken charges =  -0.00000

 Dipole moment (field-independent basis, Debye):
    X=              4.8148    Y=              0.0466    Z=              0.0302  Tot=              4.8151
 Quadrupole moment (field-independent basis, Debye-Ang):
   XX=           -345.3135   YY=           -358.7536   ZZ=           -340.8127
   XY=             -0.0841   XZ=              0.0418   YZ=            -38.7442

 Normal termination of Gaussian 09 at Fri Jul  1 00:05:08 2022.
