 Gaussian 09, Revision E.01,
 Gaussian 09:  ES64L-G09RevE.01 30-Nov-2015

 ----------------------------------------------------------------------
 #p b3lyp/def2TZVP td=(NStates=50) int=ultrafine scrf=(SMD,solvent=Acet
 onitrile) EmpiricalDispersion=GD3BJ
 ----------------------------------------------------------------------

 -----
 Title
 -----
 Symbolic Z-matrix:
 Charge =  0 Multiplicity = 1

                         Standard orientation:
 ---------------------------------------------------------------------
 Center     Atomic      Atomic             Coordinates (Angstroms)
 Number     Number       Type             X           Y           Z
 ---------------------------------------------------------------------
      1          6           0        0.158365    1.159478   -0.366306
      2          6           0       -0.547078   -0.000513   -0.001903
      3          6           0        0.169993   -1.152231    0.368047
      4          6           0        1.574804   -1.124471    0.398522
      5          6           0        2.280256    0.011336   -0.007290
      6          6           0        1.563448    1.142769   -0.404417
      7          6           0        2.289173   -2.228356    0.943047
      8          6           0        2.265293    2.255235   -0.947290
      9          7           0        2.872587   -3.108705    1.400852
     10          7           0        2.837971    3.143604   -1.403191
     11          7           0       -0.506644    2.338246   -0.719878
     12          6           0       -1.481021    2.478409   -1.718496
     13          6           0       -0.416876    3.548724   -0.008870
     14          6           0       -1.866271    1.581123   -2.704177
     15          6           0       -2.029941    3.775989   -1.633624
     16          6           0        0.375515    3.874559    1.083834
     17          6           0       -1.354674    4.454735   -0.547630
     18          6           0       -2.861048    1.983849   -3.585865
     19          1           0       -1.414206    0.604818   -2.790362
     20          6           0       -3.021927    4.161393   -2.533671
     21          6           0        0.227524    5.144573    1.627746
     22          1           0        1.077280    3.172592    1.511668
     23          6           0       -1.486647    5.722483    0.016151
     24          6           0       -3.439992    3.255761   -3.499285
     25          1           0       -3.189466    1.298122   -4.356182
     26          1           0       -3.454304    5.152379   -2.480522
     27          6           0       -0.689942    6.061359    1.101080
     28          1           0        0.835145    5.425598    2.478228
     29          1           0       -2.205918    6.426222   -0.382948
     30          1           0       -4.213468    3.537780   -4.201793
     31          1           0       -0.780266    7.042123    1.549603
     32          7           0       -1.950319   -0.010384   -0.009398
     33          6           0       -2.757137   -0.842963   -0.797637
     34          6           0       -2.779901    0.807684    0.769836
     35          6           0       -2.392755   -1.770806   -1.763577
     36          6           0       -4.110856   -0.557589   -0.515342
     37          6           0       -2.441657    1.746790    1.734123
     38          6           0       -4.125251    0.495491    0.476655
     39          6           0       -3.409704   -2.451541   -2.420188
     40          1           0       -1.359652   -1.955861   -2.014249
     41          6           0       -5.115459   -1.249234   -1.190223
     42          6           0       -3.476928    2.409259    2.380585
     43          1           0       -1.414001    1.954909    1.988739
     44          6           0       -5.148600    1.169512    1.140985
     45          6           0       -4.757404   -2.201734   -2.134248
     46          1           0       -3.149632   -3.186151   -3.171393
     47          1           0       -6.157287   -1.039849   -0.983447
     48          6           0       -4.817140    2.131515    2.085081
     49          1           0       -3.237377    3.152292    3.130308
     50          1           0       -6.184429    0.940014    0.925574
     51          1           0       -5.525484   -2.750442   -2.663703
     52          1           0       -5.600149    2.666718    2.606416
     53          7           0       -0.485404   -2.332105    0.734678
     54          6           0       -0.393175   -3.548670    0.034860
     55          6           0       -1.460479   -2.465169    1.733611
     56          6           0        0.405773   -3.883955   -1.049810
     57          6           0       -1.332519   -4.450239    0.578085
     58          6           0       -1.843392   -1.561629    2.714353
     59          6           0       -2.009954   -3.763007    1.657496
     60          6           0        0.261167   -5.158679   -1.583388
     61          1           0        1.110598   -3.184457   -1.476707
     62          6           0       -1.461250   -5.722944    0.024738
     63          6           0       -2.839410   -1.957147    3.597927
     64          1           0       -1.387228   -0.586643    2.796555
     65          6           0       -3.003197   -4.141173    2.559229
     66          6           0       -0.659168   -6.070821   -1.053421
     67          1           0        0.874026   -5.447773   -2.427390
     68          1           0       -2.181303   -6.423946    0.427189
     69          6           0       -3.421051   -3.228295    3.518154
     70          1           0       -3.166739   -1.266440    4.364290
     71          1           0       -3.436837   -5.131912    2.512398
     72          1           0       -0.746571   -7.055747   -1.493305
     73          1           0       -4.195767   -3.504521    4.221607
     74          7           0        3.678467    0.016876   -0.012837
     75          6           0        4.494347    0.835811    0.780168
     76          6           0        4.493924   -0.808164   -0.799520
     77          6           0        4.134427    1.784682    1.728399
     78          6           0        5.843617    0.530429    0.497192
     79          6           0        4.133520   -1.754187   -1.750347
     80          6           0        5.843284   -0.512735   -0.507165
     81          6           0        5.160791    2.448363    2.389181
     82          1           0        3.098806    2.004257    1.949887
     83          6           0        6.855001    1.208797    1.175944
     84          6           0        5.159421   -2.426319   -2.403206
     85          1           0        3.097934   -1.964554   -1.980128
     86          6           0        6.854235   -1.199339   -1.178125
     87          6           0        6.505549    2.168095    2.116444
     88          1           0        4.911679    3.196709    3.130457
     89          1           0        7.894875    0.986562    0.973017
     90          6           0        6.504326   -2.156680   -2.120440
     91          1           0        4.909818   -3.172857   -3.146116
     92          1           0        7.894295   -0.985226   -0.967555
     93          1           0        7.279423    2.704365    2.650130
     94          1           0        7.277907   -2.699455   -2.647925
 ---------------------------------------------------------------------

 SCF Done:  E(RB3LYP) =  -2483.01510593     A.U. after   18 cycles

 Excitation energies and oscillator strengths:

 Excited State   1:      Singlet-A      2.6194 eV  473.33 nm  f=0.0824  <S**2>=0.000
     205 -> 206        0.70156
 This state for optimization and/or second-order correction.
 Total Energy, E(TD-HF/TD-KS) =  -2482.91884440
 Copying the excited state density for this state as the 1-particle RhoCI density.

 Excited State   2:      Singlet-A      2.8525 eV  434.65 nm  f=0.0485  <S**2>=0.000
     202 -> 206        0.14474
     203 -> 206        0.64272
     204 -> 206        0.23434

 Excited State   3:      Singlet-A      2.8586 eV  433.73 nm  f=0.0535  <S**2>=0.000
     201 -> 206       -0.12903
     203 -> 206       -0.23171
     204 -> 206        0.64668

 Excited State   4:      Singlet-A      2.9109 eV  425.93 nm  f=0.0098  <S**2>=0.000
     202 -> 206        0.68800
     203 -> 206       -0.15428

 Excited State   5:      Singlet-A      3.0246 eV  409.92 nm  f=0.0001  <S**2>=0.000
     201 -> 206        0.63762
     204 -> 206        0.13920
     205 -> 207       -0.26224

 Excited State   6:      Singlet-A      3.0295 eV  409.25 nm  f=0.1669  <S**2>=0.000
     201 -> 206        0.25687
     202 -> 207        0.13176
     205 -> 207        0.63441

 Excited State   7:      Singlet-A      3.1450 eV  394.22 nm  f=0.0003  <S**2>=0.000
     199 -> 206        0.70162

 Excited State   8:      Singlet-A      3.1590 eV  392.48 nm  f=0.0002  <S**2>=0.000
     200 -> 206        0.70335

 Excited State   9:      Singlet-A      3.2367 eV  383.05 nm  f=0.0045  <S**2>=0.000
     198 -> 206        0.69429

 Excited State  10:      Singlet-A      3.2532 eV  381.11 nm  f=0.0216  <S**2>=0.000
     198 -> 206       -0.11139
     202 -> 207        0.63888
     203 -> 207       -0.20858
     205 -> 207       -0.14870

 Excited State  11:      Singlet-A      3.2768 eV  378.37 nm  f=0.0667  <S**2>=0.000
     201 -> 207       -0.17371
     204 -> 207        0.67640

 Excited State  12:      Singlet-A      3.3264 eV  372.73 nm  f=0.0492  <S**2>=0.000
     202 -> 207        0.23477
     203 -> 207        0.65793

 Excited State  13:      Singlet-A      3.4529 eV  359.07 nm  f=0.0204  <S**2>=0.000
     200 -> 207        0.19761
     201 -> 207        0.65442
     204 -> 207        0.17056

 Excited State  14:      Singlet-A      3.4804 eV  356.23 nm  f=0.0065  <S**2>=0.000
     200 -> 207        0.67695
     201 -> 207       -0.18860

 Excited State  15:      Singlet-A      3.5996 eV  344.44 nm  f=0.0158  <S**2>=0.000
     199 -> 207        0.70226

 Excited State  16:      Singlet-A      3.6743 eV  337.44 nm  f=0.0033  <S**2>=0.000
     198 -> 207        0.70497

 Excited State  17:      Singlet-A      3.9865 eV  311.01 nm  f=0.0005  <S**2>=0.000
     197 -> 206        0.69684

 Excited State  18:      Singlet-A      3.9941 eV  310.42 nm  f=0.0532  <S**2>=0.000
     203 -> 211        0.14423
     205 -> 208       -0.23381
     205 -> 209       -0.16112
     205 -> 210        0.22872
     205 -> 211        0.54778

 Excited State  19:      Singlet-A      4.0064 eV  309.46 nm  f=0.0239  <S**2>=0.000
     202 -> 209       -0.10689
     204 -> 210        0.14935
     205 -> 209        0.62723
     205 -> 210        0.13668

 Excited State  20:      Singlet-A      4.0216 eV  308.29 nm  f=0.0247  <S**2>=0.000
     202 -> 210       -0.12456
     204 -> 209        0.17506
     205 -> 208       -0.33173
     205 -> 210        0.40461
     205 -> 211       -0.35721

 Excited State  21:      Singlet-A      4.0554 eV  305.73 nm  f=0.0276  <S**2>=0.000
     200 -> 213       -0.13381
     202 -> 208        0.33420
     203 -> 208       -0.17157
     205 -> 208        0.39837
     205 -> 210        0.38846

 Excited State  22:      Singlet-A      4.0741 eV  304.32 nm  f=0.0040  <S**2>=0.000
     196 -> 206        0.69671

 Excited State  23:      Singlet-A      4.1651 eV  297.68 nm  f=0.0079  <S**2>=0.000
     195 -> 206        0.70402

 Excited State  24:      Singlet-A      4.1797 eV  296.63 nm  f=0.0475  <S**2>=0.000
     201 -> 210        0.14752
     202 -> 209        0.19912
     203 -> 209        0.41477
     204 -> 208        0.18833
     204 -> 209        0.11496
     204 -> 210       -0.35703
     205 -> 209        0.18161

 Excited State  25:      Singlet-A      4.1892 eV  295.96 nm  f=0.0031  <S**2>=0.000
     201 -> 209       -0.16383
     202 -> 210       -0.16994
     203 -> 208        0.16552
     203 -> 209       -0.10733
     203 -> 210       -0.35090
     204 -> 209        0.41984
     205 -> 210       -0.20310

 Excited State  26:      Singlet-A      4.2033 eV  294.97 nm  f=0.0029  <S**2>=0.000
     194 -> 206        0.68895

 Excited State  27:      Singlet-A      4.2647 eV  290.72 nm  f=0.0189  <S**2>=0.000
     202 -> 211       -0.13396
     203 -> 210       -0.12397
     203 -> 211       -0.33598
     204 -> 209       -0.14933
     204 -> 211        0.50307

 Excited State  28:      Singlet-A      4.2675 eV  290.53 nm  f=0.0158  <S**2>=0.000
     202 -> 211        0.19020
     203 -> 210        0.13904
     203 -> 211        0.42967
     204 -> 209        0.11150
     204 -> 211        0.42638
     205 -> 211       -0.10397

 Excited State  29:      Singlet-A      4.3030 eV  288.14 nm  f=0.0085  <S**2>=0.000
     200 -> 213       -0.10254
     202 -> 208        0.47632
     202 -> 210        0.15697
     203 -> 208       -0.19181
     205 -> 208       -0.38581
     205 -> 210       -0.19415

 Excited State  30:      Singlet-A      4.3235 eV  286.77 nm  f=0.0525  <S**2>=0.000
     201 -> 208       -0.12018
     201 -> 210        0.25702
     203 -> 209        0.32904
     204 -> 208       -0.23624
     204 -> 209        0.10150
     204 -> 210        0.42219
     204 -> 211       -0.11724

 Excited State  31:      Singlet-A      4.3262 eV  286.59 nm  f=0.0108  <S**2>=0.000
     198 -> 209        0.10579
     201 -> 209        0.30559
     203 -> 208       -0.11165
     203 -> 210        0.23823
     203 -> 211       -0.29473
     204 -> 209        0.41821

 Excited State  32:      Singlet-A      4.3957 eV  282.06 nm  f=0.0110  <S**2>=0.000
     201 -> 208       -0.20829
     201 -> 211        0.11557
     204 -> 208        0.58109
     204 -> 210        0.27001

 Excited State  33:      Singlet-A      4.4072 eV  281.32 nm  f=0.0022  <S**2>=0.000
     197 -> 207        0.41017
     201 -> 210        0.13272
     201 -> 211        0.48626
     204 -> 210       -0.16142

 Excited State  34:      Singlet-A      4.4337 eV  279.64 nm  f=0.0169  <S**2>=0.000
     195 -> 207        0.13944
     197 -> 207        0.51185
     201 -> 208        0.12177
     201 -> 210       -0.14068
     201 -> 211       -0.35124

 Excited State  35:      Singlet-A      4.4409 eV  279.19 nm  f=0.0357  <S**2>=0.000
     195 -> 207        0.30450
     200 -> 208        0.34228
     201 -> 210        0.19976
     202 -> 209        0.33247
     203 -> 209       -0.24836

 Excited State  36:      Singlet-A      4.4490 eV  278.68 nm  f=0.0254  <S**2>=0.000
     195 -> 207        0.29097
     197 -> 207       -0.15866
     200 -> 208        0.26700
     200 -> 210        0.10614
     201 -> 208        0.11884
     201 -> 209       -0.12004
     201 -> 210       -0.15056
     201 -> 211        0.15257
     202 -> 209       -0.28589
     203 -> 209        0.28270

 Excited State  37:      Singlet-A      4.4509 eV  278.56 nm  f=0.0022  <S**2>=0.000
     198 -> 209        0.12001
     201 -> 209        0.34799
     202 -> 209       -0.11319
     202 -> 210        0.29755
     203 -> 208        0.35185
     203 -> 210       -0.26179
     205 -> 210        0.11553

 Excited State  38:      Singlet-A      4.4666 eV  277.58 nm  f=0.0005  <S**2>=0.000
     202 -> 208        0.30031
     203 -> 208        0.47561
     203 -> 210        0.39946

 Excited State  39:      Singlet-A      4.4955 eV  275.80 nm  f=0.0198  <S**2>=0.000
     196 -> 207       -0.26379
     198 -> 209        0.11409
     199 -> 208       -0.14229
     199 -> 210        0.23184
     199 -> 211        0.17829
     201 -> 209       -0.32341
     202 -> 210        0.36194
     204 -> 209        0.13285

 Excited State  40:      Singlet-A      4.4994 eV  275.56 nm  f=0.0278  <S**2>=0.000
     195 -> 207       -0.17299
     199 -> 209        0.17787
     201 -> 208        0.22948
     201 -> 210       -0.32335
     201 -> 211        0.20421
     202 -> 209        0.39507
     203 -> 209        0.11474
     204 -> 210        0.15319

 Excited State  41:      Singlet-A      4.5108 eV  274.86 nm  f=0.0022  <S**2>=0.000
     199 -> 211        0.48394
     201 -> 209        0.10062
     202 -> 210       -0.23986
     202 -> 211        0.36455
     203 -> 211       -0.17135

 Excited State  42:      Singlet-A      4.5191 eV  274.35 nm  f=0.1106  <S**2>=0.000
     195 -> 207        0.48725
     200 -> 208       -0.35660
     200 -> 210       -0.10800
     201 -> 210       -0.16396
     202 -> 209        0.16390
     202 -> 213       -0.13734
     205 -> 213       -0.11219

 Excited State  43:      Singlet-A      4.5227 eV  274.14 nm  f=0.0067  <S**2>=0.000
     196 -> 207        0.57023
     198 -> 209       -0.15337
     201 -> 209       -0.17860
     202 -> 210        0.25765
     202 -> 211        0.10039

 Excited State  44:      Singlet-A      4.5493 eV  272.53 nm  f=0.1150  <S**2>=0.000
     193 -> 206       -0.10713
     194 -> 207        0.13262
     198 -> 208       -0.12918
     198 -> 210        0.30344
     198 -> 211       -0.10785
     199 -> 209        0.44807
     201 -> 208       -0.20633
     202 -> 209       -0.16319
     205 -> 212        0.13232

 Excited State  45:      Singlet-A      4.5536 eV  272.28 nm  f=0.0155  <S**2>=0.000
     196 -> 207       -0.25323
     198 -> 209       -0.24432
     199 -> 208        0.17004
     199 -> 210       -0.28331
     199 -> 211       -0.18937
     202 -> 210        0.16531
     202 -> 211        0.36028
     203 -> 211       -0.11500
     205 -> 211        0.11633

 Excited State  46:      Singlet-A      4.5578 eV  272.03 nm  f=0.0207  <S**2>=0.000
     200 -> 208       -0.17982
     201 -> 208        0.53245
     201 -> 210        0.33832
     204 -> 208        0.12443

 Excited State  47:      Singlet-A      4.5729 eV  271.13 nm  f=0.0304  <S**2>=0.000
     188 -> 206       -0.13616
     189 -> 207       -0.13608
     192 -> 207       -0.22351
     193 -> 206        0.55458
     194 -> 207       -0.18852
     198 -> 211       -0.14145
     199 -> 209        0.11094

 Excited State  48:      Singlet-A      4.5752 eV  270.99 nm  f=0.0381  <S**2>=0.000
     193 -> 206       -0.10013
     196 -> 207        0.15509
     198 -> 209        0.29366
     199 -> 210        0.21309
     199 -> 211       -0.35891
     202 -> 211        0.36809
     204 -> 212        0.10198

 Excited State  49:      Singlet-A      4.5982 eV  269.64 nm  f=0.0357  <S**2>=0.000
     193 -> 206        0.12936
     194 -> 207        0.11313
     198 -> 208       -0.10966
     198 -> 210        0.12781
     198 -> 211        0.59194
     205 -> 212        0.21414

 Excited State  50:      Singlet-A      4.6515 eV  266.55 nm  f=0.0146  <S**2>=0.000
     193 -> 206        0.17366
     194 -> 207        0.64258
     205 -> 212       -0.16375

 The electronic state is 1-A.
 Alpha  occ. eigenvalues --  -14.38407 -14.38378 -14.38373 -14.37921 -14.33704
 Alpha  occ. eigenvalues --  -14.33701 -10.27459 -10.27358 -10.27357 -10.26224
 Alpha  occ. eigenvalues --  -10.24894 -10.24890 -10.23726 -10.23723 -10.22331
 Alpha  occ. eigenvalues --  -10.22321 -10.22289 -10.22275 -10.22165 -10.22158
 Alpha  occ. eigenvalues --  -10.21945 -10.21934 -10.18581 -10.18543 -10.18520
 Alpha  occ. eigenvalues --  -10.18520 -10.18482 -10.18480 -10.18287 -10.18249
 Alpha  occ. eigenvalues --  -10.18062 -10.18058 -10.18030 -10.18018 -10.17916
 Alpha  occ. eigenvalues --  -10.17914 -10.17889 -10.17887 -10.17879 -10.17872
 Alpha  occ. eigenvalues --  -10.17823 -10.17822 -10.17761 -10.17760 -10.17754
 Alpha  occ. eigenvalues --  -10.17752 -10.17718 -10.17715 -10.17714 -10.17701
 Alpha  occ. eigenvalues --  -10.17635 -10.17634 -10.17545 -10.17542 -10.17204
 Alpha  occ. eigenvalues --  -10.17203 -10.17201 -10.17200 -10.17177 -10.17173
 Alpha  occ. eigenvalues --  -10.17043 -10.17039  -1.02980  -1.01692  -1.01374
 Alpha  occ. eigenvalues --   -0.99802  -0.93904  -0.93578  -0.91507  -0.87822
 Alpha  occ. eigenvalues --   -0.87546  -0.86082  -0.85852  -0.85837  -0.85773
 Alpha  occ. eigenvalues --   -0.85593  -0.85031  -0.82407  -0.81607  -0.79290
 Alpha  occ. eigenvalues --   -0.78818  -0.78643  -0.77509  -0.76231  -0.76221
 Alpha  occ. eigenvalues --   -0.76173  -0.75986  -0.74955  -0.74809  -0.74095
 Alpha  occ. eigenvalues --   -0.72735  -0.72698  -0.72673  -0.72485  -0.72391
 Alpha  occ. eigenvalues --   -0.69149  -0.68786  -0.66244  -0.65536  -0.64131
 Alpha  occ. eigenvalues --   -0.64062  -0.62604  -0.62109  -0.61948  -0.61767
 Alpha  occ. eigenvalues --   -0.61571  -0.61514  -0.59739  -0.59406  -0.58701
 Alpha  occ. eigenvalues --   -0.58518  -0.58477  -0.58315  -0.57300  -0.56383
 Alpha  occ. eigenvalues --   -0.55750  -0.54311  -0.54124  -0.52989  -0.52751
 Alpha  occ. eigenvalues --   -0.52652  -0.52154  -0.52099  -0.51694  -0.51284
 Alpha  occ. eigenvalues --   -0.50900  -0.49621  -0.49562  -0.47221  -0.46867
 Alpha  occ. eigenvalues --   -0.46831  -0.46778  -0.46697  -0.46214  -0.46172
 Alpha  occ. eigenvalues --   -0.46142  -0.46015  -0.45089  -0.45017  -0.44674
 Alpha  occ. eigenvalues --   -0.44297  -0.44245  -0.43998  -0.43969  -0.43760
 Alpha  occ. eigenvalues --   -0.43487  -0.43450  -0.43426  -0.43374  -0.43238
 Alpha  occ. eigenvalues --   -0.43032  -0.42658  -0.42426  -0.42209  -0.42206
 Alpha  occ. eigenvalues --   -0.42183  -0.42085  -0.40179  -0.39830  -0.39582
 Alpha  occ. eigenvalues --   -0.37712  -0.37679  -0.37372  -0.37314  -0.37265
 Alpha  occ. eigenvalues --   -0.37252  -0.37199  -0.37150  -0.37137  -0.37006
 Alpha  occ. eigenvalues --   -0.36955  -0.36590  -0.36538  -0.36226  -0.36200
 Alpha  occ. eigenvalues --   -0.35146  -0.35122  -0.34852  -0.34813  -0.34774
 Alpha  occ. eigenvalues --   -0.34574  -0.34504  -0.34463  -0.34425  -0.34254
 Alpha  occ. eigenvalues --   -0.34066  -0.33700  -0.30012  -0.29837  -0.29408
 Alpha  occ. eigenvalues --   -0.29222  -0.28893  -0.28705  -0.26925  -0.26718
 Alpha  occ. eigenvalues --   -0.26523  -0.26150  -0.23339  -0.23078  -0.22968
 Alpha  occ. eigenvalues --   -0.22605  -0.22402  -0.22282  -0.22084  -0.21324
 Alpha virt. eigenvalues --   -0.09375  -0.07882  -0.04630  -0.04557  -0.04469
 Alpha virt. eigenvalues --   -0.04373  -0.01774  -0.01296  -0.01150  -0.00606
 Alpha virt. eigenvalues --   -0.00524  -0.00186   0.00168   0.00454   0.00530

 Mulliken charges:
               1
     1  C    0.063474
     2  C   -0.019679
     3  C    0.062399
     4  C    0.065450
     5  C    0.061057
     6  C    0.068304
     7  C   -0.192704
     8  C   -0.192552
     9  N   -0.019513
    10  N   -0.019619
    11  N    0.103085
    12  C    0.147082
    13  C    0.040709
    14  C   -0.256539
    15  C    0.058450
    16  C   -0.245835
    17  C    0.016506
    18  C   -0.159159
    19  H    0.165081
    20  C   -0.224607
    21  C   -0.152126
    22  H    0.196845
    23  C   -0.246739
    24  C   -0.146573
    25  H    0.148810
    26  H    0.148017
    27  C   -0.145216
    28  H    0.149459
    29  H    0.147319
    30  H    0.145930
    31  H    0.146059
    32  N    0.239084
    33  C    0.077602
    34  C    0.087753
    35  C   -0.311522
    36  C    0.055736
    37  C   -0.313325
    38  C    0.052079
    39  C   -0.129152
    40  H    0.160090
    41  C   -0.236390
    42  C   -0.128725
    43  H    0.162599
    44  C   -0.234487
    45  C   -0.150739
    46  H    0.148564
    47  H    0.145271
    48  C   -0.152491
    49  H    0.148683
    50  H    0.145262
    51  H    0.144553
    52  H    0.144531
    53  N    0.101854
    54  C    0.045997
    55  C    0.144883
    56  C   -0.244759
    57  C    0.015658
    58  C   -0.255480
    59  C    0.059324
    60  C   -0.151988
    61  H    0.196770
    62  C   -0.245885
    63  C   -0.159424
    64  H    0.164433
    65  C   -0.226331
    66  C   -0.146053
    67  H    0.149303
    68  H    0.147317
    69  C   -0.145305
    70  H    0.148553
    71  H    0.148022
    72  H    0.145991
    73  H    0.145948
    74  N    0.040653
    75  C    0.115038
    76  C    0.113311
    77  C   -0.249675
    78  C    0.014978
    79  C   -0.248447
    80  C    0.017632
    81  C   -0.149648
    82  H    0.177528
    83  C   -0.228689
    84  C   -0.147345
    85  H    0.173399
    86  C   -0.228589
    87  C   -0.150487
    88  H    0.150732
    89  H    0.148992
    90  C   -0.150506
    91  H    0.150993
    92  H    0.148998
    93  H    0.147038
    94  H    0.147115
 Sum of Mulliken charges =  -0.00000

 Dipole moment (field-independent basis, Debye):
    X=             -5.1430    Y=             -0.0377    Z=              0.0030  Tot=              5.1431
 Quadrupole moment (field-independent basis, Debye-Ang):
   XX=           -344.6258   YY=           -356.7727   ZZ=           -344.1702
   XY=             -0.1087   XZ=             -0.0856   YZ=             39.0609

 Normal termination of Gaussian 09 at Fri Jul  1 04:42:22 2022.
