                         Program Version 5.0.2 -  RELEASE  -
|  1> %maxcore 24000
|  2> %pal
|  3>  nprocs= 8
|  4> end
|  5> ! RI-wB2PLYP def2-TZVP def2/J def2-TZVP/C RIJCOSX CPCM TightSCF
|  6> %TDDFT DCORR 1
|  7>    NROOTS   60
|  8>   TDA      FALSE
|  9> END
| 10>
| 11>  %CPCM
| 12>    SMD          TRUE
| 13>    SMDsolvent   "ACETONITRILE"
| 14>  END
| 15>
| 16>
| 17> * xyz 0 1
| 18> C                   0.13708300   -1.17921300    0.31930200
| 19> C                  -0.55557000   -0.00182600   -0.00879400
| 20> C                   0.17541900    1.14900900   -0.35453000
| 21> C                   1.58092900    1.11156100   -0.37592900
| 22> C                   2.27561400   -0.04695700   -0.00771500
| 23> C                   1.54385000   -1.18685600    0.34407400
| 24> C                   2.29711500    2.21798600   -0.89758300
| 25> C                   2.21958000   -2.32286400    0.85557100
| 26> N                   2.88133300    3.11141900   -1.34291000
| 27> N                   2.77150900   -3.24146800    1.29073100
| 28> N                  -0.54323800   -2.34995200    0.66815600
| 29> C                  -1.50614500   -2.48840000    1.67144800
| 30> C                  -0.46523800   -3.55919600   -0.03591300
| 31> C                  -1.86852100   -1.59253500    2.66479500
| 32> C                  -2.06133600   -3.77985600    1.59078400
| 33> C                   0.31174400   -3.88150000   -1.13825200
| 34> C                  -1.39982900   -4.45894200    0.50924100
| 35> C                  -2.85713300   -1.98676600    3.55238400
| 36> H                  -1.39444800   -0.62438900    2.75418400
| 37> C                  -3.04733600   -4.15520300    2.49888900
| 38> C                   0.15766400   -5.14808800   -1.68009800
| 39> H                   1.00342200   -3.17104100   -1.57402000
| 40> C                  -1.53710300   -5.72401500   -0.05534200
| 41> C                  -3.44896500   -3.24908300    3.46604100
| 42> H                  -3.16699900   -1.30238600    4.33238500
| 43> H                  -3.48554400   -5.14437000    2.45065000
| 44> C                  -0.75208900   -6.06227000   -1.14423600
| 45> H                   0.75434000   -5.42893300   -2.53844000
| 46> H                  -2.25480000   -6.42663900    0.34980800
| 47> H                  -4.21790100   -3.52572800    4.17561500
| 48> H                  -0.84662000   -7.04305200   -1.59182800
| 49> N                  -1.95704500    0.03452400    0.02264600
| 50> C                  -2.72329000    0.88714200    0.82077400
| 51> C                  -2.82597400   -0.76917400   -0.71854200
| 52> C                  -2.30390500    1.80349400    1.77277500
| 53> C                  -4.08709800    0.63374500    0.57976800
| 54> C                  -2.53349300   -1.71964500   -1.68518000
| 55> C                  -4.15239800   -0.42587400   -0.38980200
| 56> C                  -3.27936500    2.51716500    2.45073600
| 57> H                  -1.25501600    1.94579900    1.99750400
| 58> C                  -5.04906900    1.35954100    1.27800200
| 59> C                  -3.59784400   -2.37067000   -2.28840100
| 60> H                  -1.51428700   -1.93831100   -1.97547100
| 61> C                  -5.20460700   -1.09027000   -1.01444600
| 62> C                  -4.63782200    2.30702700    2.20026800
| 63> H                  -2.97801700    3.24468400    3.19418500
| 64> H                  -6.10241500    1.17673100    1.10476800
| 65> C                  -4.91982400   -2.06831100   -1.95218400
| 66> H                  -3.39544300   -3.12362200   -3.04003600
| 67> H                  -6.22943700   -0.83797800   -0.77143200
| 68> H                  -5.37474200    2.88169000    2.74614800
| 69> H                  -5.72776900   -2.59662700   -2.44142400
| 70> N                  -0.47106700    2.33134400   -0.72615700
| 71> C                  -0.35292600    3.56244000   -0.06641300
| 72> C                  -1.43756700    2.46289400   -1.72746400
| 73> C                   0.44524700    3.90427700    1.01462900
| 74> C                  -1.26881200    4.46734500   -0.63442000
| 75> C                  -1.82862900    1.54484800   -2.68876600
| 76> C                  -1.95673600    3.77063400   -1.68793100
| 77> C                   0.32982100    5.19250100    1.51297200
| 78> H                   1.12481000    3.19252600    1.46669800
| 79> C                  -1.36739400    5.75468000   -0.11368900
| 80> C                  -2.81013900    1.93585500   -3.58559600
| 81> H                  -1.38090900    0.56179700   -2.74824300
| 82> C                  -2.93667200    4.14252200   -2.60424800
| 83> C                  -0.56251600    6.11043800    0.95479100
| 84> H                   0.94418100    5.48810100    2.35372100
| 85> H                  -2.07040300    6.46128200   -0.53718300
| 86> C                  -3.36736500    3.21586500   -3.53881100
| 87> H                  -3.14211500    1.23454300   -4.34107000
| 88> H                  -3.34792300    5.14420300   -2.58711500
| 89> H                  -0.62667900    7.10857500    1.36808600
| 90> H                  -4.13204300    3.48958200   -4.25412000
| 91> N                   3.67041100   -0.05888600    0.01233800
| 92> C                   4.49945100   -0.92778800   -0.70614300
| 93> C                   4.47884200    0.81349800    0.75011600
| 94> C                   4.15614100   -1.92990900   -1.60095800
| 95> C                   5.84035900   -0.60371400   -0.42471300
| 96> C                   4.10784700    1.81357600    1.63581300
| 97> C                   5.82726700    0.49749600    0.50011600
| 98> C                   5.18973100   -2.63091600   -2.20169000
| 99> H                   3.12314600   -2.15872200   -1.82982700
|100> C                   6.85968100   -1.32161400   -1.04402200
|101> C                   5.12221200    2.52335000    2.25843000
|102> H                   3.06808600    2.03515200    1.84063800
|103> C                   6.82728100    1.22378000    1.14126400
|104> C                   6.52640500   -2.33537600   -1.92535500
|105> H                   4.95141700   -3.42150100   -2.90157100
|106> H                   7.89609600   -1.08290000   -0.83981100
|107> C                   6.46688700    2.23720500    2.01228600
|108> H                   4.86241600    3.31320900    2.95145900
|109> H                   7.86979500    0.99261000    0.96072100
|110> H                   7.30821000   -2.90327700   -2.41275600
|111> H                   7.23355000    2.81189600    2.51552600
|112> *
|113>
|114>
|115>                          ****END OF INPUT****

CARTESIAN COORDINATES (ANGSTROEM)
---------------------------------
  C      0.137083   -1.179213    0.319302
  C     -0.555570   -0.001826   -0.008794
  C      0.175419    1.149009   -0.354530
  C      1.580929    1.111561   -0.375929
  C      2.275614   -0.046957   -0.007715
  C      1.543850   -1.186856    0.344074
  C      2.297115    2.217986   -0.897583
  C      2.219580   -2.322864    0.855571
  N      2.881333    3.111419   -1.342910
  N      2.771509   -3.241468    1.290731
  N     -0.543238   -2.349952    0.668156
  C     -1.506145   -2.488400    1.671448
  C     -0.465238   -3.559196   -0.035913
  C     -1.868521   -1.592535    2.664795
  C     -2.061336   -3.779856    1.590784
  C      0.311744   -3.881500   -1.138252
  C     -1.399829   -4.458942    0.509241
  C     -2.857133   -1.986766    3.552384
  H     -1.394448   -0.624389    2.754184
  C     -3.047336   -4.155203    2.498889
  C      0.157664   -5.148088   -1.680098
  H      1.003422   -3.171041   -1.574020
  C     -1.537103   -5.724015   -0.055342
  C     -3.448965   -3.249083    3.466041
  H     -3.166999   -1.302386    4.332385
  H     -3.485544   -5.144370    2.450650
  C     -0.752089   -6.062270   -1.144236
  H      0.754340   -5.428933   -2.538440
  H     -2.254800   -6.426639    0.349808
  H     -4.217901   -3.525728    4.175615
  H     -0.846620   -7.043052   -1.591828
  N     -1.957045    0.034524    0.022646
  C     -2.723290    0.887142    0.820774
  C     -2.825974   -0.769174   -0.718542
  C     -2.303905    1.803494    1.772775
  C     -4.087098    0.633745    0.579768
  C     -2.533493   -1.719645   -1.685180
  C     -4.152398   -0.425874   -0.389802
  C     -3.279365    2.517165    2.450736
  H     -1.255016    1.945799    1.997504
  C     -5.049069    1.359541    1.278002
  C     -3.597844   -2.370670   -2.288401
  H     -1.514287   -1.938311   -1.975471
  C     -5.204607   -1.090270   -1.014446
  C     -4.637822    2.307027    2.200268
  H     -2.978017    3.244684    3.194185
  H     -6.102415    1.176731    1.104768
  C     -4.919824   -2.068311   -1.952184
  H     -3.395443   -3.123622   -3.040036
  H     -6.229437   -0.837978   -0.771432
  H     -5.374742    2.881690    2.746148
  H     -5.727769   -2.596627   -2.441424
  N     -0.471067    2.331344   -0.726157
  C     -0.352926    3.562440   -0.066413
  C     -1.437567    2.462894   -1.727464
  C      0.445247    3.904277    1.014629
  C     -1.268812    4.467345   -0.634420
  C     -1.828629    1.544848   -2.688766
  C     -1.956736    3.770634   -1.687931
  C      0.329821    5.192501    1.512972
  H      1.124810    3.192526    1.466698
  C     -1.367394    5.754680   -0.113689
  C     -2.810139    1.935855   -3.585596
  H     -1.380909    0.561797   -2.748243
  C     -2.936672    4.142522   -2.604248
  C     -0.562516    6.110438    0.954791
  H      0.944181    5.488101    2.353721
  H     -2.070403    6.461282   -0.537183
  C     -3.367365    3.215865   -3.538811
  H     -3.142115    1.234543   -4.341070
  H     -3.347923    5.144203   -2.587115
  H     -0.626679    7.108575    1.368086
  H     -4.132043    3.489582   -4.254120
  N      3.670411   -0.058886    0.012338
  C      4.499451   -0.927788   -0.706143
  C      4.478842    0.813498    0.750116
  C      4.156141   -1.929909   -1.600958
  C      5.840359   -0.603714   -0.424713
  C      4.107847    1.813576    1.635813
  C      5.827267    0.497496    0.500116
  C      5.189731   -2.630916   -2.201690
  H      3.123146   -2.158722   -1.829827
  C      6.859681   -1.321614   -1.044022
  C      5.122212    2.523350    2.258430
  H      3.068086    2.035152    1.840638
  C      6.827281    1.223780    1.141264
  C      6.526405   -2.335376   -1.925355
  H      4.951417   -3.421501   -2.901571
  H      7.896096   -1.082900   -0.839811
  C      6.466887    2.237205    2.012286
  H      4.862416    3.313209    2.951459
  H      7.869795    0.992610    0.960721
  H      7.308210   -2.903277   -2.412756
  H      7.233550    2.811896    2.515526

 Total Charge           Charge          ....    0
 Multiplicity           Mult            ....    1
 Number of Electrons    NEL             ....  410
 Basis Dimension        Dim             .... 2114

ORBITAL ENERGIES
----------------

  NO   OCC          E(Eh)            E(eV)
   0   2.0000     -14.976756      -407.5382
   1   2.0000     -14.974000      -407.4633
   2   2.0000     -14.973709      -407.4553
   3   2.0000     -14.968170      -407.3046
   4   2.0000     -14.937387      -406.4670
   5   2.0000     -14.937289      -406.4643
   6   2.0000     -10.799780      -293.8769
   7   2.0000     -10.796916      -293.7990
   8   2.0000     -10.796841      -293.7970
   9   2.0000     -10.777824      -293.2795
  10   2.0000     -10.764095      -292.9059
  11   2.0000     -10.763939      -292.9017
  12   2.0000     -10.757754      -292.7334
  13   2.0000     -10.757691      -292.7316
  14   2.0000     -10.740517      -292.2643
  15   2.0000     -10.740242      -292.2568
  16   2.0000     -10.739301      -292.2312
  17   2.0000     -10.739181      -292.2280
  18   2.0000     -10.738342      -292.2052
  19   2.0000     -10.738162      -292.2003
  20   2.0000     -10.735660      -292.1322
  21   2.0000     -10.735229      -292.1204
  22   2.0000     -10.698716      -291.1269
  23   2.0000     -10.698087      -291.1098
  24   2.0000     -10.697898      -291.1046
  25   2.0000     -10.697811      -291.1022
  26   2.0000     -10.697270      -291.0875
  27   2.0000     -10.697184      -291.0852
  28   2.0000     -10.695565      -291.0411
  29   2.0000     -10.694943      -291.0242
  30   2.0000     -10.693921      -290.9964
  31   2.0000     -10.693799      -290.9931
  32   2.0000     -10.693713      -290.9907
  33   2.0000     -10.693683      -290.9899
  34   2.0000     -10.693651      -290.9890
  35   2.0000     -10.693649      -290.9890
  36   2.0000     -10.693037      -290.9723
  37   2.0000     -10.693006      -290.9715
  38   2.0000     -10.692977      -290.9707
  39   2.0000     -10.692961      -290.9703
  40   2.0000     -10.692201      -290.9496
  41   2.0000     -10.692038      -290.9451
  42   2.0000     -10.691807      -290.9388
  43   2.0000     -10.691802      -290.9387
  44   2.0000     -10.691755      -290.9375
  45   2.0000     -10.691730      -290.9368
  46   2.0000     -10.691693      -290.9358
  47   2.0000     -10.691681      -290.9354
  48   2.0000     -10.690552      -290.9047
  49   2.0000     -10.690551      -290.9047
  50   2.0000     -10.690531      -290.9041
  51   2.0000     -10.690359      -290.8995
  52   2.0000     -10.689615      -290.8792
  53   2.0000     -10.689402      -290.8734
  54   2.0000     -10.684496      -290.7399
  55   2.0000     -10.684416      -290.7377
  56   2.0000     -10.684189      -290.7316
  57   2.0000     -10.684184      -290.7314
  58   2.0000     -10.684078      -290.7285
  59   2.0000     -10.683983      -290.7259
  60   2.0000     -10.682858      -290.6953
  61   2.0000     -10.682666      -290.6901
  62   2.0000      -1.251433       -34.0532
  63   2.0000      -1.237668       -33.6786
  64   2.0000      -1.233508       -33.5655
  65   2.0000      -1.215758       -33.0825
  66   2.0000      -1.150136       -31.2968
  67   2.0000      -1.145372       -31.1672
  68   2.0000      -1.123678       -30.5768
  69   2.0000      -1.086411       -29.5628
  70   2.0000      -1.082873       -29.4665
  71   2.0000      -1.067639       -29.0519
  72   2.0000      -1.066663       -29.0254
  73   2.0000      -1.066167       -29.0119
  74   2.0000      -1.065099       -28.9828
  75   2.0000      -1.063415       -28.9370
  76   2.0000      -1.055031       -28.7088
  77   2.0000      -1.022388       -27.8206
  78   2.0000      -1.014596       -27.6086
  79   2.0000      -0.990517       -26.9533
  80   2.0000      -0.986124       -26.8338
  81   2.0000      -0.982902       -26.7461
  82   2.0000      -0.970785       -26.4164
  83   2.0000      -0.955934       -26.0123
  84   2.0000      -0.955452       -25.9992
  85   2.0000      -0.954744       -25.9799
  86   2.0000      -0.952662       -25.9233
  87   2.0000      -0.939287       -25.5593
  88   2.0000      -0.936492       -25.4832
  89   2.0000      -0.929877       -25.3033
  90   2.0000      -0.916194       -24.9309
  91   2.0000      -0.915667       -24.9166
  92   2.0000      -0.915345       -24.9078
  93   2.0000      -0.913320       -24.8527
  94   2.0000      -0.909726       -24.7549
  95   2.0000      -0.868758       -23.6401
  96   2.0000      -0.864128       -23.5141
  97   2.0000      -0.834197       -22.6996
  98   2.0000      -0.826414       -22.4879
  99   2.0000      -0.813527       -22.1372
 100   2.0000      -0.813020       -22.1234
 101   2.0000      -0.793561       -21.5939
 102   2.0000      -0.787722       -21.4350
 103   2.0000      -0.787447       -21.4275
 104   2.0000      -0.782940       -21.3049
 105   2.0000      -0.781073       -21.2541
 106   2.0000      -0.780172       -21.2295
 107   2.0000      -0.760877       -20.7045
 108   2.0000      -0.756869       -20.5955
 109   2.0000      -0.751324       -20.4446
 110   2.0000      -0.749077       -20.3834
 111   2.0000      -0.748258       -20.3611
 112   2.0000      -0.746071       -20.3016
 113   2.0000      -0.731441       -19.9035
 114   2.0000      -0.719202       -19.5705
 115   2.0000      -0.711794       -19.3689
 116   2.0000      -0.692884       -18.8543
 117   2.0000      -0.691064       -18.8048
 118   2.0000      -0.680145       -18.5077
 119   2.0000      -0.677136       -18.4258
 120   2.0000      -0.675958       -18.3938
 121   2.0000      -0.671910       -18.2836
 122   2.0000      -0.668466       -18.1899
 123   2.0000      -0.666167       -18.1273
 124   2.0000      -0.663088       -18.0435
 125   2.0000      -0.658548       -17.9200
 126   2.0000      -0.642297       -17.4778
 127   2.0000      -0.641441       -17.4545
 128   2.0000      -0.616802       -16.7840
 129   2.0000      -0.613935       -16.7060
 130   2.0000      -0.612834       -16.6761
 131   2.0000      -0.610565       -16.6143
 132   2.0000      -0.610458       -16.6114
 133   2.0000      -0.604880       -16.4596
 134   2.0000      -0.603190       -16.4136
 135   2.0000      -0.602639       -16.3987
 136   2.0000      -0.602213       -16.3870
 137   2.0000      -0.593397       -16.1472
 138   2.0000      -0.592454       -16.1215
 139   2.0000      -0.586509       -15.9597
 140   2.0000      -0.583685       -15.8829
 141   2.0000      -0.581253       -15.8167
 142   2.0000      -0.580550       -15.7976
 143   2.0000      -0.577399       -15.7118
 144   2.0000      -0.575520       -15.6607
 145   2.0000      -0.573582       -15.6079
 146   2.0000      -0.573035       -15.5931
 147   2.0000      -0.572321       -15.5737
 148   2.0000      -0.570614       -15.5272
 149   2.0000      -0.568758       -15.4767
 150   2.0000      -0.567563       -15.4442
 151   2.0000      -0.564201       -15.3527
 152   2.0000      -0.561193       -15.2708
 153   2.0000      -0.558494       -15.1974
 154   2.0000      -0.558131       -15.1875
 155   2.0000      -0.556985       -15.1563
 156   2.0000      -0.554881       -15.0991
 157   2.0000      -0.548641       -14.9293
 158   2.0000      -0.544408       -14.8141
 159   2.0000      -0.528654       -14.3854
 160   2.0000      -0.505413       -13.7530
 161   2.0000      -0.503911       -13.7121
 162   2.0000      -0.502180       -13.6650
 163   2.0000      -0.500881       -13.6297
 164   2.0000      -0.500795       -13.6273
 165   2.0000      -0.500492       -13.6191
 166   2.0000      -0.500052       -13.6071
 167   2.0000      -0.499076       -13.5806
 168   2.0000      -0.498757       -13.5719
 169   2.0000      -0.497354       -13.5337
 170   2.0000      -0.497117       -13.5272
 171   2.0000      -0.491658       -13.3787
 172   2.0000      -0.488302       -13.2874
 173   2.0000      -0.484306       -13.1786
 174   2.0000      -0.483280       -13.1507
 175   2.0000      -0.476274       -12.9601
 176   2.0000      -0.475491       -12.9388
 177   2.0000      -0.472597       -12.8600
 178   2.0000      -0.472532       -12.8582
 179   2.0000      -0.471807       -12.8385
 180   2.0000      -0.469505       -12.7759
 181   2.0000      -0.469170       -12.7668
 182   2.0000      -0.468582       -12.7508
 183   2.0000      -0.468290       -12.7428
 184   2.0000      -0.465855       -12.6766
 185   2.0000      -0.463966       -12.6252
 186   2.0000      -0.455954       -12.4071
 187   2.0000      -0.402406       -10.9500
 188   2.0000      -0.400235       -10.8909
 189   2.0000      -0.396732       -10.7956
 190   2.0000      -0.394531       -10.7357
 191   2.0000      -0.382770       -10.4157
 192   2.0000      -0.381702       -10.3867
 193   2.0000      -0.364701        -9.9240
 194   2.0000      -0.361807        -9.8453
 195   2.0000      -0.359589        -9.7849
 196   2.0000      -0.355297        -9.6681
 197   2.0000      -0.315566        -8.5870
 198   2.0000      -0.314035        -8.5453
 199   2.0000      -0.310242        -8.4421
 200   2.0000      -0.309619        -8.4252
 201   2.0000      -0.308127        -8.3846
 202   2.0000      -0.306782        -8.3480
 203   2.0000      -0.300479        -8.1765
 204   2.0000      -0.294042        -8.0013
 205   0.0000      -0.001615        -0.0440
 206   0.0000       0.017311         0.4710
 207   0.0000       0.044359         1.2071
 208   0.0000       0.045173         1.2292
 209   0.0000       0.046482         1.2648

MULLIKEN ATOMIC CHARGES
-----------------------
   0 C :   -0.005326
   1 C :    0.057966
   2 C :    0.001637
   3 C :    0.048518
   4 C :    0.145549
   5 C :    0.070357
   6 C :   -0.172767
   7 C :   -0.172921
   8 N :   -0.080519
   9 N :   -0.080523
  10 N :    0.074457
  11 C :    0.161412
  12 C :    0.069010
  13 C :   -0.297091
  14 C :    0.022130
  15 C :   -0.282244
  16 C :   -0.044507
  17 C :   -0.169402
  18 H :    0.194359
  19 C :   -0.208422
  20 C :   -0.163451
  21 H :    0.217922
  22 C :   -0.244133
  23 C :   -0.196366
  24 H :    0.181512
  25 H :    0.184838
  26 C :   -0.185800
  27 H :    0.181746
  28 H :    0.184286
  29 H :    0.175846
  30 H :    0.177961
  31 N :    0.249594
  32 C :    0.085576
  33 C :    0.098889
  34 C :   -0.346802
  35 C :    0.013601
  36 C :   -0.359971
  37 C :    0.015764
  38 C :   -0.151202
  39 H :    0.196203
  40 C :   -0.225858
  41 C :   -0.142824
  42 H :    0.200859
  43 C :   -0.224062
  44 C :   -0.190811
  45 H :    0.180416
  46 H :    0.182369
  47 C :   -0.194148
  48 H :    0.180596
  49 H :    0.181977
  50 H :    0.175767
  51 H :    0.175439
  52 N :    0.082731
  53 C :    0.070055
  54 C :    0.156803
  55 C :   -0.275905
  56 C :   -0.038339
  57 C :   -0.293187
  58 C :    0.024473
  59 C :   -0.164698
  60 H :    0.216480
  61 C :   -0.241547
  62 C :   -0.174846
  63 H :    0.196119
  64 C :   -0.216490
  65 C :   -0.187111
  66 H :    0.181395
  67 H :    0.183804
  68 C :   -0.189749
  69 H :    0.181140
  70 H :    0.185053
  71 H :    0.177507
  72 H :    0.176691
  73 N :    0.003111
  74 C :    0.126993
  75 C :    0.130538
  76 C :   -0.281867
  77 C :   -0.021233
  78 C :   -0.283145
  79 C :   -0.022141
  80 C :   -0.160515
  81 H :    0.212131
  82 C :   -0.225033
  83 C :   -0.164949
  84 H :    0.214717
  85 C :   -0.224042
  86 C :   -0.196054
  87 H :    0.182391
  88 H :    0.183903
  89 C :   -0.194286
  90 H :    0.182328
  91 H :    0.184997
  92 H :    0.177074
  93 H :    0.177296
Sum of atomic charges:    0.0000000

LOEWDIN ATOMIC CHARGES
----------------------
   0 C :   -0.041970
   1 C :   -0.079423
   2 C :   -0.043170
   3 C :   -0.070836
   4 C :   -0.044103
   5 C :   -0.070191
   6 C :   -0.122867
   7 C :   -0.122648
   8 N :    0.033557
   9 N :    0.033374
  10 N :    0.320489
  11 C :   -0.114567
  12 C :   -0.120747
  13 C :   -0.112767
  14 C :   -0.087098
  15 C :   -0.124196
  16 C :   -0.088736
  17 C :   -0.142042
  18 H :    0.163844
  19 C :   -0.101123
  20 C :   -0.141454
  21 H :    0.163617
  22 C :   -0.099366
  23 C :   -0.161624
  24 H :    0.157302
  25 H :    0.160091
  26 C :   -0.161553
  27 H :    0.157226
  28 H :    0.160437
  29 H :    0.154181
  30 H :    0.154338
  31 N :    0.318044
  32 C :   -0.122827
  33 C :   -0.122383
  34 C :   -0.118429
  35 C :   -0.089257
  36 C :   -0.117981
  37 C :   -0.089358
  38 C :   -0.143400
  39 H :    0.163712
  40 C :   -0.101768
  41 C :   -0.143496
  42 H :    0.163670
  43 C :   -0.101764
  44 C :   -0.164189
  45 H :    0.156896
  46 H :    0.159607
  47 C :   -0.164515
  48 H :    0.156884
  49 H :    0.159650
  50 H :    0.153588
  51 H :    0.153512
  52 N :    0.320941
  53 C :   -0.119977
  54 C :   -0.114120
  55 C :   -0.123978
  56 C :   -0.088528
  57 C :   -0.112803
  58 C :   -0.086736
  59 C :   -0.141509
  60 H :    0.163093
  61 C :   -0.099451
  62 C :   -0.142045
  63 H :    0.163936
  64 C :   -0.101145
  65 C :   -0.161423
  66 H :    0.157275
  67 H :    0.160427
  68 C :   -0.161330
  69 H :    0.157274
  70 H :    0.160070
  71 H :    0.154353
  72 H :    0.154227
  73 N :    0.319995
  74 C :   -0.112538
  75 C :   -0.112775
  76 C :   -0.121295
  77 C :   -0.086171
  78 C :   -0.121210
  79 C :   -0.086130
  80 C :   -0.141463
  81 H :    0.163086
  82 C :   -0.099357
  83 C :   -0.141309
  84 H :    0.162948
  85 C :   -0.099189
  86 C :   -0.161140
  87 H :    0.157301
  88 H :    0.160573
  89 C :   -0.160965
  90 H :    0.157329
  91 H :    0.160555
  92 H :    0.154503
  93 H :    0.154525

  Mayer bond orders larger than 0.100000
B(  0-C ,  1-C ) :   1.4992 B(  0-C ,  2-C ) :   0.1030 B(  0-C ,  5-C ) :   1.3158
B(  0-C , 10-N ) :   1.0628 B(  1-C ,  2-C ) :   1.4871 B(  1-C , 31-N ) :   1.0874
B(  2-C ,  3-C ) :   1.3072 B(  2-C , 52-N ) :   1.0720 B(  3-C ,  4-C ) :   1.3673
B(  3-C ,  6-C ) :   0.9769 B(  4-C ,  5-C ) :   1.3754 B(  4-C , 73-N ) :   1.1141
B(  5-C ,  7-C ) :   0.9721 B(  6-C ,  8-N ) :   3.0563 B(  7-C ,  9-N ) :   3.0556
B( 10-N , 11-C ) :   1.0320 B( 10-N , 12-C ) :   1.0316 B( 11-C , 13-C ) :   1.3704
B( 11-C , 14-C ) :   1.3218 B( 12-C , 15-C ) :   1.3921 B( 12-C , 16-C ) :   1.3294
B( 13-C , 17-C ) :   1.4427 B( 13-C , 18-H ) :   0.9641 B( 14-C , 16-C ) :   1.0331
B( 14-C , 19-C ) :   1.3231 B( 15-C , 20-C ) :   1.4321 B( 15-C , 21-H ) :   0.9401
B( 16-C , 22-C ) :   1.3362 B( 17-C , 23-C ) :   1.3393 B( 17-C , 24-H ) :   0.9767
B( 19-C , 23-C ) :   1.4665 B( 19-C , 25-H ) :   0.9638 B( 20-C , 26-C ) :   1.3568
B( 20-C , 27-H ) :   0.9711 B( 22-C , 26-C ) :   1.4738 B( 22-C , 28-H ) :   0.9670
B( 23-C , 29-H ) :   0.9880 B( 26-C , 30-H ) :   0.9811 B( 31-N , 32-C ) :   0.9747
B( 31-N , 33-C ) :   0.9809 B( 32-C , 34-C ) :   1.3822 B( 32-C , 35-C ) :   1.3198
B( 33-C , 36-C ) :   1.3836 B( 33-C , 37-C ) :   1.3138 B( 34-C , 38-C ) :   1.4291
B( 34-C , 39-H ) :   0.9818 B( 35-C , 37-C ) :   1.0499 B( 35-C , 40-C ) :   1.3280
B( 36-C , 41-C ) :   1.4310 B( 36-C , 42-H ) :   0.9767 B( 37-C , 43-C ) :   1.3191
B( 38-C , 44-C ) :   1.3429 B( 38-C , 45-H ) :   0.9761 B( 40-C , 44-C ) :   1.4730
B( 40-C , 46-H ) :   0.9639 B( 41-C , 47-C ) :   1.3431 B( 41-C , 48-H ) :   0.9760
B( 43-C , 47-C ) :   1.4713 B( 43-C , 49-H ) :   0.9674 B( 44-C , 50-H ) :   0.9853
B( 47-C , 51-H ) :   0.9855 B( 52-N , 53-C ) :   1.0319 B( 52-N , 54-C ) :   1.0314
B( 53-C , 55-C ) :   1.3896 B( 53-C , 56-C ) :   1.3358 B( 54-C , 57-C ) :   1.3718
B( 54-C , 58-C ) :   1.3319 B( 55-C , 59-C ) :   1.4362 B( 55-C , 60-H ) :   0.9382
B( 56-C , 58-C ) :   1.0305 B( 56-C , 61-C ) :   1.3350 B( 57-C , 62-C ) :   1.4418
B( 57-C , 63-H ) :   0.9650 B( 58-C , 64-C ) :   1.3241 B( 59-C , 65-C ) :   1.3521
B( 59-C , 66-H ) :   0.9722 B( 61-C , 65-C ) :   1.4720 B( 61-C , 67-H ) :   0.9662
B( 62-C , 68-C ) :   1.3417 B( 62-C , 69-H ) :   0.9766 B( 64-C , 68-C ) :   1.4698
B( 64-C , 70-H ) :   0.9626 B( 65-C , 71-H ) :   0.9830 B( 68-C , 72-H ) :   0.9857
B( 73-N , 74-C ) :   1.0600 B( 73-N , 75-C ) :   1.0583 B( 74-C , 76-C ) :   1.3817
B( 74-C , 77-C ) :   1.3380 B( 75-C , 78-C ) :   1.3756 B( 75-C , 79-C ) :   1.3415
B( 76-C , 80-C ) :   1.4542 B( 76-C , 81-H ) :   0.9338 B( 77-C , 79-C ) :   1.0616
B( 77-C , 82-C ) :   1.3223 B( 78-C , 83-C ) :   1.4526 B( 78-C , 84-H ) :   0.9341
B( 79-C , 85-C ) :   1.3271 B( 80-C , 86-C ) :   1.3519 B( 80-C , 87-H ) :   0.9710
B( 82-C , 86-C ) :   1.4649 B( 82-C , 88-H ) :   0.9696 B( 83-C , 89-C ) :   1.3545
B( 83-C , 90-H ) :   0.9706 B( 85-C , 89-C ) :   1.4691 B( 85-C , 91-H ) :   0.9660
B( 86-C , 92-H ) :   0.9836 B( 89-C , 93-H ) :   0.9828

MP2 TOTAL ENERGY:    -2477.822821451 Eh

-----------------------------------------------------------------------------
         ABSORPTION SPECTRUM VIA TRANSITION ELECTRIC DIPOLE MOMENTS
-----------------------------------------------------------------------------
State   Energy    Wavelength  fosc         T2        TX        TY        TZ
        (cm-1)      (nm)                 (au**2)    (au)      (au)      (au)
-----------------------------------------------------------------------------
   1   28495.7    350.9   0.220725681   2.55006  -0.03083   1.49933  -0.54874
   2   31355.6    318.9   0.004842669   0.05084  -0.22525  -0.00872  -0.00567
   3   31995.5    312.5   0.611184004   6.28867  -2.50770  -0.00163   0.00978
   4   32266.0    309.9   0.112404938   1.14687  -0.04973   1.03684  -0.26336
   5   35459.0    282.0   0.007492017   0.06956  -0.25298   0.07399   0.00908
   6   36321.5    275.3   0.111901356   1.01426   0.14895   0.28413  -0.95464
   7   36361.6    275.0   0.114013493   1.03226  -1.00068   0.12097  -0.12753
   8   38257.5    261.4   0.059057619   0.50820  -0.30347  -0.56564  -0.31008
   9   36393.1    274.8   0.006802301   0.06153  -0.14829   0.15517   0.12436
  10   38601.1    259.1   0.108670432   0.92680   0.93338  -0.08096  -0.22145
  11   38348.9    260.8   0.018755824   0.16101   0.31640   0.07971   0.23356
  12   38881.4    257.2   0.757074840   6.41022  -0.04304  -1.63494  -1.93270
  13   34501.5    289.8   0.020883465   0.19927   0.08756   0.31070   0.30833
  14   36271.2    275.7   0.102216776   0.92776  -0.49102  -0.82582   0.06850
  15   36454.1    274.3   0.167394819   1.51172  -0.05169  -1.22508   0.09072
  16   36488.9    274.1   0.105413668   0.95107   0.70393  -0.67440   0.02694
  17   37407.3    267.3   0.021466234   0.18892  -0.02128  -0.18896   0.39085
  18   39565.3    252.7   0.037371823   0.31096   0.00062  -0.53232  -0.16613
  19   37408.9    267.3   0.008369893   0.07366   0.26831  -0.01645  -0.03738
  20   41974.6    238.2   0.044950961   0.35256   0.08949   0.33219   0.48394
  21   39521.0    253.0   0.010344783   0.08617   0.28310  -0.05919  -0.05024
  22   38660.5    258.7   0.005356741   0.04562  -0.21236  -0.02084  -0.00917
  23   43093.2    232.1   0.060353901   0.46108  -0.01046  -0.45773  -0.50145
  24   42895.2    233.1   0.087254568   0.66966   0.81442  -0.02403  -0.07621
  25   44539.2    224.5   0.151883454   1.12265  -1.05952   0.00688   0.00327
  26   44002.0    227.3   0.086233185   0.64518  -0.08425   0.61130   0.51419
  27   42766.7    233.8   0.206819795   1.59207  -0.05050  -0.61740  -1.09925
  28   43877.8    227.9   0.420798004   3.15722   0.00978  -1.77308   0.11533
  29   45130.1    221.6   0.055777991   0.40689   0.16829   0.28450   0.54555
  30   45961.3    217.6   0.015516516   0.11114  -0.30232   0.01076   0.14011
  31   45307.8    220.7   0.508548665   3.69517   1.91625   0.15191   0.00958
  32   47529.1    210.4   0.527714880   3.65524   0.05113   1.52127  -1.15687
  33   46616.3    214.5   0.281689442   1.98934   1.39423   0.16605   0.13377
  34   47140.4    212.1   0.092468681   0.64577   0.16959  -0.58614  -0.52293
  35   47643.6    209.9   0.620379290   4.28675   2.06792  -0.08328   0.05951
  36   47056.1    212.5   2.306570430  16.13712   0.03716  -2.52367  -3.12520
  37   47690.0    209.7   0.017123900   0.11821  -0.29241  -0.13640  -0.11873
  38   45754.8    218.6   1.056946670   7.60487  -0.04485   2.26888   1.56685
  39   49581.8    201.7   0.011732570   0.07790  -0.26277  -0.07108  -0.06166
  40   48566.1    205.9   0.322724658   2.18763   0.60087   1.24268  -0.53135
  41   48993.3    204.1   0.643513783   4.32411   2.03969  -0.35565   0.19306
  42   49073.5    203.8   0.067917403   0.45563   0.10658  -0.66619  -0.02139
  43   49334.9    202.7   0.040107207   0.26764   0.51182   0.07089  -0.02555
  44   48410.1    206.6   0.038672629   0.26299  -0.46886   0.20626   0.02494
  45   47658.1    209.8   0.224146278   1.54835  -0.23920  -1.20724  -0.18360
  46   48388.5    206.7   0.030562409   0.20793  -0.41914   0.14908   0.10012
  47   49225.7    203.1   0.118115738   0.78993   0.02297   0.84490   0.27487
  48   49018.1    204.0   0.263503155   1.76972  -1.32918  -0.01779  -0.05194
  49   50733.1    197.1   0.011983344   0.07776  -0.18351   0.14240   0.15430
  50   50335.9    198.7   0.001172836   0.00767   0.05793   0.05199   0.04014
  51   51652.0    193.6   0.001357364   0.00865   0.08886  -0.00282  -0.02734
  52   50918.2    196.4   0.027041290   0.17484  -0.20028   0.13926   0.33961
  53   50397.0    198.4   0.053063027   0.34663   0.57177  -0.14011   0.00885
  54   51486.3    194.2   0.045033408   0.28795  -0.20756  -0.22426  -0.44111
  55   50135.4    199.5   0.022207862   0.14583   0.29944   0.16864  -0.16650
  56   50494.8    198.0   0.024129990   0.15732   0.38236  -0.01295   0.10467
  57   51529.3    194.1   0.026737982   0.17082   0.00596   0.29448   0.28995
  58   51925.6    192.6   0.233856585   1.48267  -0.02434   1.00503   0.68701
  59   50848.0    196.7   0.012778952   0.08274   0.09110  -0.24973  -0.10987
  60   51715.4    193.4   0.009101377   0.05794  -0.14677  -0.11811  -0.14982

FINAL SINGLE POINT ENERGY     -2474.771063492130

DIPOLE MOMENT
-------------
                                X             Y             Z
Electronic contribution:     10.29969      -0.29873      -0.16457
Nuclear contribution   :    -12.16803       0.34345       0.17306
                        -----------------------------------------
Total Dipole Moment    :     -1.86834       0.04472       0.00849
                        -----------------------------------------
Magnitude (a.u.)       :      1.86889
Magnitude (Debye)      :      4.75034

Rotational constants in cm-1:     0.001908     0.001510     0.001076
Rotational constants in MHz :    57.202954    45.270471    32.244588

                             ****ORCA TERMINATED NORMALLY****
TOTAL RUN TIME: 2 days 16 hours 5 minutes 6 seconds 459 msec
