 Gaussian 09, Revision E.01,
 Gaussian 09:  ES64L-G09RevE.01 30-Nov-2015

 ----------------------------------------------------------------------
 #p PBEPBE/def2TZVP td=(NStates=50) int=ultrafine scrf=(SMD,solvent=Ace
 tonitrile) EmpiricalDispersion=GD3BJ
 ----------------------------------------------------------------------

 -----
 Title
 -----
 Symbolic Z-matrix:
 Charge =  0 Multiplicity = 1

                         Standard orientation:
 ---------------------------------------------------------------------
 Center     Atomic      Atomic             Coordinates (Angstroms)
 Number     Number       Type             X           Y           Z
 ---------------------------------------------------------------------
      1          6           0       -0.128667    1.180066    0.319796
      2          6           0        0.579910    0.001814   -0.009680
      3          6           0       -0.145944   -1.163319   -0.353380
      4          6           0       -1.560225   -1.133178   -0.388333
      5          6           0       -2.269771    0.022627   -0.010290
      6          6           0       -1.543483    1.170949    0.356024
      7          6           0       -2.269017   -2.239954   -0.932205
      8          6           0       -2.233287    2.293372    0.892217
      9          7           0       -2.853048   -3.131636   -1.403201
     10          7           0       -2.801245    3.199304    1.355606
     11          7           0        0.538161    2.365821    0.658121
     12          6           0        1.481365    2.535026    1.685549
     13          6           0        0.427050    3.575449   -0.055479
     14          6           0        1.862948    1.646563    2.690283
     15          6           0        1.991640    3.858423    1.616448
     16          6           0       -0.346711    3.872136   -1.177979
     17          6           0        1.324613    4.516556    0.511869
     18          6           0        2.819358    2.085378    3.607419
     19          1           0        1.432932    0.648943    2.767929
     20          6           0        2.944994    4.277217    2.553004
     21          6           0       -0.227673    5.153545   -1.719478
     22          1           0       -1.012333    3.135775   -1.630130
     23          6           0        1.427958    5.794190   -0.052724
     24          6           0        3.362294    3.380773    3.536778
     25          1           0        3.145201    1.406332    4.397259
     26          1           0        3.347854    5.290983    2.514130
     27          6           0        0.644796    6.106150   -1.163716
     28          1           0       -0.824569    5.415338   -2.594774
     29          1           0        2.117630    6.528346    0.367929
     30          1           0        4.108696    3.690418    4.270081
     31          1           0        0.712833    7.098114   -1.613208
     32          7           0        1.985798   -0.015811    0.012213
     33          6           0        2.777970   -0.848509    0.821112
     34          6           0        2.833370    0.791646   -0.765007
     35          6           0        2.389091   -1.765720    1.797527
     36          6           0        4.144999   -0.572717    0.554026
     37          6           0        2.511422    1.725950   -1.749498
     38          6           0        4.180134    0.470305   -0.449104
     39          6           0        3.396996   -2.448554    2.480250
     40          1           0        1.341234   -1.940968    2.037149
     41          6           0        5.138368   -1.267064    1.256426
     42          6           0        3.565855    2.376541   -2.392218
     43          1           0        1.479208    1.939330   -2.023754
     44          6           0        5.221018    1.133223   -1.111714
     45          6           0        4.756444   -2.210460    2.209849
     46          1           0        3.118048   -3.177907    3.242803
     47          1           0        6.193517   -1.065001    1.062659
     48          6           0        4.905967    2.091648   -2.074468
     49          1           0        3.339323    3.118460   -3.159980
     50          1           0        6.261021    0.896227   -0.879482
     51          1           0        5.518710   -2.762854    2.761729
     52          1           0        5.705742    2.620163   -2.595787
     53          7           0        0.506271   -2.353711   -0.702029
     54          6           0        0.374500   -3.574619   -0.010281
     55          6           0        1.469893   -2.512850   -1.712759
     56          6           0       -0.428669   -3.888033    1.086496
     57          6           0        1.282138   -4.509848   -0.571034
     58          6           0        1.870208   -1.614111   -2.700822
     59          6           0        1.975055   -3.838261   -1.651262
     60          6           0       -0.326248   -5.178041    1.610562
     61          1           0       -1.106101   -3.157955    1.530712
     62          6           0        1.368589   -5.796565   -0.024586
     63          6           0        2.843092   -2.043571   -3.604989
     64          1           0        1.440088   -0.616411   -2.778029
     65          6           0        2.945453   -4.247816   -2.574243
     66          6           0        0.557980   -6.123896    1.061968
     67          1           0       -0.946689   -5.452684    2.465302
     68          1           0        2.065758   -6.526074   -0.440899
     69          6           0        3.383491   -3.340206   -3.538564
     70          1           0        3.183705   -1.356224   -4.381343
     71          1           0        3.344992   -5.263058   -2.540408
     72          1           0        0.612186   -7.123211    1.496819
     73          1           0        4.143078   -3.642654   -4.261284
     74          7           0       -3.669529    0.026352    0.004020
     75          6           0       -4.499192    0.879542   -0.746047
     76          6           0       -4.478546   -0.836096    0.765817
     77          6           0       -4.152106    1.868306   -1.667483
     78          6           0       -5.851735    0.554751   -0.461182
     79          6           0       -4.104858   -1.816811    1.685331
     80          6           0       -5.838560   -0.529999    0.498597
     81          6           0       -5.193597    2.554881   -2.294354
     82          1           0       -3.112145    2.102764   -1.897151
     83          6           0       -6.877645    1.257181   -1.106502
     84          6           0       -5.127842   -2.518025    2.326103
     85          1           0       -3.058101   -2.032132    1.903080
     86          6           0       -6.845774   -1.246747    1.157592
     87          6           0       -6.540042    2.258242   -2.016653
     88          1           0       -4.952417    3.337474   -3.015701
     89          1           0       -7.922776    1.018509   -0.900848
     90          6           0       -6.481922   -2.242199    2.063865
     91          1           0       -4.866042   -3.295054    3.046268
     92          1           0       -7.896889   -1.023756    0.965309
     93          1           0       -7.328019    2.815911   -2.525408
     94          1           0       -7.255208   -2.811042    2.582686
 ---------------------------------------------------------------------

 SCF Done:  E(RPBE-PBE) =  -2479.82020760     A.U. after   16 cycles

 Excitation energies and oscillator strengths:

 Excited State   1:      Singlet-A      1.9867 eV  624.06 nm  f=0.0503  <S**2>=0.000
     205 -> 206        0.69874
 This state for optimization and/or second-order correction.
 Total Energy, E(TD-HF/TD-KS) =  -2479.74719662
 Copying the excited state density for this state as the 1-particle RhoCI density.

 Excited State   2:      Singlet-A      2.1904 eV  566.03 nm  f=0.0262  <S**2>=0.000
     201 -> 206        0.24524
     202 -> 206        0.19970
     203 -> 206       -0.21400
     204 -> 206        0.58979

 Excited State   3:      Singlet-A      2.1955 eV  564.71 nm  f=0.0287  <S**2>=0.000
     201 -> 206        0.15172
     202 -> 206       -0.39259
     203 -> 206        0.50298
     204 -> 206        0.25275

 Excited State   4:      Singlet-A      2.2193 eV  558.67 nm  f=0.0523  <S**2>=0.000
     202 -> 206        0.55233
     203 -> 206        0.43615

 Excited State   5:      Singlet-A      2.3348 eV  531.02 nm  f=0.0407  <S**2>=0.000
     200 -> 206        0.18662
     201 -> 206        0.61730
     203 -> 207       -0.11053
     204 -> 206       -0.25157

 Excited State   6:      Singlet-A      2.3724 eV  522.60 nm  f=0.0478  <S**2>=0.000
     200 -> 206        0.54036
     201 -> 206       -0.10940
     205 -> 207        0.42894

 Excited State   7:      Singlet-A      2.3799 eV  520.97 nm  f=0.0348  <S**2>=0.000
     200 -> 206       -0.41327
     201 -> 206        0.10667
     205 -> 207        0.55047

 Excited State   8:      Singlet-A      2.4000 eV  516.59 nm  f=0.0001  <S**2>=0.000
     199 -> 206        0.70658

 Excited State   9:      Singlet-A      2.4581 eV  504.38 nm  f=0.0025  <S**2>=0.000
     198 -> 206        0.70125

 Excited State  10:      Singlet-A      2.5468 eV  486.83 nm  f=0.0496  <S**2>=0.000
     201 -> 207        0.13813
     204 -> 207        0.68793

 Excited State  11:      Singlet-A      2.5842 eV  479.77 nm  f=0.1165  <S**2>=0.000
     202 -> 207        0.22660
     203 -> 207        0.65135

 Excited State  12:      Singlet-A      2.6612 eV  465.89 nm  f=0.0396  <S**2>=0.000
     199 -> 207        0.14885
     202 -> 207        0.64955
     203 -> 207       -0.20126

 Excited State  13:      Singlet-A      2.6811 eV  462.43 nm  f=0.0428  <S**2>=0.000
     201 -> 207        0.68926
     204 -> 207       -0.12883

 Excited State  14:      Singlet-A      2.7647 eV  448.45 nm  f=0.0018  <S**2>=0.000
     200 -> 207        0.70620

 Excited State  15:      Singlet-A      2.7904 eV  444.33 nm  f=0.0056  <S**2>=0.000
     199 -> 207        0.68650
     202 -> 207       -0.11999

 Excited State  16:      Singlet-A      2.8354 eV  437.27 nm  f=0.0059  <S**2>=0.000
     198 -> 207        0.70505

 Excited State  17:      Singlet-A      3.1200 eV  397.38 nm  f=0.0016  <S**2>=0.000
     197 -> 206        0.70584

 Excited State  18:      Singlet-A      3.2160 eV  385.52 nm  f=0.0042  <S**2>=0.000
     196 -> 206        0.70194

 Excited State  19:      Singlet-A      3.2356 eV  383.19 nm  f=0.0142  <S**2>=0.000
     195 -> 206       -0.11028
     202 -> 208        0.12721
     205 -> 208        0.67884

 Excited State  20:      Singlet-A      3.2422 eV  382.41 nm  f=0.0013  <S**2>=0.000
     204 -> 210       -0.10737
     205 -> 209        0.68485

 Excited State  21:      Singlet-A      3.2439 eV  382.21 nm  f=0.0082  <S**2>=0.000
     195 -> 206        0.69776
     205 -> 208        0.10625

 Excited State  22:      Singlet-A      3.2651 eV  379.73 nm  f=0.0015  <S**2>=0.000
     204 -> 209       -0.12235
     205 -> 210        0.68390

 Excited State  23:      Singlet-A      3.3061 eV  375.02 nm  f=0.0061  <S**2>=0.000
     194 -> 206        0.69958

 Excited State  24:      Singlet-A      3.3435 eV  370.82 nm  f=0.0044  <S**2>=0.000
     202 -> 211       -0.11313
     203 -> 211        0.24135
     205 -> 211        0.63788

 Excited State  25:      Singlet-A      3.4155 eV  363.00 nm  f=0.0003  <S**2>=0.000
     204 -> 208        0.68570
     204 -> 210       -0.14426

 Excited State  26:      Singlet-A      3.4387 eV  360.55 nm  f=0.0018  <S**2>=0.000
     203 -> 208        0.66795
     204 -> 209       -0.20481

 Excited State  27:      Singlet-A      3.4535 eV  359.01 nm  f=0.0021  <S**2>=0.000
     202 -> 210       -0.10338
     203 -> 208        0.13227
     203 -> 209       -0.29093
     203 -> 210       -0.27375
     204 -> 209        0.39227
     204 -> 210        0.36532

 Excited State  28:      Singlet-A      3.4600 eV  358.33 nm  f=0.0026  <S**2>=0.000
     202 -> 209        0.11143
     202 -> 210       -0.11984
     203 -> 209        0.37302
     203 -> 210       -0.33419
     204 -> 209        0.31097
     204 -> 210       -0.31739

 Excited State  29:      Singlet-A      3.4862 eV  355.64 nm  f=0.0033  <S**2>=0.000
     202 -> 209        0.62090
     203 -> 209       -0.27221
     204 -> 210       -0.12093

 Excited State  30:      Singlet-A      3.4989 eV  354.35 nm  f=0.0020  <S**2>=0.000
     197 -> 207        0.63070
     204 -> 211        0.29648

 Excited State  31:      Singlet-A      3.5042 eV  353.82 nm  f=0.0003  <S**2>=0.000
     201 -> 209       -0.16182
     202 -> 208        0.24655
     202 -> 210        0.53309
     203 -> 210       -0.32812

 Excited State  32:      Singlet-A      3.5111 eV  353.12 nm  f=0.0015  <S**2>=0.000
     197 -> 207       -0.30141
     201 -> 211       -0.22172
     202 -> 211       -0.12030
     204 -> 211        0.55329

 Excited State  33:      Singlet-A      3.5232 eV  351.91 nm  f=0.0004  <S**2>=0.000
     202 -> 211        0.54999
     203 -> 211        0.39940
     204 -> 211        0.10094

 Excited State  34:      Singlet-A      3.5620 eV  348.08 nm  f=0.0048  <S**2>=0.000
     199 -> 209       -0.13079
     201 -> 208        0.57106
     201 -> 209        0.13303
     202 -> 209        0.14862
     203 -> 209        0.15260
     203 -> 210        0.10622
     204 -> 210        0.19112

 Excited State  35:      Singlet-A      3.5672 eV  347.57 nm  f=0.0027  <S**2>=0.000
     198 -> 209        0.12735
     199 -> 210       -0.16195
     201 -> 208       -0.23056
     201 -> 209        0.42269
     202 -> 208        0.10749
     202 -> 210        0.25513
     203 -> 210        0.21617
     204 -> 209        0.24897

 Excited State  36:      Singlet-A      3.5778 eV  346.54 nm  f=0.0106  <S**2>=0.000
     199 -> 209       -0.16266
     201 -> 208       -0.27100
     201 -> 210        0.45634
     202 -> 209        0.18026
     203 -> 209        0.21054
     204 -> 210        0.26592

 Excited State  37:      Singlet-A      3.5826 eV  346.08 nm  f=0.0005  <S**2>=0.000
     196 -> 207        0.70144

 Excited State  38:      Singlet-A      3.6227 eV  342.24 nm  f=0.0099  <S**2>=0.000
     199 -> 208       -0.11548
     199 -> 211       -0.29411
     202 -> 211       -0.35668
     203 -> 211        0.44364
     205 -> 211       -0.20479

 Excited State  39:      Singlet-A      3.6365 eV  340.94 nm  f=0.0020  <S**2>=0.000
     195 -> 207        0.70116

 Excited State  40:      Singlet-A      3.6581 eV  338.93 nm  f=0.0096  <S**2>=0.000
     199 -> 208        0.49592
     199 -> 210       -0.12215
     200 -> 209       -0.28185
     202 -> 208        0.31939
     202 -> 210       -0.12272

 Excited State  41:      Singlet-A      3.6649 eV  338.31 nm  f=0.0046  <S**2>=0.000
     199 -> 208        0.23608
     199 -> 210       -0.12167
     200 -> 209        0.61061
     201 -> 209        0.13292
     202 -> 208        0.12555

 Excited State  42:      Singlet-A      3.6754 eV  337.33 nm  f=0.0003  <S**2>=0.000
     194 -> 207        0.65835
     198 -> 211        0.10873
     201 -> 211       -0.19903

 Excited State  43:      Singlet-A      3.6807 eV  336.85 nm  f=0.0040  <S**2>=0.000
     194 -> 207       -0.10075
     199 -> 209       -0.12138
     200 -> 208        0.24436
     200 -> 210        0.57743
     201 -> 210        0.19880
     203 -> 209       -0.11463
     204 -> 210       -0.10432

 Excited State  44:      Singlet-A      3.6887 eV  336.12 nm  f=0.0057  <S**2>=0.000
     194 -> 207        0.22322
     198 -> 211       -0.35793
     200 -> 211        0.13884
     201 -> 211        0.49456
     204 -> 211        0.11921

 Excited State  45:      Singlet-A      3.7093 eV  334.26 nm  f=0.0071  <S**2>=0.000
     198 -> 209        0.21995
     199 -> 208        0.13043
     199 -> 209       -0.10794
     199 -> 210        0.29935
     200 -> 209        0.16282
     200 -> 211       -0.17547
     201 -> 209       -0.27423
     202 -> 210        0.15954
     203 -> 210        0.21936
     204 -> 209        0.20859

 Excited State  46:      Singlet-A      3.7104 eV  334.15 nm  f=0.0147  <S**2>=0.000
     198 -> 208        0.20653
     198 -> 210        0.22332
     199 -> 209        0.36314
     199 -> 210        0.12252
     200 -> 210        0.22919
     201 -> 210       -0.22677
     203 -> 209        0.18519
     204 -> 210        0.16739

 Excited State  47:      Singlet-A      3.7156 eV  333.68 nm  f=0.0009  <S**2>=0.000
     198 -> 211        0.11494
     200 -> 211        0.66378

 Excited State  48:      Singlet-A      3.7365 eV  331.82 nm  f=0.0242  <S**2>=0.000
     198 -> 208       -0.19130
     199 -> 208       -0.33391
     199 -> 210        0.19149
     202 -> 208        0.45423
     202 -> 210       -0.18385

 Excited State  49:      Singlet-A      3.7383 eV  331.66 nm  f=0.0063  <S**2>=0.000
     198 -> 208        0.60499
     198 -> 211       -0.11363
     199 -> 208       -0.10678
     201 -> 210        0.14820
     202 -> 208        0.15034
     203 -> 209       -0.10256

 Excited State  50:      Singlet-A      3.7447 eV  331.09 nm  f=0.0006  <S**2>=0.000
     198 -> 209        0.48437
     199 -> 210        0.26003
     199 -> 211       -0.18277
     201 -> 209        0.24006
     203 -> 210       -0.18412
     204 -> 209       -0.14547

 The electronic state is 1-A.
 Alpha  occ. eigenvalues --  -14.05936 -14.05861 -14.05825 -14.05449 -14.00220
 Alpha  occ. eigenvalues --  -14.00218  -9.98411  -9.98308  -9.98297  -9.97351
 Alpha  occ. eigenvalues --   -9.96004  -9.96000  -9.94571  -9.94569  -9.93524
 Alpha  occ. eigenvalues --   -9.93506  -9.93482  -9.93469  -9.93398  -9.93397
 Alpha  occ. eigenvalues --   -9.93193  -9.93190  -9.89990  -9.89968  -9.89951
 Alpha  occ. eigenvalues --   -9.89942  -9.89929  -9.89919  -9.89738  -9.89714
 Alpha  occ. eigenvalues --   -9.89420  -9.89409  -9.89402  -9.89398  -9.89278
 Alpha  occ. eigenvalues --   -9.89262  -9.89170  -9.89162  -9.89160  -9.89159
 Alpha  occ. eigenvalues --   -9.89136  -9.89120  -9.89110  -9.89105  -9.89026
 Alpha  occ. eigenvalues --   -9.89021  -9.89020  -9.89009  -9.89009  -9.89001
 Alpha  occ. eigenvalues --   -9.88933  -9.88927  -9.88853  -9.88845  -9.88539
 Alpha  occ. eigenvalues --   -9.88531  -9.88531  -9.88524  -9.88522  -9.88508
 Alpha  occ. eigenvalues --   -9.88387  -9.88379  -0.94481  -0.93296  -0.93047
 Alpha  occ. eigenvalues --   -0.91595  -0.85180  -0.84639  -0.83104  -0.79930
 Alpha  occ. eigenvalues --   -0.79652  -0.78239  -0.77883  -0.77865  -0.77815
 Alpha  occ. eigenvalues --   -0.77641  -0.77203  -0.74813  -0.74107  -0.71926
 Alpha  occ. eigenvalues --   -0.71413  -0.71275  -0.70112  -0.68945  -0.68907
 Alpha  occ. eigenvalues --   -0.68882  -0.68709  -0.67794  -0.67653  -0.66974
 Alpha  occ. eigenvalues --   -0.65577  -0.65552  -0.65533  -0.65392  -0.65358
 Alpha  occ. eigenvalues --   -0.62551  -0.62258  -0.59975  -0.59269  -0.57760
 Alpha  occ. eigenvalues --   -0.57658  -0.56418  -0.56133  -0.55838  -0.55735
 Alpha  occ. eigenvalues --   -0.55551  -0.55498  -0.53732  -0.53354  -0.52548
 Alpha  occ. eigenvalues --   -0.52385  -0.52333  -0.52196  -0.51409  -0.50573
 Alpha  occ. eigenvalues --   -0.50125  -0.48809  -0.48664  -0.47504  -0.47301
 Alpha  occ. eigenvalues --   -0.47182  -0.46698  -0.46643  -0.46214  -0.45797
 Alpha  occ. eigenvalues --   -0.45469  -0.44314  -0.44295  -0.41992  -0.41848
 Alpha  occ. eigenvalues --   -0.41687  -0.41615  -0.41570  -0.41041  -0.40937
 Alpha  occ. eigenvalues --   -0.40922  -0.40856  -0.40042  -0.39947  -0.39487
 Alpha  occ. eigenvalues --   -0.39347  -0.39208  -0.39112  -0.38780  -0.38679
 Alpha  occ. eigenvalues --   -0.38371  -0.38333  -0.38313  -0.38235  -0.38202
 Alpha  occ. eigenvalues --   -0.38141  -0.37901  -0.37517  -0.37410  -0.37217
 Alpha  occ. eigenvalues --   -0.37205  -0.37098  -0.35698  -0.34192  -0.33965
 Alpha  occ. eigenvalues --   -0.33441  -0.33323  -0.33055  -0.32883  -0.32787
 Alpha  occ. eigenvalues --   -0.32534  -0.32503  -0.32438  -0.32374  -0.32316
 Alpha  occ. eigenvalues --   -0.32303  -0.32244  -0.32066  -0.31948  -0.31890
 Alpha  occ. eigenvalues --   -0.31085  -0.31039  -0.30570  -0.30279  -0.30255
 Alpha  occ. eigenvalues --   -0.30032  -0.30021  -0.29940  -0.29929  -0.29852
 Alpha  occ. eigenvalues --   -0.29793  -0.29723  -0.26928  -0.26754  -0.26291
 Alpha  occ. eigenvalues --   -0.26199  -0.25898  -0.25683  -0.24052  -0.23855
 Alpha  occ. eigenvalues --   -0.23709  -0.23396  -0.20950  -0.20726  -0.20659
 Alpha  occ. eigenvalues --   -0.20313  -0.19996  -0.19854  -0.19761  -0.19009
 Alpha virt. eigenvalues --   -0.11951  -0.10559  -0.07223  -0.07182  -0.07094
 Alpha virt. eigenvalues --   -0.07009  -0.04658  -0.04485  -0.04135  -0.03989
 Alpha virt. eigenvalues --   -0.03890  -0.03428  -0.02912  -0.02568  -0.02552

 Mulliken charges:
               1
     1  C   -0.015806
     2  C   -0.066807
     3  C   -0.008721
     4  C    0.061692
     5  C    0.016467
     6  C    0.075265
     7  C   -0.277158
     8  C   -0.280831
     9  N    0.033667
    10  N    0.033100
    11  N    0.304217
    12  C    0.121817
    13  C   -0.017340
    14  C   -0.236858
    15  C    0.040923
    16  C   -0.208376
    17  C    0.013304
    18  C   -0.160451
    19  H    0.141810
    20  C   -0.234765
    21  C   -0.151590
    22  H    0.173534
    23  C   -0.257685
    24  C   -0.139115
    25  H    0.143179
    26  H    0.143400
    27  C   -0.133082
    28  H    0.144171
    29  H    0.142867
    30  H    0.141754
    31  H    0.142048
    32  N    0.437950
    33  C    0.015137
    34  C    0.026778
    35  C   -0.246878
    36  C    0.048121
    37  C   -0.253067
    38  C    0.046263
    39  C   -0.139983
    40  H    0.137523
    41  C   -0.255724
    42  C   -0.137921
    43  H    0.140560
    44  C   -0.253935
    45  C   -0.140076
    46  H    0.142054
    47  H    0.140902
    48  C   -0.142164
    49  H    0.142110
    50  H    0.140872
    51  H    0.140334
    52  H    0.140301
    53  N    0.302900
    54  C   -0.005253
    55  C    0.117893
    56  C   -0.209468
    57  C    0.010434
    58  C   -0.233514
    59  C    0.043043
    60  C   -0.153506
    61  H    0.175127
    62  C   -0.255965
    63  C   -0.162123
    64  H    0.142573
    65  C   -0.236547
    66  C   -0.134635
    67  H    0.143397
    68  H    0.142844
    69  C   -0.137124
    70  H    0.142809
    71  H    0.143434
    72  H    0.141810
    73  H    0.141766
    74  N    0.223375
    75  C    0.084202
    76  C    0.080569
    77  C   -0.239132
    78  C    0.005212
    79  C   -0.231761
    80  C    0.008173
    81  C   -0.147360
    82  H    0.162875
    83  C   -0.234935
    84  C   -0.154295
    85  H    0.162606
    86  C   -0.236525
    87  C   -0.142097
    88  H    0.144887
    89  H    0.144414
    90  C   -0.139307
    91  H    0.145214
    92  H    0.144541
    93  H    0.142737
    94  H    0.142926
 Sum of Mulliken charges =  -0.00000

 Dipole moment (field-independent basis, Debye):
    X=              4.9769    Y=             -0.0914    Z=              0.0015  Tot=              4.9777
 Quadrupole moment (field-independent basis, Debye-Ang):
   XX=           -340.5986   YY=           -351.5849   ZZ=           -340.6755
   XY=              0.1803   XZ=             -0.4672   YZ=            -38.5258

 Normal termination of Gaussian 09 at Wed Jun 29 20:06:39 2022.
