                         Program Version 5.0.2 -  RELEASE  -
|  1> %maxcore 20000
|  2> %pal
|  3>  nprocs= 6
|  4> end
|  5> ! RI-wPBEPP86   def2-TZVP def2/J def2-TZVP/C RIJCOSX CPCM TightSCF
|  6> %TDDFT
|  7>    NROOTS   60
|  8>    dcorr 1
|  9>    TDA      FALSE
| 10> END
| 11>
| 12> %CPCM
| 13>    SMD          TRUE
| 14>    SMDsolvent   "ACETONITRILE"
| 15>  END
| 16>
| 17>
| 18> * xyz 0 1
| 19> C                   0.13708300   -1.17921300    0.31930200
| 20> C                  -0.55557000   -0.00182600   -0.00879400
| 21> C                   0.17541900    1.14900900   -0.35453000
| 22> C                   1.58092900    1.11156100   -0.37592900
| 23> C                   2.27561400   -0.04695700   -0.00771500
| 24> C                   1.54385000   -1.18685600    0.34407400
| 25> C                   2.29711500    2.21798600   -0.89758300
| 26> C                   2.21958000   -2.32286400    0.85557100
| 27> N                   2.88133300    3.11141900   -1.34291000
| 28> N                   2.77150900   -3.24146800    1.29073100
| 29> N                  -0.54323800   -2.34995200    0.66815600
| 30> C                  -1.50614500   -2.48840000    1.67144800
| 31> C                  -0.46523800   -3.55919600   -0.03591300
| 32> C                  -1.86852100   -1.59253500    2.66479500
| 33> C                  -2.06133600   -3.77985600    1.59078400
| 34> C                   0.31174400   -3.88150000   -1.13825200
| 35> C                  -1.39982900   -4.45894200    0.50924100
| 36> C                  -2.85713300   -1.98676600    3.55238400
| 37> H                  -1.39444800   -0.62438900    2.75418400
| 38> C                  -3.04733600   -4.15520300    2.49888900
| 39> C                   0.15766400   -5.14808800   -1.68009800
| 40> H                   1.00342200   -3.17104100   -1.57402000
| 41> C                  -1.53710300   -5.72401500   -0.05534200
| 42> C                  -3.44896500   -3.24908300    3.46604100
| 43> H                  -3.16699900   -1.30238600    4.33238500
| 44> H                  -3.48554400   -5.14437000    2.45065000
| 45> C                  -0.75208900   -6.06227000   -1.14423600
| 46> H                   0.75434000   -5.42893300   -2.53844000
| 47> H                  -2.25480000   -6.42663900    0.34980800
| 48> H                  -4.21790100   -3.52572800    4.17561500
| 49> H                  -0.84662000   -7.04305200   -1.59182800
| 50> N                  -1.95704500    0.03452400    0.02264600
| 51> C                  -2.72329000    0.88714200    0.82077400
| 52> C                  -2.82597400   -0.76917400   -0.71854200
| 53> C                  -2.30390500    1.80349400    1.77277500
| 54> C                  -4.08709800    0.63374500    0.57976800
| 55> C                  -2.53349300   -1.71964500   -1.68518000
| 56> C                  -4.15239800   -0.42587400   -0.38980200
| 57> C                  -3.27936500    2.51716500    2.45073600
| 58> H                  -1.25501600    1.94579900    1.99750400
| 59> C                  -5.04906900    1.35954100    1.27800200
| 60> C                  -3.59784400   -2.37067000   -2.28840100
| 61> H                  -1.51428700   -1.93831100   -1.97547100
| 62> C                  -5.20460700   -1.09027000   -1.01444600
| 63> C                  -4.63782200    2.30702700    2.20026800
| 64> H                  -2.97801700    3.24468400    3.19418500
| 65> H                  -6.10241500    1.17673100    1.10476800
| 66> C                  -4.91982400   -2.06831100   -1.95218400
| 67> H                  -3.39544300   -3.12362200   -3.04003600
| 68> H                  -6.22943700   -0.83797800   -0.77143200
| 69> H                  -5.37474200    2.88169000    2.74614800
| 70> H                  -5.72776900   -2.59662700   -2.44142400
| 71> N                  -0.47106700    2.33134400   -0.72615700
| 72> C                  -0.35292600    3.56244000   -0.06641300
| 73> C                  -1.43756700    2.46289400   -1.72746400
| 74> C                   0.44524700    3.90427700    1.01462900
| 75> C                  -1.26881200    4.46734500   -0.63442000
| 76> C                  -1.82862900    1.54484800   -2.68876600
| 77> C                  -1.95673600    3.77063400   -1.68793100
| 78> C                   0.32982100    5.19250100    1.51297200
| 79> H                   1.12481000    3.19252600    1.46669800
| 80> C                  -1.36739400    5.75468000   -0.11368900
| 81> C                  -2.81013900    1.93585500   -3.58559600
| 82> H                  -1.38090900    0.56179700   -2.74824300
| 83> C                  -2.93667200    4.14252200   -2.60424800
| 84> C                  -0.56251600    6.11043800    0.95479100
| 85> H                   0.94418100    5.48810100    2.35372100
| 86> H                  -2.07040300    6.46128200   -0.53718300
| 87> C                  -3.36736500    3.21586500   -3.53881100
| 88> H                  -3.14211500    1.23454300   -4.34107000
| 89> H                  -3.34792300    5.14420300   -2.58711500
| 90> H                  -0.62667900    7.10857500    1.36808600
| 91> H                  -4.13204300    3.48958200   -4.25412000
| 92> N                   3.67041100   -0.05888600    0.01233800
| 93> C                   4.49945100   -0.92778800   -0.70614300
| 94> C                   4.47884200    0.81349800    0.75011600
| 95> C                   4.15614100   -1.92990900   -1.60095800
| 96> C                   5.84035900   -0.60371400   -0.42471300
| 97> C                   4.10784700    1.81357600    1.63581300
| 98> C                   5.82726700    0.49749600    0.50011600
| 99> C                   5.18973100   -2.63091600   -2.20169000
|100> H                   3.12314600   -2.15872200   -1.82982700
|101> C                   6.85968100   -1.32161400   -1.04402200
|102> C                   5.12221200    2.52335000    2.25843000
|103> H                   3.06808600    2.03515200    1.84063800
|104> C                   6.82728100    1.22378000    1.14126400
|105> C                   6.52640500   -2.33537600   -1.92535500
|106> H                   4.95141700   -3.42150100   -2.90157100
|107> H                   7.89609600   -1.08290000   -0.83981100
|108> C                   6.46688700    2.23720500    2.01228600
|109> H                   4.86241600    3.31320900    2.95145900
|110> H                   7.86979500    0.99261000    0.96072100
|111> H                   7.30821000   -2.90327700   -2.41275600
|112> H                   7.23355000    2.81189600    2.51552600
|113> *
|114>
|115>
|116>                          ****END OF INPUT****

CARTESIAN COORDINATES (ANGSTROEM)
---------------------------------
  C      0.137083   -1.179213    0.319302
  C     -0.555570   -0.001826   -0.008794
  C      0.175419    1.149009   -0.354530
  C      1.580929    1.111561   -0.375929
  C      2.275614   -0.046957   -0.007715
  C      1.543850   -1.186856    0.344074
  C      2.297115    2.217986   -0.897583
  C      2.219580   -2.322864    0.855571
  N      2.881333    3.111419   -1.342910
  N      2.771509   -3.241468    1.290731
  N     -0.543238   -2.349952    0.668156
  C     -1.506145   -2.488400    1.671448
  C     -0.465238   -3.559196   -0.035913
  C     -1.868521   -1.592535    2.664795
  C     -2.061336   -3.779856    1.590784
  C      0.311744   -3.881500   -1.138252
  C     -1.399829   -4.458942    0.509241
  C     -2.857133   -1.986766    3.552384
  H     -1.394448   -0.624389    2.754184
  C     -3.047336   -4.155203    2.498889
  C      0.157664   -5.148088   -1.680098
  H      1.003422   -3.171041   -1.574020
  C     -1.537103   -5.724015   -0.055342
  C     -3.448965   -3.249083    3.466041
  H     -3.166999   -1.302386    4.332385
  H     -3.485544   -5.144370    2.450650
  C     -0.752089   -6.062270   -1.144236
  H      0.754340   -5.428933   -2.538440
  H     -2.254800   -6.426639    0.349808
  H     -4.217901   -3.525728    4.175615
  H     -0.846620   -7.043052   -1.591828
  N     -1.957045    0.034524    0.022646
  C     -2.723290    0.887142    0.820774
  C     -2.825974   -0.769174   -0.718542
  C     -2.303905    1.803494    1.772775
  C     -4.087098    0.633745    0.579768
  C     -2.533493   -1.719645   -1.685180
  C     -4.152398   -0.425874   -0.389802
  C     -3.279365    2.517165    2.450736
  H     -1.255016    1.945799    1.997504
  C     -5.049069    1.359541    1.278002
  C     -3.597844   -2.370670   -2.288401
  H     -1.514287   -1.938311   -1.975471
  C     -5.204607   -1.090270   -1.014446
  C     -4.637822    2.307027    2.200268
  H     -2.978017    3.244684    3.194185
  H     -6.102415    1.176731    1.104768
  C     -4.919824   -2.068311   -1.952184
  H     -3.395443   -3.123622   -3.040036
  H     -6.229437   -0.837978   -0.771432
  H     -5.374742    2.881690    2.746148
  H     -5.727769   -2.596627   -2.441424
  N     -0.471067    2.331344   -0.726157
  C     -0.352926    3.562440   -0.066413
  C     -1.437567    2.462894   -1.727464
  C      0.445247    3.904277    1.014629
  C     -1.268812    4.467345   -0.634420
  C     -1.828629    1.544848   -2.688766
  C     -1.956736    3.770634   -1.687931
  C      0.329821    5.192501    1.512972
  H      1.124810    3.192526    1.466698
  C     -1.367394    5.754680   -0.113689
  C     -2.810139    1.935855   -3.585596
  H     -1.380909    0.561797   -2.748243
  C     -2.936672    4.142522   -2.604248
  C     -0.562516    6.110438    0.954791
  H      0.944181    5.488101    2.353721
  H     -2.070403    6.461282   -0.537183
  C     -3.367365    3.215865   -3.538811
  H     -3.142115    1.234543   -4.341070
  H     -3.347923    5.144203   -2.587115
  H     -0.626679    7.108575    1.368086
  H     -4.132043    3.489582   -4.254120
  N      3.670411   -0.058886    0.012338
  C      4.499451   -0.927788   -0.706143
  C      4.478842    0.813498    0.750116
  C      4.156141   -1.929909   -1.600958
  C      5.840359   -0.603714   -0.424713
  C      4.107847    1.813576    1.635813
  C      5.827267    0.497496    0.500116
  C      5.189731   -2.630916   -2.201690
  H      3.123146   -2.158722   -1.829827
  C      6.859681   -1.321614   -1.044022
  C      5.122212    2.523350    2.258430
  H      3.068086    2.035152    1.840638
  C      6.827281    1.223780    1.141264
  C      6.526405   -2.335376   -1.925355
  H      4.951417   -3.421501   -2.901571
  H      7.896096   -1.082900   -0.839811
  C      6.466887    2.237205    2.012286
  H      4.862416    3.313209    2.951459
  H      7.869795    0.992610    0.960721
  H      7.308210   -2.903277   -2.412756
  H      7.233550    2.811896    2.515526

 Total Charge           Charge          ....    0
 Multiplicity           Mult            ....    1
 Number of Electrons    NEL             ....  410
 Basis Dimension        Dim             .... 2114

ORBITAL ENERGIES
----------------

  NO   OCC          E(Eh)            E(eV)
   0   2.0000     -15.202477      -413.6804
   1   2.0000     -15.199873      -413.6096
   2   2.0000     -15.199581      -413.6016
   3   2.0000     -15.194075      -413.4518
   4   2.0000     -15.160324      -412.5334
   5   2.0000     -15.160220      -412.5306
   6   2.0000     -10.982745      -298.8557
   7   2.0000     -10.979946      -298.7795
   8   2.0000     -10.979872      -298.7775
   9   2.0000     -10.960109      -298.2397
  10   2.0000     -10.945723      -297.8483
  11   2.0000     -10.945566      -297.8440
  12   2.0000     -10.937784      -297.6322
  13   2.0000     -10.937724      -297.6306
  14   2.0000     -10.922164      -297.2072
  15   2.0000     -10.921896      -297.1999
  16   2.0000     -10.921248      -297.1823
  17   2.0000     -10.921126      -297.1790
  18   2.0000     -10.920166      -297.1528
  19   2.0000     -10.919963      -297.1473
  20   2.0000     -10.917690      -297.0855
  21   2.0000     -10.917239      -297.0732
  22   2.0000     -10.879770      -296.0536
  23   2.0000     -10.879133      -296.0363
  24   2.0000     -10.879060      -296.0343
  25   2.0000     -10.879035      -296.0336
  26   2.0000     -10.878398      -296.0163
  27   2.0000     -10.878326      -296.0143
  28   2.0000     -10.876922      -295.9761
  29   2.0000     -10.876191      -295.9562
  30   2.0000     -10.874313      -295.9051
  31   2.0000     -10.874241      -295.9031
  32   2.0000     -10.874184      -295.9016
  33   2.0000     -10.874176      -295.9014
  34   2.0000     -10.874121      -295.8999
  35   2.0000     -10.874074      -295.8986
  36   2.0000     -10.873629      -295.8865
  37   2.0000     -10.873623      -295.8863
  38   2.0000     -10.873459      -295.8819
  39   2.0000     -10.873455      -295.8817
  40   2.0000     -10.872804      -295.8640
  41   2.0000     -10.872642      -295.8596
  42   2.0000     -10.872428      -295.8538
  43   2.0000     -10.872315      -295.8507
  44   2.0000     -10.872224      -295.8483
  45   2.0000     -10.872174      -295.8469
  46   2.0000     -10.872159      -295.8465
  47   2.0000     -10.872075      -295.8442
  48   2.0000     -10.871286      -295.8227
  49   2.0000     -10.871097      -295.8176
  50   2.0000     -10.871038      -295.8160
  51   2.0000     -10.871024      -295.8156
  52   2.0000     -10.870243      -295.7944
  53   2.0000     -10.870043      -295.7889
  54   2.0000     -10.864540      -295.6392
  55   2.0000     -10.864455      -295.6369
  56   2.0000     -10.864317      -295.6331
  57   2.0000     -10.864312      -295.6330
  58   2.0000     -10.864222      -295.6305
  59   2.0000     -10.864132      -295.6281
  60   2.0000     -10.863052      -295.5987
  61   2.0000     -10.862856      -295.5933
  62   2.0000      -1.286215       -34.9997
  63   2.0000      -1.272176       -34.6177
  64   2.0000      -1.268024       -34.5047
  65   2.0000      -1.250096       -34.0169
  66   2.0000      -1.181587       -32.1526
  67   2.0000      -1.177203       -32.0333
  68   2.0000      -1.153366       -31.3847
  69   2.0000      -1.114431       -30.3252
  70   2.0000      -1.110873       -30.2284
  71   2.0000      -1.095376       -29.8067
  72   2.0000      -1.093947       -29.7678
  73   2.0000      -1.093557       -29.7572
  74   2.0000      -1.092622       -29.7318
  75   2.0000      -1.090894       -29.6847
  76   2.0000      -1.082067       -29.4445
  77   2.0000      -1.047549       -28.5053
  78   2.0000      -1.039665       -28.2907
  79   2.0000      -1.015152       -27.6237
  80   2.0000      -1.010742       -27.5037
  81   2.0000      -1.007233       -27.4082
  82   2.0000      -0.995099       -27.0780
  83   2.0000      -0.979264       -26.6471
  84   2.0000      -0.978856       -26.6360
  85   2.0000      -0.978185       -26.6178
  86   2.0000      -0.976138       -26.5621
  87   2.0000      -0.962255       -26.1843
  88   2.0000      -0.959113       -26.0988
  89   2.0000      -0.952629       -25.9223
  90   2.0000      -0.938593       -25.5404
  91   2.0000      -0.938175       -25.5290
  92   2.0000      -0.937861       -25.5205
  93   2.0000      -0.935888       -25.4668
  94   2.0000      -0.931831       -25.3564
  95   2.0000      -0.888127       -24.1672
  96   2.0000      -0.882997       -24.0276
  97   2.0000      -0.851431       -23.1686
  98   2.0000      -0.843858       -22.9625
  99   2.0000      -0.831068       -22.6145
 100   2.0000      -0.830777       -22.6066
 101   2.0000      -0.810234       -22.0476
 102   2.0000      -0.804698       -21.8969
 103   2.0000      -0.803582       -21.8666
 104   2.0000      -0.799157       -21.7462
 105   2.0000      -0.797479       -21.7005
 106   2.0000      -0.796489       -21.6736
 107   2.0000      -0.776507       -21.1298
 108   2.0000      -0.772362       -21.0170
 109   2.0000      -0.766364       -20.8538
 110   2.0000      -0.764240       -20.7960
 111   2.0000      -0.763447       -20.7745
 112   2.0000      -0.761208       -20.7135
 113   2.0000      -0.745670       -20.2907
 114   2.0000      -0.731946       -19.9173
 115   2.0000      -0.724399       -19.7119
 116   2.0000      -0.704998       -19.1840
 117   2.0000      -0.702730       -19.1223
 118   2.0000      -0.692003       -18.8304
 119   2.0000      -0.688908       -18.7461
 120   2.0000      -0.687977       -18.7208
 121   2.0000      -0.683322       -18.5941
 122   2.0000      -0.679954       -18.5025
 123   2.0000      -0.677826       -18.4446
 124   2.0000      -0.674733       -18.3604
 125   2.0000      -0.670327       -18.2405
 126   2.0000      -0.653470       -17.7818
 127   2.0000      -0.652649       -17.7595
 128   2.0000      -0.627019       -17.0621
 129   2.0000      -0.622931       -16.9508
 130   2.0000      -0.622593       -16.9416
 131   2.0000      -0.620715       -16.8905
 132   2.0000      -0.619308       -16.8522
 133   2.0000      -0.613982       -16.7073
 134   2.0000      -0.612601       -16.6697
 135   2.0000      -0.612264       -16.6605
 136   2.0000      -0.611844       -16.6491
 137   2.0000      -0.602247       -16.3880
 138   2.0000      -0.601258       -16.3611
 139   2.0000      -0.595186       -16.1958
 140   2.0000      -0.591708       -16.1012
 141   2.0000      -0.589945       -16.0532
 142   2.0000      -0.588366       -16.0102
 143   2.0000      -0.586405       -15.9569
 144   2.0000      -0.584081       -15.8936
 145   2.0000      -0.582600       -15.8534
 146   2.0000      -0.582248       -15.8438
 147   2.0000      -0.581426       -15.8214
 148   2.0000      -0.579832       -15.7780
 149   2.0000      -0.577457       -15.7134
 150   2.0000      -0.575833       -15.6692
 151   2.0000      -0.572143       -15.5688
 152   2.0000      -0.569778       -15.5045
 153   2.0000      -0.566966       -15.4279
 154   2.0000      -0.566760       -15.4223
 155   2.0000      -0.565761       -15.3951
 156   2.0000      -0.561141       -15.2694
 157   2.0000      -0.559645       -15.2287
 158   2.0000      -0.554903       -15.0997
 159   2.0000      -0.533417       -14.5150
 160   2.0000      -0.510366       -13.8878
 161   2.0000      -0.509832       -13.8732
 162   2.0000      -0.508785       -13.8447
 163   2.0000      -0.508109       -13.8264
 164   2.0000      -0.507466       -13.8089
 165   2.0000      -0.507329       -13.8051
 166   2.0000      -0.506887       -13.7931
 167   2.0000      -0.506243       -13.7756
 168   2.0000      -0.504469       -13.7273
 169   2.0000      -0.503293       -13.6953
 170   2.0000      -0.502268       -13.6674
 171   2.0000      -0.495712       -13.4890
 172   2.0000      -0.493442       -13.4273
 173   2.0000      -0.488619       -13.2960
 174   2.0000      -0.487687       -13.2706
 175   2.0000      -0.481798       -13.1104
 176   2.0000      -0.481124       -13.0920
 177   2.0000      -0.479144       -13.0382
 178   2.0000      -0.478763       -13.0278
 179   2.0000      -0.478029       -13.0078
 180   2.0000      -0.476019       -12.9531
 181   2.0000      -0.475530       -12.9398
 182   2.0000      -0.475087       -12.9278
 183   2.0000      -0.474856       -12.9215
 184   2.0000      -0.472273       -12.8512
 185   2.0000      -0.469531       -12.7766
 186   2.0000      -0.460804       -12.5391
 187   2.0000      -0.405672       -11.0389
 188   2.0000      -0.403509       -10.9800
 189   2.0000      -0.399885       -10.8814
 190   2.0000      -0.397742       -10.8231
 191   2.0000      -0.386622       -10.5205
 192   2.0000      -0.385256       -10.4833
 193   2.0000      -0.367322        -9.9953
 194   2.0000      -0.364207        -9.9106
 195   2.0000      -0.362103        -9.8533
 196   2.0000      -0.357826        -9.7369
 197   2.0000      -0.318299        -8.6613
 198   2.0000      -0.317325        -8.6349
 199   2.0000      -0.313208        -8.5228
 200   2.0000      -0.312905        -8.5146
 201   2.0000      -0.311321        -8.4715
 202   2.0000      -0.309739        -8.4284
 203   2.0000      -0.303172        -8.2497
 204   2.0000      -0.297664        -8.0999
 205   0.0000      -0.009497        -0.2584
 206   0.0000       0.009625         0.2619
 207   0.0000       0.037567         1.0222
 208   0.0000       0.038154         1.0382
 209   0.0000       0.039552         1.0763

MULLIKEN ATOMIC CHARGES
-----------------------
   0 C :   -0.020053
   1 C :   -0.013765
   2 C :   -0.015890
   3 C :    0.084077
   4 C :    0.153030
   5 C :    0.104689
   6 C :   -0.170542
   7 C :   -0.170168
   8 N :   -0.162981
   9 N :   -0.162944
  10 N :    0.162031
  11 C :    0.175659
  12 C :    0.042191
  13 C :   -0.313653
  14 C :    0.006686
  15 C :   -0.296068
  16 C :   -0.053670
  17 C :   -0.173814
  18 H :    0.198101
  19 C :   -0.211026
  20 C :   -0.164400
  21 H :    0.222583
  22 C :   -0.251259
  23 C :   -0.201433
  24 H :    0.188491
  25 H :    0.191843
  26 C :   -0.189079
  27 H :    0.188158
  28 H :    0.190966
  29 H :    0.183083
  30 H :    0.185333
  31 N :    0.380541
  32 C :    0.070733
  33 C :    0.084269
  34 C :   -0.363178
  35 C :    0.002793
  36 C :   -0.381904
  37 C :    0.007034
  38 C :   -0.156012
  39 H :    0.201235
  40 C :   -0.232643
  41 C :   -0.144333
  42 H :    0.203308
  43 C :   -0.228878
  44 C :   -0.193620
  45 H :    0.187135
  46 H :    0.189460
  47 C :   -0.198255
  48 H :    0.187178
  49 H :    0.189163
  50 H :    0.183151
  51 H :    0.182677
  52 N :    0.170631
  53 C :    0.047516
  54 C :    0.169857
  55 C :   -0.290510
  56 C :   -0.046092
  57 C :   -0.307424
  58 C :    0.009948
  59 C :   -0.165345
  60 H :    0.214591
  61 C :   -0.249093
  62 C :   -0.180763
  63 H :    0.200619
  64 C :   -0.219655
  65 C :   -0.190330
  66 H :    0.187680
  67 H :    0.190493
  68 C :   -0.194387
  69 H :    0.188158
  70 H :    0.191964
  71 H :    0.184833
  72 H :    0.183934
  73 N :    0.066083
  74 C :    0.125373
  75 C :    0.127254
  76 C :   -0.304438
  77 C :   -0.032064
  78 C :   -0.306597
  79 C :   -0.032161
  80 C :   -0.156013
  81 H :    0.211381
  82 C :   -0.226595
  83 C :   -0.162012
  84 H :    0.219555
  85 C :   -0.225785
  86 C :   -0.203472
  87 H :    0.188835
  88 H :    0.190584
  89 C :   -0.201121
  90 H :    0.188829
  91 H :    0.191605
  92 H :    0.183925
  93 H :    0.184180
Sum of atomic charges:   -0.0000000

LOEWDIN ATOMIC CHARGES
----------------------
   0 C :   -0.041948
   1 C :   -0.081223
   2 C :   -0.043193
   3 C :   -0.072542
   4 C :   -0.044014
   5 C :   -0.071882
   6 C :   -0.121368
   7 C :   -0.121139
   8 N :    0.031971
   9 N :    0.031791
  10 N :    0.318528
  11 C :   -0.115948
  12 C :   -0.122725
  13 C :   -0.114041
  14 C :   -0.090033
  15 C :   -0.125850
  16 C :   -0.091729
  17 C :   -0.142432
  18 H :    0.165454
  19 C :   -0.100818
  20 C :   -0.141151
  21 H :    0.165318
  22 C :   -0.099060
  23 C :   -0.162358
  24 H :    0.159673
  25 H :    0.162356
  26 C :   -0.162445
  27 H :    0.159517
  28 H :    0.162712
  29 H :    0.156444
  30 H :    0.156589
  31 N :    0.316066
  32 C :   -0.124981
  33 C :   -0.124525
  34 C :   -0.120512
  35 C :   -0.092380
  36 C :   -0.120136
  37 C :   -0.092480
  38 C :   -0.143459
  39 H :    0.165409
  40 C :   -0.101253
  41 C :   -0.143488
  42 H :    0.165304
  43 C :   -0.101228
  44 C :   -0.164872
  45 H :    0.159300
  46 H :    0.161922
  47 C :   -0.165202
  48 H :    0.159290
  49 H :    0.161961
  50 H :    0.155870
  51 H :    0.155793
  52 N :    0.318993
  53 C :   -0.121920
  54 C :   -0.115514
  55 C :   -0.125667
  56 C :   -0.091481
  57 C :   -0.114107
  58 C :   -0.089611
  59 C :   -0.141195
  60 H :    0.164649
  61 C :   -0.099135
  62 C :   -0.142463
  63 H :    0.165592
  64 C :   -0.100847
  65 C :   -0.162309
  66 H :    0.159576
  67 H :    0.162700
  68 C :   -0.162057
  69 H :    0.159642
  70 H :    0.162332
  71 H :    0.156605
  72 H :    0.156486
  73 N :    0.317852
  74 C :   -0.113977
  75 C :   -0.114206
  76 C :   -0.122518
  77 C :   -0.088911
  78 C :   -0.122500
  79 C :   -0.088868
  80 C :   -0.141461
  81 H :    0.164636
  82 C :   -0.099268
  83 C :   -0.141299
  84 H :    0.164515
  85 C :   -0.099086
  86 C :   -0.162141
  87 H :    0.159539
  88 H :    0.162774
  89 C :   -0.161963
  90 H :    0.159575
  91 H :    0.162759
  92 H :    0.156699
  93 H :    0.156724

  Mayer bond orders larger than 0.100000
B(  0-C ,  1-C ) :   1.5995 B(  0-C ,  5-C ) :   1.3253 B(  0-C , 10-N ) :   1.0711
B(  1-C ,  2-C ) :   1.5896 B(  1-C , 31-N ) :   1.0911 B(  2-C ,  3-C ) :   1.3145
B(  2-C , 52-N ) :   1.0805 B(  3-C ,  4-C ) :   1.3476 B(  3-C ,  6-C ) :   0.9510
B(  4-C ,  5-C ) :   1.3577 B(  4-C , 73-N ) :   1.1146 B(  5-C ,  7-C ) :   0.9463
B(  6-C ,  8-N ) :   2.9693 B(  7-C ,  9-N ) :   2.9688 B( 10-N , 11-C ) :   1.0193
B( 10-N , 12-C ) :   1.0374 B( 11-C , 13-C ) :   1.4195 B( 11-C , 14-C ) :   1.3270
B( 12-C , 15-C ) :   1.4316 B( 12-C , 16-C ) :   1.3364 B( 13-C , 17-C ) :   1.4368
B( 13-C , 18-H ) :   0.9566 B( 14-C , 16-C ) :   1.0304 B( 14-C , 19-C ) :   1.3094
B( 15-C , 20-C ) :   1.4256 B( 15-C , 21-H ) :   0.9391 B( 16-C , 22-C ) :   1.3250
B( 17-C , 23-C ) :   1.3304 B( 17-C , 24-H ) :   0.9781 B( 19-C , 23-C ) :   1.4563
B( 19-C , 25-H ) :   0.9675 B( 20-C , 26-C ) :   1.3472 B( 20-C , 27-H ) :   0.9719
B( 22-C , 26-C ) :   1.4637 B( 22-C , 28-H ) :   0.9711 B( 23-C , 29-H ) :   0.9886
B( 26-C , 30-H ) :   0.9815 B( 31-N , 32-C ) :   0.9736 B( 31-N , 33-C ) :   0.9838
B( 32-C , 34-C ) :   1.4549 B( 32-C , 35-C ) :   1.3358 B( 33-C , 36-C ) :   1.4473
B( 33-C , 37-C ) :   1.3254 B( 34-C , 38-C ) :   1.4216 B( 34-C , 39-H ) :   0.9718
B( 35-C , 37-C ) :   1.0410 B( 35-C , 40-C ) :   1.3095 B( 36-C , 41-C ) :   1.4235
B( 36-C , 42-H ) :   0.9699 B( 37-C , 43-C ) :   1.3013 B( 38-C , 44-C ) :   1.3323
B( 38-C , 45-H ) :   0.9780 B( 40-C , 44-C ) :   1.4614 B( 40-C , 46-H ) :   0.9690
B( 41-C , 47-C ) :   1.3322 B( 41-C , 48-H ) :   0.9776 B( 43-C , 47-C ) :   1.4600
B( 43-C , 49-H ) :   0.9718 B( 44-C , 50-H ) :   0.9859 B( 47-C , 51-H ) :   0.9863
B( 52-N , 53-C ) :   1.0386 B( 52-N , 54-C ) :   1.0161 B( 53-C , 55-C ) :   1.4228
B( 53-C , 56-C ) :   1.3417 B( 54-C , 57-C ) :   1.4242 B( 54-C , 58-C ) :   1.3385
B( 55-C , 59-C ) :   1.4286 B( 55-C , 60-H ) :   0.9448 B( 56-C , 58-C ) :   1.0289
B( 56-C , 61-C ) :   1.3226 B( 57-C , 62-C ) :   1.4361 B( 57-C , 63-H ) :   0.9576
B( 58-C , 64-C ) :   1.3098 B( 59-C , 65-C ) :   1.3407 B( 59-C , 66-H ) :   0.9735
B( 61-C , 65-C ) :   1.4611 B( 61-C , 67-H ) :   0.9704 B( 62-C , 68-C ) :   1.3321
B( 62-C , 69-H ) :   0.9782 B( 64-C , 68-C ) :   1.4594 B( 64-C , 70-H ) :   0.9663
B( 65-C , 71-H ) :   0.9833 B( 68-C , 72-H ) :   0.9863 B( 73-N , 74-C ) :   1.0563
B( 73-N , 75-C ) :   1.0539 B( 74-C , 76-C ) :   1.4066 B( 74-C , 77-C ) :   1.3451
B( 75-C , 78-C ) :   1.4022 B( 75-C , 79-C ) :   1.3498 B( 76-C , 80-C ) :   1.4458
B( 76-C , 81-H ) :   0.9403 B( 77-C , 79-C ) :   1.0665 B( 77-C , 82-C ) :   1.3135
B( 78-C , 83-C ) :   1.4457 B( 78-C , 84-H ) :   0.9357 B( 79-C , 85-C ) :   1.3188
B( 80-C , 86-C ) :   1.3415 B( 80-C , 87-H ) :   0.9716 B( 82-C , 86-C ) :   1.4558
B( 82-C , 88-H ) :   0.9725 B( 83-C , 89-C ) :   1.3451 B( 83-C , 90-H ) :   0.9712
B( 85-C , 89-C ) :   1.4601 B( 85-C , 91-H ) :   0.9688 B( 86-C , 92-H ) :   0.9845
B( 89-C , 93-H ) :   0.9837

MP2 TOTAL ENERGY:    -2480.781450142 Eh

-----------------------------------------------------------------------------
         ABSORPTION SPECTRUM VIA TRANSITION ELECTRIC DIPOLE MOMENTS
-----------------------------------------------------------------------------
State   Energy    Wavelength  fosc         T2        TX        TY        TZ
        (cm-1)      (nm)                 (au**2)    (au)      (au)      (au)
-----------------------------------------------------------------------------
   1   25079.9    398.7   0.193825608   2.54425   0.03051  -1.49710   0.54957
   2   28860.4    346.5   0.005829239   0.06649  -0.25766  -0.00923  -0.00468
   3   28685.1    348.6   0.516651604   5.92948  -2.43502  -0.00329   0.01113
   4   28034.2    356.7   0.078887538   0.92640   0.05941  -0.94020   0.19720
   5   33950.4    294.5   0.001527448   0.01481   0.08216  -0.08916  -0.01058
   6   38170.1    262.0   0.043484327   0.37505   0.03831  -0.60695  -0.07202
   7   35729.6    279.9   0.182288906   1.67961   0.13927   0.04232   1.28780
   8   36616.9    273.1   0.216188097   1.94369  -1.38315  -0.02223   0.17347
   9   36272.0    275.7   0.050787141   0.46095  -0.24726   0.22565   0.59067
  10   35789.2    279.4   0.064574370   0.59400  -0.43462  -0.30257  -0.55996
  11   35421.2    282.3   0.040941575   0.38052   0.36663  -0.29366  -0.39983
  12   37072.5    269.7   0.583598305   5.18247  -0.06938  -1.69268  -1.52069
  13   30460.7    328.3   0.020370921   0.22016   0.13413   0.14594   0.42529
  14   31374.5    318.7   0.033407273   0.35054   0.59026  -0.03948  -0.02408
  15   32048.9    312.0   0.074637066   0.76668  -0.58492  -0.65126   0.02035
  16   32379.9    308.8   0.191348959   1.94548   0.27351  -1.36772  -0.00098
  17   32382.9    308.8   0.034906980   0.35487  -0.01013  -0.42297   0.41936
  18   35467.5    281.9   0.033316148   0.30924  -0.00226   0.53393   0.15543
  19   32420.2    308.4   0.000848174   0.00861  -0.08625   0.00302   0.03411
  20   32742.7    305.4   0.019861051   0.19969  -0.44630  -0.00050  -0.02256
  21   32505.5    307.6   0.002975970   0.03014  -0.17048  -0.03045  -0.01229
  22   39030.8    256.2   0.039582360   0.33386  -0.01118  -0.28482  -0.50261
  23   40839.5    244.9   0.029846124   0.24059  -0.02503  -0.28914  -0.39543
  24   41073.1    243.5   0.048455452   0.38838  -0.61527   0.03070   0.09424
  25   42916.4    233.0   0.162362289   1.24548   1.11594  -0.00862  -0.00934
  26   41477.6    241.1   0.009485280   0.07529  -0.07914   0.24175   0.10284
  27   39875.2    250.8   0.275076817   2.27105  -0.00716   0.91021   1.20105
  28   39406.6    253.8   0.309582753   2.58633  -0.08192   1.60318  -0.09715
  29   38181.9    261.9   0.180595372   1.55713   1.24126   0.11835   0.04891
  30   40727.1    245.5   0.061683924   0.49861  -0.14741  -0.56202   0.40127
  31   44996.3    222.2   0.135774732   0.99339   0.98560   0.13824   0.05350
  32   46180.7    216.5   0.461323459   3.28867   0.22952  -1.40547   1.12279
  33   44180.4    226.3   0.370469051   2.76056   1.52836   0.65143  -0.01792
  34   42537.8    235.1   0.091782595   0.71033  -0.33322   0.77249   0.05052
  35   45088.5    221.8   0.293651877   2.14409  -0.13340  -0.91816  -1.13281
  36   46778.9    213.8   0.554767915   3.90424   1.96262  -0.22055  -0.06096
  37   47064.1    212.5   0.105046329   0.73480  -0.78750   0.18582   0.28303
  38   45572.6    219.4   2.841906363  20.52965  -0.00938   3.10060   3.30391
  39   48256.4    207.2   0.001179914   0.00805  -0.02292   0.08616   0.01007
  40   45167.1    221.4   0.262253009   1.91150   0.71005   1.02459  -0.59795
  41   45550.0    219.5   0.367797409   2.65825  -1.47874   0.58593  -0.35814
  42   45553.9    219.5   0.046228532   0.33409   0.09922  -0.56407  -0.07793
  43   45228.8    221.1   0.009919416   0.07220  -0.19385  -0.15730  -0.09941
  44   46513.9    215.0   0.422071654   2.98730  -1.71515  -0.21312  -0.01162
  45   45526.3    219.7   0.234881809   1.69849  -0.03951  -1.29869  -0.10160
  46   45250.5    221.0   0.021718395   0.15801   0.10985  -0.37245  -0.08499
  47   45354.4    220.5   0.259251968   1.88182  -0.01426  -1.25394  -0.55610
  48   44846.1    223.0   0.108654819   0.79763  -0.88817  -0.04310  -0.08321
  49   46796.1    213.7   0.194294110   1.36686  -1.16882   0.02371  -0.01246
  50   46345.3    215.8   0.039444336   0.28019   0.43602  -0.17422  -0.24440
  51   48467.7    206.3   0.017916176   0.12169  -0.15151   0.31406   0.01040
  52   46912.2    213.2   0.019252914   0.13511  -0.19765  -0.08474  -0.29810
  53   46123.0    216.8   0.019784882   0.14122  -0.20204  -0.29040   0.12674
  54   48049.7    208.1   0.002513473   0.01722  -0.11510  -0.04599   0.04310
  55   47443.0    210.8   0.039912277   0.27696   0.23102  -0.32854  -0.34007
  56   47732.1    209.5   0.027362867   0.18872   0.34080   0.00065   0.26940
  57   46706.8    214.1   0.013360985   0.09417  -0.07406  -0.28905   0.07170
  58   46539.4    214.9   0.004679571   0.03310  -0.12321   0.06584  -0.11656
  59   48171.5    207.6   0.021305880   0.14561  -0.14544   0.27528   0.22063
  60   48458.9    206.4   0.012781311   0.08683  -0.10825  -0.24492  -0.12299

FINAL SINGLE POINT ENERGY     -2475.552305058126

DIPOLE MOMENT
-------------
                                X             Y             Z
Electronic contribution:     10.26315      -0.29761      -0.16411
Nuclear contribution   :    -12.16803       0.34345       0.17306
                        -----------------------------------------
Total Dipole Moment    :     -1.90488       0.04585       0.00895
                        -----------------------------------------
Magnitude (a.u.)       :      1.90545
Magnitude (Debye)      :      4.84328

Rotational constants in cm-1:     0.001908     0.001510     0.001076
Rotational constants in MHz :    57.202954    45.270471    32.244588

                             ****ORCA TERMINATED NORMALLY****
TOTAL RUN TIME: 7 days 2 hours 5 minutes 41 seconds 413 msec
