                         Program Version 5.0.2 -  RELEASE  -
|  1> %maxcore 3200
|  2> %pal
|  3>  nprocs= 8
|  4> end
|  5> ! RI-B2PLYP D3BJ def2-TZVP def2/J def2-TZVP/C RIJCOSX CPCM TightSCF
|  6> %TDDFT DCORR 4
|  7>    NROOTS   30
|  8>
|  9>    TDA      FALSE
| 10> END
| 11>
| 12> %CPCM
| 13>    SMD          TRUE
| 14>    SMDsolvent   "ACETONITRILE"
| 15> END
| 16>
| 17>
| 18> * xyz 1 1
| 19> C                  -1.10789000    3.65794600    0.41552300
| 20> C                  -1.69725000    2.43847600    0.22388400
| 21> C                  -0.90318500    1.30743000   -0.03603200
| 22> C                   0.51474800    1.44127900   -0.12342700
| 23> C                   1.07669600    2.72230600    0.11122100
| 24> C                   0.28899300    3.80398200    0.37168000
| 25> C                   1.30499300    0.31196400   -0.40730200
| 26> C                   0.68102700   -0.93675500   -0.58472000
| 27> C                  -0.73667200   -1.04250900   -0.45976000
| 28> C                  -1.36088000   -2.29273000   -0.61589200
| 29> H                  -2.43156900   -2.37493100   -0.50646300
| 30> C                  -0.61110600   -3.39870200   -0.90937900
| 31> C                   0.78162600   -3.30928200   -1.07363300
| 32> C                   1.40785300   -2.10861100   -0.91735500
| 33> H                  -1.73136600    4.51950100    0.61592300
| 34> H                  -2.77078600    2.33939400    0.27517400
| 35> H                   2.15152600    2.82824600    0.09071700
| 36> H                   0.73597500    4.77227600    0.55074400
| 37> H                  -1.10516700   -4.35420600   -1.02807900
| 38> H                   1.35198700   -4.19158100   -1.32991500
| 39> H                   2.47648700   -2.03293800   -1.05663800
| 40> N                  -1.47855000    0.07667200   -0.19737600
| 41> C                   2.77031500    0.43557600   -0.51746300
| 42> C                   3.60561500   -0.24449700    0.36675800
| 43> C                   3.34003100    1.23748300   -1.50810600
| 44> C                   4.99543100   -0.13343600    0.29629500
| 45> C                   4.71677400    1.33983800   -1.61160800
| 46> C                   5.53220500    0.66649600   -0.71589600
| 47> H                   5.15173500    1.94952500   -2.39301800
| 48> H                   3.16090000   -0.86130500    1.13936300
| 49> H                   2.69869900    1.76514000   -2.20349100
| 50> C                  -2.91648700   -0.04387400   -0.08772400
| 51> C                  -3.48905800   -0.26548700    1.15020900
| 52> C                  -3.70110500    0.06852100   -1.22706700
| 53> C                  -4.86618500   -0.37708900    1.26413100
| 54> H                  -2.85994100   -0.34942700    2.02740300
| 55> C                  -5.07132100   -0.04156500   -1.12003900
| 56> H                  -3.23486300    0.24150900   -2.18872100
| 57> C                  -5.66390700   -0.26420000    0.12592700
| 58> H                  -5.30724100   -0.54963500    2.23497100
| 59> H                  -5.70343100    0.04318100   -1.99401200
| 60> O                  -7.00839100   -0.35516100    0.13090900
| 61> C                  -7.65015200   -0.57642400    1.37840000
| 62> H                  -8.71513000   -0.61296100    1.16764300
| 63> H                  -7.33925300   -1.52328000    1.82538300
| 64> H                  -7.45003400    0.23613200    2.08016400
| 65> H                   6.60774100    0.76949100   -0.81771100
| 66> B                   5.89393600   -0.88993800    1.32750200
| 67> O                   7.25611000   -0.79016500    1.37766700
| 68> O                   5.27828100   -1.69989600    2.23764400
| 69> H                   7.63084100   -0.19658400    0.71876200
| 70> H                   5.90840000   -2.11960400    2.83441500
| 71> *
| 72>
| 73>
| 74>                          ****END OF INPUT****

CARTESIAN COORDINATES (ANGSTROEM)
---------------------------------
  C     -1.107890    3.657946    0.415523
  C     -1.697250    2.438476    0.223884
  C     -0.903185    1.307430   -0.036032
  C      0.514748    1.441279   -0.123427
  C      1.076696    2.722306    0.111221
  C      0.288993    3.803982    0.371680
  C      1.304993    0.311964   -0.407302
  C      0.681027   -0.936755   -0.584720
  C     -0.736672   -1.042509   -0.459760
  C     -1.360880   -2.292730   -0.615892
  H     -2.431569   -2.374931   -0.506463
  C     -0.611106   -3.398702   -0.909379
  C      0.781626   -3.309282   -1.073633
  C      1.407853   -2.108611   -0.917355
  H     -1.731366    4.519501    0.615923
  H     -2.770786    2.339394    0.275174
  H      2.151526    2.828246    0.090717
  H      0.735975    4.772276    0.550744
  H     -1.105167   -4.354206   -1.028079
  H      1.351987   -4.191581   -1.329915
  H      2.476487   -2.032938   -1.056638
  N     -1.478550    0.076672   -0.197376
  C      2.770315    0.435576   -0.517463
  C      3.605615   -0.244497    0.366758
  C      3.340031    1.237483   -1.508106
  C      4.995431   -0.133436    0.296295
  C      4.716774    1.339838   -1.611608
  C      5.532205    0.666496   -0.715896
  H      5.151735    1.949525   -2.393018
  H      3.160900   -0.861305    1.139363
  H      2.698699    1.765140   -2.203491
  C     -2.916487   -0.043874   -0.087724
  C     -3.489058   -0.265487    1.150209
  C     -3.701105    0.068521   -1.227067
  C     -4.866185   -0.377089    1.264131
  H     -2.859941   -0.349427    2.027403
  C     -5.071321   -0.041565   -1.120039
  H     -3.234863    0.241509   -2.188721
  C     -5.663907   -0.264200    0.125927
  H     -5.307241   -0.549635    2.234971
  H     -5.703431    0.043181   -1.994012
  O     -7.008391   -0.355161    0.130909
  C     -7.650152   -0.576424    1.378400
  H     -8.715130   -0.612961    1.167643
  H     -7.339253   -1.523280    1.825383
  H     -7.450034    0.236132    2.080164
  H      6.607741    0.769491   -0.817711
  B      5.893936   -0.889938    1.327502
  O      7.256110   -0.790165    1.377667
  O      5.278281   -1.699896    2.237644
  H      7.630841   -0.196584    0.718762
  H      5.908400   -2.119604    2.834415

 Total Charge           Charge          ....    1
 Multiplicity           Mult            ....    1
 Number of Electrons    NEL             ....  212
 Basis Dimension        Dim             .... 1087

ORBITAL ENERGIES
----------------

  NO   OCC          E(Eh)            E(eV)
   0   2.0000     -19.760290      -537.7048
   1   2.0000     -19.737188      -537.0762
   2   2.0000     -19.732535      -536.9496
   3   2.0000     -14.939613      -406.5275
   4   2.0000     -10.708025      -291.3802
   5   2.0000     -10.708001      -291.3795
   6   2.0000     -10.693241      -290.9779
   7   2.0000     -10.691937      -290.9424
   8   2.0000     -10.665935      -290.2349
   9   2.0000     -10.661562      -290.1158
  10   2.0000     -10.661537      -290.1152
  11   2.0000     -10.657247      -289.9984
  12   2.0000     -10.644707      -289.6572
  13   2.0000     -10.644681      -289.6565
  14   2.0000     -10.643996      -289.6379
  15   2.0000     -10.640888      -289.5533
  16   2.0000     -10.640784      -289.5504
  17   2.0000     -10.634693      -289.3847
  18   2.0000     -10.634593      -289.3820
  19   2.0000     -10.634548      -289.3808
  20   2.0000     -10.633931      -289.3640
  21   2.0000     -10.633566      -289.3540
  22   2.0000     -10.631934      -289.3096
  23   2.0000     -10.630649      -289.2747
  24   2.0000     -10.630547      -289.2719
  25   2.0000     -10.630091      -289.2595
  26   2.0000     -10.623908      -289.0912
  27   2.0000     -10.623790      -289.0880
  28   2.0000     -10.622724      -289.0590
  29   2.0000     -10.610647      -288.7304
  30   2.0000      -7.141542      -194.3312
  31   2.0000      -1.220495       -33.2114
  32   2.0000      -1.184654       -32.2361
  33   2.0000      -1.166635       -31.7457
  34   2.0000      -1.148032       -31.2395
  35   2.0000      -1.030255       -28.0347
  36   2.0000      -1.013940       -27.5907
  37   2.0000      -0.998591       -27.1731
  38   2.0000      -0.985791       -26.8247
  39   2.0000      -0.954312       -25.9681
  40   2.0000      -0.906381       -24.6639
  41   2.0000      -0.893197       -24.3051
  42   2.0000      -0.889026       -24.1916
  43   2.0000      -0.880956       -23.9720
  44   2.0000      -0.873669       -23.7737
  45   2.0000      -0.871585       -23.7170
  46   2.0000      -0.856512       -23.3069
  47   2.0000      -0.808866       -22.0104
  48   2.0000      -0.789101       -21.4725
  49   2.0000      -0.764442       -20.8015
  50   2.0000      -0.751428       -20.4474
  51   2.0000      -0.725362       -19.7381
  52   2.0000      -0.716466       -19.4960
  53   2.0000      -0.710573       -19.3357
  54   2.0000      -0.706591       -19.2273
  55   2.0000      -0.680223       -18.5098
  56   2.0000      -0.661730       -18.0066
  57   2.0000      -0.659822       -17.9547
  58   2.0000      -0.646818       -17.6008
  59   2.0000      -0.636757       -17.3271
  60   2.0000      -0.629455       -17.1283
  61   2.0000      -0.610812       -16.6210
  62   2.0000      -0.597562       -16.2605
  63   2.0000      -0.588809       -16.0223
  64   2.0000      -0.580725       -15.8023
  65   2.0000      -0.568545       -15.4709
  66   2.0000      -0.562694       -15.3117
  67   2.0000      -0.559474       -15.2241
  68   2.0000      -0.549296       -14.9471
  69   2.0000      -0.547226       -14.8908
  70   2.0000      -0.531392       -14.4599
  71   2.0000      -0.530660       -14.4400
  72   2.0000      -0.527984       -14.3672
  73   2.0000      -0.523600       -14.2479
  74   2.0000      -0.522175       -14.2091
  75   2.0000      -0.516793       -14.0626
  76   2.0000      -0.508474       -13.8363
  77   2.0000      -0.506086       -13.7713
  78   2.0000      -0.497595       -13.5402
  79   2.0000      -0.485275       -13.2050
  80   2.0000      -0.476645       -12.9702
  81   2.0000      -0.475642       -12.9429
  82   2.0000      -0.465431       -12.6650
  83   2.0000      -0.456989       -12.4353
  84   2.0000      -0.454857       -12.3773
  85   2.0000      -0.453829       -12.3493
  86   2.0000      -0.451844       -12.2953
  87   2.0000      -0.443492       -12.0680
  88   2.0000      -0.440588       -11.9890
  89   2.0000      -0.434403       -11.8207
  90   2.0000      -0.432134       -11.7590
  91   2.0000      -0.428135       -11.6501
  92   2.0000      -0.414723       -11.2852
  93   2.0000      -0.408552       -11.1173
  94   2.0000      -0.401656       -10.9296
  95   2.0000      -0.399748       -10.8777
  96   2.0000      -0.394339       -10.7305
  97   2.0000      -0.393691       -10.7129
  98   2.0000      -0.372988       -10.1495
  99   2.0000      -0.327676        -8.9165
 100   2.0000      -0.309229        -8.4145
 101   2.0000      -0.306791        -8.3482
 102   2.0000      -0.305066        -8.3013
 103   2.0000      -0.302106        -8.2207
 104   2.0000      -0.278041        -7.5659
 105   2.0000      -0.272297        -7.4096
 106   0.0000      -0.073002        -1.9865
 107   0.0000       0.000425         0.0116
 108   0.0000       0.008127         0.2212
 109   0.0000       0.020848         0.5673
 110   0.0000       0.028287         0.7697

MULLIKEN ATOMIC CHARGES
-----------------------
   0 C :   -0.100185
   1 C :   -0.224397
   2 C :    0.162921
   3 C :    0.097223
   4 C :   -0.248170
   5 C :   -0.154522
   6 C :    0.319289
   7 C :    0.095807
   8 C :    0.166460
   9 C :   -0.224509
  10 H :    0.186163
  11 C :   -0.100205
  12 C :   -0.155723
  13 C :   -0.245063
  14 H :    0.175578
  15 H :    0.185593
  16 H :    0.192675
  17 H :    0.169556
  18 H :    0.175371
  19 H :    0.169619
  20 H :    0.192387
  21 N :    0.144095
  22 C :    0.068698
  23 C :   -0.316921
  24 C :   -0.268129
  25 C :   -0.004517
  26 C :   -0.154665
  27 C :   -0.214213
  28 H :    0.162237
  29 H :    0.167636
  30 H :    0.174049
  31 C :    0.070288
  32 C :   -0.242713
  33 C :   -0.218738
  34 C :   -0.230861
  35 H :    0.168022
  36 C :   -0.194650
  37 H :    0.164895
  38 C :    0.374960
  39 H :    0.172450
  40 H :    0.152179
  41 O :   -0.328163
  42 C :   -0.195321
  43 H :    0.153568
  44 H :    0.139280
  45 H :    0.139828
  46 H :    0.144971
  47 B :    0.452690
  48 O :   -0.509964
  49 O :   -0.529388
  50 H :    0.360898
  51 H :    0.361632
Sum of atomic charges:    1.0000000

LOEWDIN ATOMIC CHARGES
----------------------
   0 C :   -0.081720
   1 C :   -0.096252
   2 C :   -0.058312
   3 C :   -0.049769
   4 C :   -0.060325
   5 C :   -0.124003
   6 C :    0.060899
   7 C :   -0.049448
   8 C :   -0.058211
   9 C :   -0.096395
  10 H :    0.170060
  11 C :   -0.081682
  12 C :   -0.124190
  13 C :   -0.059713
  14 H :    0.162946
  15 H :    0.170059
  16 H :    0.169512
  17 H :    0.158685
  18 H :    0.162914
  19 H :    0.158694
  20 H :    0.169696
  21 N :    0.361180
  22 C :   -0.100189
  23 C :   -0.028338
  24 C :   -0.075115
  25 C :   -0.070969
  26 C :   -0.130306
  27 C :   -0.075880
  28 H :    0.155399
  29 H :    0.168559
  30 H :    0.163763
  31 C :   -0.172297
  32 C :   -0.086956
  33 C :   -0.089730
  34 C :   -0.124574
  35 H :    0.165572
  36 C :   -0.108367
  37 H :    0.165286
  38 C :   -0.238493
  39 H :    0.161754
  40 H :    0.157980
  41 O :    0.215646
  42 C :   -0.297531
  43 H :    0.116581
  44 H :    0.112708
  45 H :    0.112829
  46 H :    0.157115
  47 B :   -0.828664
  48 O :    0.161984
  49 O :    0.164683
  50 H :    0.220201
  51 H :    0.222726

  Mayer bond orders larger than 0.100000
B(  0-C ,  1-C ) :   1.5256 B(  0-C ,  5-C ) :   1.2242 B(  0-C , 14-H ) :   0.9706
B(  1-C ,  2-C ) :   1.2483 B(  1-C , 15-H ) :   0.9670 B(  2-C ,  3-C ) :   1.2630
B(  2-C , 21-N ) :   1.2310 B(  3-C ,  4-C ) :   1.1895 B(  3-C ,  6-C ) :   1.1797
B(  4-C ,  5-C ) :   1.5822 B(  4-C , 16-H ) :   0.9574 B(  5-C , 17-H ) :   0.9824
B(  6-C ,  7-C ) :   1.1839 B(  6-C , 22-C ) :   0.8296 B(  7-C ,  8-C ) :   1.2564
B(  7-C , 13-C ) :   1.1902 B(  8-C ,  9-C ) :   1.2481 B(  8-C , 21-N ) :   1.2311
B(  9-C , 10-H ) :   0.9672 B(  9-C , 11-C ) :   1.5238 B( 11-C , 12-C ) :   1.2240
B( 11-C , 18-H ) :   0.9711 B( 12-C , 13-C ) :   1.5858 B( 12-C , 19-H ) :   0.9816
B( 13-C , 20-H ) :   0.9558 B( 21-N , 31-C ) :   0.6923 B( 22-C , 23-C ) :   1.3182
B( 22-C , 24-C ) :   1.3413 B( 23-C , 25-C ) :   1.3543 B( 23-C , 29-H ) :   0.9951
B( 24-C , 26-C ) :   1.4364 B( 24-C , 30-H ) :   0.9885 B( 25-C , 27-C ) :   1.3586
B( 25-C , 47-B ) :   1.0098 B( 26-C , 27-C ) :   1.3892 B( 26-C , 28-H ) :   0.9834
B( 27-C , 46-H ) :   0.9766 B( 31-C , 32-C ) :   1.4961 B( 31-C , 33-C ) :   1.4458
B( 32-C , 34-C ) :   1.3696 B( 32-C , 35-H ) :   0.9757 B( 33-C , 36-C ) :   1.4514
B( 33-C , 37-H ) :   0.9920 B( 34-C , 38-C ) :   1.3052 B( 34-C , 39-H ) :   0.9706
B( 36-C , 38-C ) :   1.3185 B( 36-C , 40-H ) :   0.9951 B( 38-C , 41-O ) :   1.1251
B( 41-O , 42-C ) :   0.8861 B( 42-C , 43-H ) :   0.9728 B( 42-C , 44-H ) :   0.9706
B( 42-C , 45-H ) :   0.9707 B( 47-B , 48-O ) :   1.2650 B( 47-B , 49-O ) :   1.2570
B( 48-O , 50-H ) :   0.8572 B( 49-O , 51-H ) :   0.8529

MP2 TOTAL ENERGY:    -1308.082977515 Eh

-----------------------------------------------------------------------------
         ABSORPTION SPECTRUM VIA TRANSITION ELECTRIC DIPOLE MOMENTS
-----------------------------------------------------------------------------
State   Energy    Wavelength  fosc         T2        TX        TY        TZ
        (cm-1)      (nm)                 (au**2)    (au)      (au)      (au)
-----------------------------------------------------------------------------
   1   23352.4    428.2   0.233450667   3.29109  -1.80532  -0.13000   0.12255
   2   24254.1    412.3   0.000277871   0.00377  -0.00756   0.05842   0.01736
   3   29641.6    337.4   0.326672871   3.62817  -0.15961   1.86371   0.35953
   4   29426.1    339.8   0.078591523   0.87926  -0.93034  -0.11474   0.02361
   5   30373.0    329.2   0.008714186   0.09445  -0.06122  -0.30104   0.00889
   6   31324.9    319.2   0.021199346   0.22280  -0.03248   0.38338   0.27343
   7   33278.5    300.5   0.019822127   0.19609   0.01123  -0.42413  -0.12682
   8   38612.7    259.0   0.078980546   0.67339  -0.03730   0.50277   0.64747
   9   38942.1    256.8   1.138739951   9.62678   0.10042  -3.06421  -0.47677
  10   39904.6    250.6   0.084833398   0.69987  -0.46012   0.62392   0.31446
  11   44846.2    223.0   0.061928962   0.45462   0.28583  -0.44687   0.41619
  12   45847.8    218.1   0.251230782   1.80397  -1.33160   0.11667   0.13116
  13   43282.1    231.0   0.042223535   0.32116  -0.02638   0.56541   0.02785
  14   43252.9    231.2   0.071844147   0.54683  -0.72614   0.00095  -0.13981
  15   44478.9    224.8   0.071947700   0.53252   0.63201  -0.22847   0.28441
  16   40660.2    245.9   0.000921066   0.00746   0.06508  -0.05609   0.00870
  17   46095.4    216.9   0.002373599   0.01695   0.02230  -0.09668   0.08431
  18   44038.5    227.1   0.042503226   0.31773   0.46956   0.21196  -0.22874
  19   44986.8    222.3   0.152548859   1.11635  -1.02947  -0.16715  -0.16911
  20   46272.3    216.1   0.282240500   2.00804  -1.29171  -0.31679   0.48905
  21   46431.2    215.4   0.202460922   1.43551   1.17157  -0.10417   0.22822
  22   47196.7    211.9   0.103073997   0.71897  -0.73166  -0.14621   0.40283
  23   49275.9    202.9   1.484386104   9.91718   3.14734   0.07169   0.07952
  24   49915.2    200.3   0.071166151   0.46937  -0.38514  -0.43170   0.36697
  25   49567.4    201.7   0.151410007   1.00562   0.01203   0.45266  -0.89475
  26   46704.9    214.1   0.136110915   0.95941   0.21583   0.36298  -0.88379
  27   48068.1    208.0   0.045517269   0.31174  -0.17477   0.51699   0.11797
  28   47832.5    209.1   0.005979818   0.04116   0.14144   0.09397   0.11100
  29   48212.5    207.4   0.105000461   0.71698   0.03723  -0.69551   0.48152
  30   46613.0    214.5   0.041494413   0.29306  -0.07447   0.21719   0.49025

Dispersion correction           -0.061999750
FINAL SINGLE POINT ENERGY     -1306.392656811104

DIPOLE MOMENT
-------------
                                X             Y             Z
Electronic contribution:     14.44166      -0.31310      -1.26614
Nuclear contribution   :    -15.20823       0.95575       1.01498
                        -----------------------------------------
Total Dipole Moment    :     -0.76657       0.64265      -0.25117
                        -----------------------------------------
Magnitude (a.u.)       :      1.03137
Magnitude (Debye)      :      2.62153

Rotational constants in cm-1:     0.010590     0.002430     0.002180
Rotational constants in MHz :   317.490030    72.863317    65.347730

                             ****ORCA TERMINATED NORMALLY****
TOTAL RUN TIME: 0 days 2 hours 29 minutes 12 seconds 342 msec
