                         Program Version 5.0.2 -  RELEASE  -
|  1> %maxcore 3200
|  2> %pal
|  3>  nprocs= 8
|  4> end
|  5> ! RI-wB2PLYP def2-TZVP def2/J def2-TZVP/C RIJCOSX CPCM TightSCF
|  6> %TDDFT DCORR 1
|  7>    NROOTS   30
|  8>
|  9>    TDA      FALSE
| 10> END
| 11>
| 12> %CPCM
| 13>    SMD          TRUE
| 14>    SMDsolvent   "ACETONITRILE"
| 15> END
| 16>
| 17>
| 18> * xyz 1 1
| 19> C                  -1.10789000    3.65794600    0.41552300
| 20> C                  -1.69725000    2.43847600    0.22388400
| 21> C                  -0.90318500    1.30743000   -0.03603200
| 22> C                   0.51474800    1.44127900   -0.12342700
| 23> C                   1.07669600    2.72230600    0.11122100
| 24> C                   0.28899300    3.80398200    0.37168000
| 25> C                   1.30499300    0.31196400   -0.40730200
| 26> C                   0.68102700   -0.93675500   -0.58472000
| 27> C                  -0.73667200   -1.04250900   -0.45976000
| 28> C                  -1.36088000   -2.29273000   -0.61589200
| 29> H                  -2.43156900   -2.37493100   -0.50646300
| 30> C                  -0.61110600   -3.39870200   -0.90937900
| 31> C                   0.78162600   -3.30928200   -1.07363300
| 32> C                   1.40785300   -2.10861100   -0.91735500
| 33> H                  -1.73136600    4.51950100    0.61592300
| 34> H                  -2.77078600    2.33939400    0.27517400
| 35> H                   2.15152600    2.82824600    0.09071700
| 36> H                   0.73597500    4.77227600    0.55074400
| 37> H                  -1.10516700   -4.35420600   -1.02807900
| 38> H                   1.35198700   -4.19158100   -1.32991500
| 39> H                   2.47648700   -2.03293800   -1.05663800
| 40> N                  -1.47855000    0.07667200   -0.19737600
| 41> C                   2.77031500    0.43557600   -0.51746300
| 42> C                   3.60561500   -0.24449700    0.36675800
| 43> C                   3.34003100    1.23748300   -1.50810600
| 44> C                   4.99543100   -0.13343600    0.29629500
| 45> C                   4.71677400    1.33983800   -1.61160800
| 46> C                   5.53220500    0.66649600   -0.71589600
| 47> H                   5.15173500    1.94952500   -2.39301800
| 48> H                   3.16090000   -0.86130500    1.13936300
| 49> H                   2.69869900    1.76514000   -2.20349100
| 50> C                  -2.91648700   -0.04387400   -0.08772400
| 51> C                  -3.48905800   -0.26548700    1.15020900
| 52> C                  -3.70110500    0.06852100   -1.22706700
| 53> C                  -4.86618500   -0.37708900    1.26413100
| 54> H                  -2.85994100   -0.34942700    2.02740300
| 55> C                  -5.07132100   -0.04156500   -1.12003900
| 56> H                  -3.23486300    0.24150900   -2.18872100
| 57> C                  -5.66390700   -0.26420000    0.12592700
| 58> H                  -5.30724100   -0.54963500    2.23497100
| 59> H                  -5.70343100    0.04318100   -1.99401200
| 60> O                  -7.00839100   -0.35516100    0.13090900
| 61> C                  -7.65015200   -0.57642400    1.37840000
| 62> H                  -8.71513000   -0.61296100    1.16764300
| 63> H                  -7.33925300   -1.52328000    1.82538300
| 64> H                  -7.45003400    0.23613200    2.08016400
| 65> H                   6.60774100    0.76949100   -0.81771100
| 66> B                   5.89393600   -0.88993800    1.32750200
| 67> O                   7.25611000   -0.79016500    1.37766700
| 68> O                   5.27828100   -1.69989600    2.23764400
| 69> H                   7.63084100   -0.19658400    0.71876200
| 70> H                   5.90840000   -2.11960400    2.83441500
| 71> *
| 72>
| 73>
| 74>                          ****END OF INPUT****

CARTESIAN COORDINATES (ANGSTROEM)
---------------------------------
  C     -1.107890    3.657946    0.415523
  C     -1.697250    2.438476    0.223884
  C     -0.903185    1.307430   -0.036032
  C      0.514748    1.441279   -0.123427
  C      1.076696    2.722306    0.111221
  C      0.288993    3.803982    0.371680
  C      1.304993    0.311964   -0.407302
  C      0.681027   -0.936755   -0.584720
  C     -0.736672   -1.042509   -0.459760
  C     -1.360880   -2.292730   -0.615892
  H     -2.431569   -2.374931   -0.506463
  C     -0.611106   -3.398702   -0.909379
  C      0.781626   -3.309282   -1.073633
  C      1.407853   -2.108611   -0.917355
  H     -1.731366    4.519501    0.615923
  H     -2.770786    2.339394    0.275174
  H      2.151526    2.828246    0.090717
  H      0.735975    4.772276    0.550744
  H     -1.105167   -4.354206   -1.028079
  H      1.351987   -4.191581   -1.329915
  H      2.476487   -2.032938   -1.056638
  N     -1.478550    0.076672   -0.197376
  C      2.770315    0.435576   -0.517463
  C      3.605615   -0.244497    0.366758
  C      3.340031    1.237483   -1.508106
  C      4.995431   -0.133436    0.296295
  C      4.716774    1.339838   -1.611608
  C      5.532205    0.666496   -0.715896
  H      5.151735    1.949525   -2.393018
  H      3.160900   -0.861305    1.139363
  H      2.698699    1.765140   -2.203491
  C     -2.916487   -0.043874   -0.087724
  C     -3.489058   -0.265487    1.150209
  C     -3.701105    0.068521   -1.227067
  C     -4.866185   -0.377089    1.264131
  H     -2.859941   -0.349427    2.027403
  C     -5.071321   -0.041565   -1.120039
  H     -3.234863    0.241509   -2.188721
  C     -5.663907   -0.264200    0.125927
  H     -5.307241   -0.549635    2.234971
  H     -5.703431    0.043181   -1.994012
  O     -7.008391   -0.355161    0.130909
  C     -7.650152   -0.576424    1.378400
  H     -8.715130   -0.612961    1.167643
  H     -7.339253   -1.523280    1.825383
  H     -7.450034    0.236132    2.080164
  H      6.607741    0.769491   -0.817711
  B      5.893936   -0.889938    1.327502
  O      7.256110   -0.790165    1.377667
  O      5.278281   -1.699896    2.237644
  H      7.630841   -0.196584    0.718762
  H      5.908400   -2.119604    2.834415

 Total Charge           Charge          ....    1
 Multiplicity           Mult            ....    1
 Number of Electrons    NEL             ....  212
 Basis Dimension        Dim             .... 1087

ORBITAL ENERGIES
----------------

  NO   OCC          E(Eh)            E(eV)
   0   2.0000     -19.832552      -539.6712
   1   2.0000     -19.810373      -539.0676
   2   2.0000     -19.805534      -538.9360
   3   2.0000     -15.012467      -408.5100
   4   2.0000     -10.782857      -293.4165
   5   2.0000     -10.782825      -293.4156
   6   2.0000     -10.770339      -293.0758
   7   2.0000     -10.765234      -292.9369
   8   2.0000     -10.737824      -292.1910
   9   2.0000     -10.733145      -292.0637
  10   2.0000     -10.733119      -292.0630
  11   2.0000     -10.726962      -291.8955
  12   2.0000     -10.717625      -291.6414
  13   2.0000     -10.717590      -291.6405
  14   2.0000     -10.716594      -291.6133
  15   2.0000     -10.713666      -291.5337
  16   2.0000     -10.713564      -291.5309
  17   2.0000     -10.707108      -291.3552
  18   2.0000     -10.706220      -291.3311
  19   2.0000     -10.706047      -291.3264
  20   2.0000     -10.705488      -291.3111
  21   2.0000     -10.705444      -291.3099
  22   2.0000     -10.704653      -291.2884
  23   2.0000     -10.702393      -291.2269
  24   2.0000     -10.701246      -291.1957
  25   2.0000     -10.701143      -291.1929
  26   2.0000     -10.695395      -291.0365
  27   2.0000     -10.695155      -291.0300
  28   2.0000     -10.693956      -290.9973
  29   2.0000     -10.682850      -290.6951
  30   2.0000      -7.212532      -196.2630
  31   2.0000      -1.302204       -35.4348
  32   2.0000      -1.266131       -34.4532
  33   2.0000      -1.251460       -34.0539
  34   2.0000      -1.228059       -33.4172
  35   2.0000      -1.115836       -30.3634
  36   2.0000      -1.098674       -29.8964
  37   2.0000      -1.083142       -29.4738
  38   2.0000      -1.069611       -29.1056
  39   2.0000      -1.037925       -28.2434
  40   2.0000      -0.988026       -26.8855
  41   2.0000      -0.974678       -26.5223
  42   2.0000      -0.970276       -26.4026
  43   2.0000      -0.962160       -26.1817
  44   2.0000      -0.954364       -25.9696
  45   2.0000      -0.952882       -25.9292
  46   2.0000      -0.936387       -25.4804
  47   2.0000      -0.887477       -24.1495
  48   2.0000      -0.867225       -23.5984
  49   2.0000      -0.841637       -22.9021
  50   2.0000      -0.828985       -22.5578
  51   2.0000      -0.801947       -21.8221
  52   2.0000      -0.793296       -21.5867
  53   2.0000      -0.786173       -21.3929
  54   2.0000      -0.782215       -21.2851
  55   2.0000      -0.755246       -20.5513
  56   2.0000      -0.736117       -20.0308
  57   2.0000      -0.734743       -19.9934
  58   2.0000      -0.720583       -19.6081
  59   2.0000      -0.710626       -19.3371
  60   2.0000      -0.703550       -19.1446
  61   2.0000      -0.682617       -18.5749
  62   2.0000      -0.669887       -18.2286
  63   2.0000      -0.662579       -18.0297
  64   2.0000      -0.650995       -17.7145
  65   2.0000      -0.639321       -17.3968
  66   2.0000      -0.633631       -17.2420
  67   2.0000      -0.630474       -17.1561
  68   2.0000      -0.622785       -16.9468
  69   2.0000      -0.619482       -16.8570
  70   2.0000      -0.602759       -16.4019
  71   2.0000      -0.600198       -16.3322
  72   2.0000      -0.597902       -16.2697
  73   2.0000      -0.593788       -16.1578
  74   2.0000      -0.590580       -16.0705
  75   2.0000      -0.586021       -15.9464
  76   2.0000      -0.577319       -15.7097
  77   2.0000      -0.575766       -15.6674
  78   2.0000      -0.565929       -15.3997
  79   2.0000      -0.553424       -15.0594
  80   2.0000      -0.549487       -14.9523
  81   2.0000      -0.542669       -14.7668
  82   2.0000      -0.531032       -14.4501
  83   2.0000      -0.526182       -14.3181
  84   2.0000      -0.524943       -14.2844
  85   2.0000      -0.524114       -14.2619
  86   2.0000      -0.521591       -14.1932
  87   2.0000      -0.512048       -13.9335
  88   2.0000      -0.506536       -13.7836
  89   2.0000      -0.499167       -13.5830
  90   2.0000      -0.496838       -13.5196
  91   2.0000      -0.494576       -13.4581
  92   2.0000      -0.481544       -13.1035
  93   2.0000      -0.472213       -12.8496
  94   2.0000      -0.471163       -12.8210
  95   2.0000      -0.464026       -12.6268
  96   2.0000      -0.460636       -12.5345
  97   2.0000      -0.458588       -12.4788
  98   2.0000      -0.435602       -11.8533
  99   2.0000      -0.386751       -10.5240
 100   2.0000      -0.366300        -9.9675
 101   2.0000      -0.362498        -9.8641
 102   2.0000      -0.361783        -9.8446
 103   2.0000      -0.356185        -9.6923
 104   2.0000      -0.334548        -9.1035
 105   2.0000      -0.324527        -8.8308
 106   0.0000      -0.036664        -0.9977
 107   0.0000       0.040176         1.0932
 108   0.0000       0.049747         1.3537
 109   0.0000       0.062996         1.7142
 110   0.0000       0.071332         1.9410

MULLIKEN ATOMIC CHARGES
-----------------------
   0 C :   -0.115219
   1 C :   -0.244379
   2 C :    0.174315
   3 C :    0.084539
   4 C :   -0.242099
   5 C :   -0.181169
   6 C :    0.304107
   7 C :    0.082286
   8 C :    0.177241
   9 C :   -0.244865
  10 H :    0.210388
  11 C :   -0.115342
  12 C :   -0.181577
  13 C :   -0.239953
  14 H :    0.197799
  15 H :    0.209792
  16 H :    0.216918
  17 H :    0.190979
  18 H :    0.197601
  19 H :    0.191069
  20 H :    0.216752
  21 N :    0.123061
  22 C :   -0.013560
  23 C :   -0.301347
  24 C :   -0.259390
  25 C :    0.013691
  26 C :   -0.182550
  27 C :   -0.222950
  28 H :    0.184631
  29 H :    0.194571
  30 H :    0.200559
  31 C :   -0.041311
  32 C :   -0.234635
  33 C :   -0.208479
  34 C :   -0.233404
  35 H :    0.192442
  36 C :   -0.204078
  37 H :    0.189720
  38 C :    0.347323
  39 H :    0.196445
  40 H :    0.177137
  41 O :   -0.311673
  42 C :   -0.257967
  43 H :    0.170196
  44 H :    0.157127
  45 H :    0.157699
  46 H :    0.166545
  47 B :    0.390738
  48 O :   -0.496716
  49 O :   -0.518391
  50 H :    0.366133
  51 H :    0.369253
Sum of atomic charges:    1.0000000

LOEWDIN ATOMIC CHARGES
----------------------
   0 C :   -0.081192
   1 C :   -0.102632
   2 C :   -0.056416
   3 C :   -0.054747
   4 C :   -0.061725
   5 C :   -0.130340
   6 C :    0.066783
   7 C :   -0.054449
   8 C :   -0.056311
   9 C :   -0.102806
  10 H :    0.173541
  11 C :   -0.081137
  12 C :   -0.130515
  13 C :   -0.061129
  14 H :    0.167450
  15 H :    0.173530
  16 H :    0.173480
  17 H :    0.162488
  18 H :    0.167422
  19 H :    0.162497
  20 H :    0.173665
  21 N :    0.359641
  22 C :   -0.104728
  23 C :   -0.030540
  24 C :   -0.077405
  25 C :   -0.072925
  26 C :   -0.134044
  27 C :   -0.077517
  28 H :    0.159569
  29 H :    0.172787
  30 H :    0.168269
  31 C :   -0.178876
  32 C :   -0.088396
  33 C :   -0.091417
  34 C :   -0.128819
  35 H :    0.170179
  36 C :   -0.112410
  37 H :    0.169817
  38 C :   -0.240246
  39 H :    0.165462
  40 H :    0.162121
  41 O :    0.214640
  42 C :   -0.308076
  43 H :    0.120312
  44 H :    0.116420
  45 H :    0.116544
  46 H :    0.161295
  47 B :   -0.837685
  48 O :    0.164027
  49 O :    0.166060
  50 H :    0.222684
  51 H :    0.225800

  Mayer bond orders larger than 0.100000
B(  0-C ,  1-C ) :   1.5525 B(  0-C ,  5-C ) :   1.2214 B(  0-C , 14-H ) :   0.9619
B(  1-C ,  2-C ) :   1.2275 B(  1-C , 15-H ) :   0.9584 B(  2-C ,  3-C ) :   1.2844
B(  2-C , 21-N ) :   1.2324 B(  3-C ,  4-C ) :   1.1808 B(  3-C ,  6-C ) :   1.2003
B(  4-C ,  5-C ) :   1.6086 B(  4-C , 16-H ) :   0.9415 B(  5-C , 17-H ) :   0.9731
B(  6-C ,  7-C ) :   1.2056 B(  6-C , 22-C ) :   0.8384 B(  7-C ,  8-C ) :   1.2789
B(  7-C , 13-C ) :   1.1819 B(  8-C ,  9-C ) :   1.2271 B(  8-C , 21-N ) :   1.2324
B(  9-C , 10-H ) :   0.9587 B(  9-C , 11-C ) :   1.5502 B( 11-C , 12-C ) :   1.2212
B( 11-C , 18-H ) :   0.9626 B( 12-C , 13-C ) :   1.6120 B( 12-C , 19-H ) :   0.9723
B( 13-C , 20-H ) :   0.9402 B( 21-N , 31-C ) :   0.7009 B( 22-C , 23-C ) :   1.3339
B( 22-C , 24-C ) :   1.3508 B( 23-C , 25-C ) :   1.3564 B( 23-C , 29-H ) :   0.9740
B( 24-C , 26-C ) :   1.4441 B( 24-C , 30-H ) :   0.9754 B( 25-C , 27-C ) :   1.3616
B( 25-C , 47-B ) :   1.0234 B( 26-C , 27-C ) :   1.4054 B( 26-C , 28-H ) :   0.9755
B( 27-C , 46-H ) :   0.9669 B( 31-C , 32-C ) :   1.4996 B( 31-C , 33-C ) :   1.4464
B( 32-C , 34-C ) :   1.3741 B( 32-C , 35-H ) :   0.9634 B( 33-C , 36-C ) :   1.4583
B( 33-C , 37-H ) :   0.9788 B( 34-C , 38-C ) :   1.3134 B( 34-C , 39-H ) :   0.9586
B( 36-C , 38-C ) :   1.3291 B( 36-C , 40-H ) :   0.9801 B( 38-C , 41-O ) :   1.1375
B( 41-O , 42-C ) :   0.8836 B( 42-C , 43-H ) :   0.9718 B( 42-C , 44-H ) :   0.9696
B( 42-C , 45-H ) :   0.9696 B( 47-B , 48-O ) :   1.2894 B( 47-B , 49-O ) :   1.2824
B( 48-O , 50-H ) :   0.8543 B( 49-O , 51-H ) :   0.8484

MP2 TOTAL ENERGY:    -1306.634160525 Eh

-----------------------------------------------------------------------------
         ABSORPTION SPECTRUM VIA TRANSITION ELECTRIC DIPOLE MOMENTS
-----------------------------------------------------------------------------
State   Energy    Wavelength  fosc         T2        TX        TY        TZ
        (cm-1)      (nm)                 (au**2)    (au)      (au)      (au)
-----------------------------------------------------------------------------
   1   26251.3    380.9   0.297772944   3.73431   1.92276   0.13972  -0.13335
   2   31171.4    320.8   0.352235514   3.72008  -0.13617   1.88738   0.37329
   3   35583.2    281.0   0.109525696   1.01332   0.30789  -0.93203  -0.22327
   4   35469.8    281.9   0.114953923   1.06694   0.97530   0.34013  -0.00596
   5   34207.2    292.3   0.003573677   0.03439  -0.17698   0.04621   0.03060
   6   38327.9    260.9   0.025658873   0.22039   0.14170   0.32756   0.30499
   7   40850.5    244.8   0.034530344   0.27828   0.01752   0.07112  -0.52241
   8   42600.1    234.7   1.293470171   9.99590  -0.18427   3.10532   0.56476
   9   42774.9    233.8   0.043105347   0.33176  -0.28481   0.15107   0.47730
  10   47466.0    210.7   0.137147000   0.95122  -0.82285   0.37570  -0.36467
  11   47415.8    210.9   0.148306945   1.02971   0.98335   0.07208  -0.23987
  12   43521.3    229.8   0.056046195   0.42396  -0.10233   0.64185   0.03889
  13   48464.3    206.3   0.120647042   0.81954  -0.90313  -0.01724  -0.05994
  14   47440.4    210.8   0.138415008   0.96053   0.97545  -0.03829   0.08697
  15   48326.5    206.9   0.020617511   0.14045  -0.05053   0.30135  -0.21699
  16   50131.3    199.5   0.006731306   0.04420   0.14021   0.09457  -0.12491
  17   49339.9    202.7   0.037211863   0.24829  -0.23919   0.23658  -0.36757
  18   52228.4    191.5   1.117753701   7.04555  -2.64157  -0.19737   0.16941
  19   53022.2    188.6   0.665672047   4.13312   1.47593  -0.88089   1.08572
  20   53302.0    187.6   1.115122209   6.88738   2.45996   0.65223  -0.64074
  21   53148.8    188.2   0.012189822   0.07551  -0.18645  -0.04187  -0.19746
  22   53716.0    186.2   0.416138084   2.55041   0.17256   0.25303  -1.56736
  23   54396.1    183.8   0.113856995   0.68908   0.01224  -0.81516  -0.15635
  24   53648.5    186.4   0.000824969   0.00506  -0.07073  -0.00408  -0.00653
  25   52292.1    191.2   0.085656299   0.53926   0.09125  -0.18057   0.70593
  26   55011.3    181.8   0.019831624   0.11868  -0.08813   0.13994  -0.30221
  27   55256.3    181.0   0.002610164   0.01555  -0.02673   0.11260  -0.04646
  28   55153.4    181.3   0.000692058   0.00413  -0.02691  -0.01357   0.05677
  29   57365.3    174.3   0.049850132   0.28608   0.34300   0.39082   0.12529
  30   56712.1    176.3   0.001609523   0.00934   0.00529  -0.06894   0.06754

FINAL SINGLE POINT ENERGY     -1305.028710592450

DIPOLE MOMENT
-------------
                                X             Y             Z
Electronic contribution:     14.51215      -0.30087      -1.26522
Nuclear contribution   :    -15.20823       0.95575       1.01498
                        -----------------------------------------
Total Dipole Moment    :     -0.69608       0.65488      -0.25024
                        -----------------------------------------
Magnitude (a.u.)       :      0.98794
Magnitude (Debye)      :      2.51114

Rotational constants in cm-1:     0.010590     0.002430     0.002180
Rotational constants in MHz :   317.490030    72.863317    65.347730

                             ****ORCA TERMINATED NORMALLY****
TOTAL RUN TIME: 0 days 1 hours 58 minutes 35 seconds 709 msec
