                         Program Version 5.0.2 -  RELEASE  -
|  1> %maxcore 20000
|  2> %pal
|  3>  nprocs= 6
|  4> end
|  5> ! RI-SCS-PBE-QIDH   def2-TZVP def2/J def2-TZVP/C RIJCOSX CPCM TightSCF
|  6> %TDDFT
|  7>    NROOTS   30
|  8>    dcorr 4
|  9>    doscs true
| 10>    TDA      FALSE
| 11> END
| 12>
| 13> %CPCM
| 14>    SMD          TRUE
| 15>    SMDsolvent   "ACETONITRILE"
| 16> END
| 17>
| 18>
| 19> * xyz 1 1
| 20> C                  -1.10789000    3.65794600    0.41552300
| 21> C                  -1.69725000    2.43847600    0.22388400
| 22> C                  -0.90318500    1.30743000   -0.03603200
| 23> C                   0.51474800    1.44127900   -0.12342700
| 24> C                   1.07669600    2.72230600    0.11122100
| 25> C                   0.28899300    3.80398200    0.37168000
| 26> C                   1.30499300    0.31196400   -0.40730200
| 27> C                   0.68102700   -0.93675500   -0.58472000
| 28> C                  -0.73667200   -1.04250900   -0.45976000
| 29> C                  -1.36088000   -2.29273000   -0.61589200
| 30> H                  -2.43156900   -2.37493100   -0.50646300
| 31> C                  -0.61110600   -3.39870200   -0.90937900
| 32> C                   0.78162600   -3.30928200   -1.07363300
| 33> C                   1.40785300   -2.10861100   -0.91735500
| 34> H                  -1.73136600    4.51950100    0.61592300
| 35> H                  -2.77078600    2.33939400    0.27517400
| 36> H                   2.15152600    2.82824600    0.09071700
| 37> H                   0.73597500    4.77227600    0.55074400
| 38> H                  -1.10516700   -4.35420600   -1.02807900
| 39> H                   1.35198700   -4.19158100   -1.32991500
| 40> H                   2.47648700   -2.03293800   -1.05663800
| 41> N                  -1.47855000    0.07667200   -0.19737600
| 42> C                   2.77031500    0.43557600   -0.51746300
| 43> C                   3.60561500   -0.24449700    0.36675800
| 44> C                   3.34003100    1.23748300   -1.50810600
| 45> C                   4.99543100   -0.13343600    0.29629500
| 46> C                   4.71677400    1.33983800   -1.61160800
| 47> C                   5.53220500    0.66649600   -0.71589600
| 48> H                   5.15173500    1.94952500   -2.39301800
| 49> H                   3.16090000   -0.86130500    1.13936300
| 50> H                   2.69869900    1.76514000   -2.20349100
| 51> C                  -2.91648700   -0.04387400   -0.08772400
| 52> C                  -3.48905800   -0.26548700    1.15020900
| 53> C                  -3.70110500    0.06852100   -1.22706700
| 54> C                  -4.86618500   -0.37708900    1.26413100
| 55> H                  -2.85994100   -0.34942700    2.02740300
| 56> C                  -5.07132100   -0.04156500   -1.12003900
| 57> H                  -3.23486300    0.24150900   -2.18872100
| 58> C                  -5.66390700   -0.26420000    0.12592700
| 59> H                  -5.30724100   -0.54963500    2.23497100
| 60> H                  -5.70343100    0.04318100   -1.99401200
| 61> O                  -7.00839100   -0.35516100    0.13090900
| 62> C                  -7.65015200   -0.57642400    1.37840000
| 63> H                  -8.71513000   -0.61296100    1.16764300
| 64> H                  -7.33925300   -1.52328000    1.82538300
| 65> H                  -7.45003400    0.23613200    2.08016400
| 66> H                   6.60774100    0.76949100   -0.81771100
| 67> B                   5.89393600   -0.88993800    1.32750200
| 68> O                   7.25611000   -0.79016500    1.37766700
| 69> O                   5.27828100   -1.69989600    2.23764400
| 70> H                   7.63084100   -0.19658400    0.71876200
| 71> H                   5.90840000   -2.11960400    2.83441500
| 72> *
| 73>
| 74>
| 75>                          ****END OF INPUT****

CARTESIAN COORDINATES (ANGSTROEM)
---------------------------------
  C     -1.107890    3.657946    0.415523
  C     -1.697250    2.438476    0.223884
  C     -0.903185    1.307430   -0.036032
  C      0.514748    1.441279   -0.123427
  C      1.076696    2.722306    0.111221
  C      0.288993    3.803982    0.371680
  C      1.304993    0.311964   -0.407302
  C      0.681027   -0.936755   -0.584720
  C     -0.736672   -1.042509   -0.459760
  C     -1.360880   -2.292730   -0.615892
  H     -2.431569   -2.374931   -0.506463
  C     -0.611106   -3.398702   -0.909379
  C      0.781626   -3.309282   -1.073633
  C      1.407853   -2.108611   -0.917355
  H     -1.731366    4.519501    0.615923
  H     -2.770786    2.339394    0.275174
  H      2.151526    2.828246    0.090717
  H      0.735975    4.772276    0.550744
  H     -1.105167   -4.354206   -1.028079
  H      1.351987   -4.191581   -1.329915
  H      2.476487   -2.032938   -1.056638
  N     -1.478550    0.076672   -0.197376
  C      2.770315    0.435576   -0.517463
  C      3.605615   -0.244497    0.366758
  C      3.340031    1.237483   -1.508106
  C      4.995431   -0.133436    0.296295
  C      4.716774    1.339838   -1.611608
  C      5.532205    0.666496   -0.715896
  H      5.151735    1.949525   -2.393018
  H      3.160900   -0.861305    1.139363
  H      2.698699    1.765140   -2.203491
  C     -2.916487   -0.043874   -0.087724
  C     -3.489058   -0.265487    1.150209
  C     -3.701105    0.068521   -1.227067
  C     -4.866185   -0.377089    1.264131
  H     -2.859941   -0.349427    2.027403
  C     -5.071321   -0.041565   -1.120039
  H     -3.234863    0.241509   -2.188721
  C     -5.663907   -0.264200    0.125927
  H     -5.307241   -0.549635    2.234971
  H     -5.703431    0.043181   -1.994012
  O     -7.008391   -0.355161    0.130909
  C     -7.650152   -0.576424    1.378400
  H     -8.715130   -0.612961    1.167643
  H     -7.339253   -1.523280    1.825383
  H     -7.450034    0.236132    2.080164
  H      6.607741    0.769491   -0.817711
  B      5.893936   -0.889938    1.327502
  O      7.256110   -0.790165    1.377667
  O      5.278281   -1.699896    2.237644
  H      7.630841   -0.196584    0.718762
  H      5.908400   -2.119604    2.834415

 Total Charge           Charge          ....    1
 Multiplicity           Mult            ....    1
 Number of Electrons    NEL             ....  212
 Basis Dimension        Dim             .... 1087

ORBITAL ENERGIES
----------------

  NO   OCC          E(Eh)            E(eV)
   0   2.0000     -20.041088      -545.3457
   1   2.0000     -20.015692      -544.6547
   2   2.0000     -20.010946      -544.5255
   3   2.0000     -15.187569      -413.2748
   4   2.0000     -10.917296      -297.0747
   5   2.0000     -10.917269      -297.0740
   6   2.0000     -10.904716      -296.7324
   7   2.0000     -10.898881      -296.5736
   8   2.0000     -10.872737      -295.8622
   9   2.0000     -10.868053      -295.7348
  10   2.0000     -10.868027      -295.7341
  11   2.0000     -10.859102      -295.4912
  12   2.0000     -10.851817      -295.2929
  13   2.0000     -10.851781      -295.2920
  14   2.0000     -10.851368      -295.2807
  15   2.0000     -10.847865      -295.1854
  16   2.0000     -10.847763      -295.1826
  17   2.0000     -10.841089      -295.0010
  18   2.0000     -10.840597      -294.9876
  19   2.0000     -10.840219      -294.9774
  20   2.0000     -10.839549      -294.9591
  21   2.0000     -10.839508      -294.9580
  22   2.0000     -10.839272      -294.9516
  23   2.0000     -10.836823      -294.8849
  24   2.0000     -10.835456      -294.8477
  25   2.0000     -10.835349      -294.8448
  26   2.0000     -10.829329      -294.6810
  27   2.0000     -10.828847      -294.6679
  28   2.0000     -10.827659      -294.6356
  29   2.0000     -10.817105      -294.3484
  30   2.0000      -7.303590      -198.7408
  31   2.0000      -1.301846       -35.4250
  32   2.0000      -1.264209       -34.4009
  33   2.0000      -1.245168       -33.8828
  34   2.0000      -1.225893       -33.3582
  35   2.0000      -1.104196       -30.0467
  36   2.0000      -1.086613       -29.5682
  37   2.0000      -1.071136       -29.1471
  38   2.0000      -1.057224       -28.7685
  39   2.0000      -1.024209       -27.8701
  40   2.0000      -0.972835       -26.4722
  41   2.0000      -0.959006       -26.0959
  42   2.0000      -0.955136       -25.9906
  43   2.0000      -0.946764       -25.7628
  44   2.0000      -0.939383       -25.5619
  45   2.0000      -0.937627       -25.5141
  46   2.0000      -0.920324       -25.0433
  47   2.0000      -0.868688       -23.6382
  48   2.0000      -0.848733       -23.0952
  49   2.0000      -0.821851       -22.3637
  50   2.0000      -0.808533       -22.0013
  51   2.0000      -0.780900       -21.2494
  52   2.0000      -0.772126       -21.0106
  53   2.0000      -0.765589       -20.8327
  54   2.0000      -0.761473       -20.7207
  55   2.0000      -0.733037       -19.9470
  56   2.0000      -0.713323       -19.4105
  57   2.0000      -0.710101       -19.3228
  58   2.0000      -0.696569       -18.9546
  59   2.0000      -0.685471       -18.6526
  60   2.0000      -0.677787       -18.4435
  61   2.0000      -0.658146       -17.9091
  62   2.0000      -0.644564       -17.5395
  63   2.0000      -0.635934       -17.3046
  64   2.0000      -0.627275       -17.0690
  65   2.0000      -0.614501       -16.7214
  66   2.0000      -0.608003       -16.5446
  67   2.0000      -0.604365       -16.4456
  68   2.0000      -0.596039       -16.2191
  69   2.0000      -0.592864       -16.1326
  70   2.0000      -0.575545       -15.6614
  71   2.0000      -0.573971       -15.6185
  72   2.0000      -0.571664       -15.5558
  73   2.0000      -0.567369       -15.4389
  74   2.0000      -0.564772       -15.3682
  75   2.0000      -0.559377       -15.2214
  76   2.0000      -0.550905       -14.9909
  77   2.0000      -0.549247       -14.9458
  78   2.0000      -0.539400       -14.6778
  79   2.0000      -0.526514       -14.3272
  80   2.0000      -0.520202       -14.1554
  81   2.0000      -0.516474       -14.0540
  82   2.0000      -0.505151       -13.7459
  83   2.0000      -0.501507       -13.6467
  84   2.0000      -0.497674       -13.5424
  85   2.0000      -0.493376       -13.4254
  86   2.0000      -0.490936       -13.3591
  87   2.0000      -0.482608       -13.1324
  88   2.0000      -0.479087       -13.0366
  89   2.0000      -0.472361       -12.8536
  90   2.0000      -0.470334       -12.7984
  91   2.0000      -0.466569       -12.6960
  92   2.0000      -0.452867       -12.3231
  93   2.0000      -0.445461       -12.1216
  94   2.0000      -0.445193       -12.1143
  95   2.0000      -0.437176       -11.8962
  96   2.0000      -0.432839       -11.7782
  97   2.0000      -0.430878       -11.7248
  98   2.0000      -0.405738       -11.0407
  99   2.0000      -0.357004        -9.7146
 100   2.0000      -0.337596        -9.1864
 101   2.0000      -0.334469        -9.1014
 102   2.0000      -0.333480        -9.0745
 103   2.0000      -0.329403        -8.9635
 104   2.0000      -0.307101        -8.3566
 105   2.0000      -0.298247        -8.1157
 106   0.0000      -0.061450        -1.6721
 107   0.0000       0.015041         0.4093
 108   0.0000       0.023918         0.6508
 109   0.0000       0.037394         1.0175
 110   0.0000       0.045437         1.2364

MULLIKEN ATOMIC CHARGES
-----------------------
   0 C :   -0.090980
   1 C :   -0.280245
   2 C :    0.201717
   3 C :    0.082952
   4 C :   -0.274480
   5 C :   -0.170353
   6 C :    0.347463
   7 C :    0.080795
   8 C :    0.206127
   9 C :   -0.280480
  10 H :    0.196103
  11 C :   -0.091116
  12 C :   -0.171259
  13 C :   -0.271276
  14 H :    0.187002
  15 H :    0.195217
  16 H :    0.203233
  17 H :    0.182363
  18 H :    0.186822
  19 H :    0.182483
  20 H :    0.202891
  21 N :    0.211274
  22 C :    0.069600
  23 C :   -0.355555
  24 C :   -0.298096
  25 C :    0.005503
  26 C :   -0.163522
  27 C :   -0.229859
  28 H :    0.176792
  29 H :    0.183879
  30 H :    0.187841
  31 C :    0.030461
  32 C :   -0.252512
  33 C :   -0.224179
  34 C :   -0.255102
  35 H :    0.181001
  36 C :   -0.226952
  37 H :    0.178303
  38 C :    0.392379
  39 H :    0.186334
  40 H :    0.165571
  41 O :   -0.316444
  42 C :   -0.233823
  43 H :    0.165837
  44 H :    0.149985
  45 H :    0.150587
  46 H :    0.157449
  47 B :    0.470754
  48 O :   -0.531058
  49 O :   -0.550438
  50 H :    0.373898
  51 H :    0.375112
Sum of atomic charges:    1.0000000

LOEWDIN ATOMIC CHARGES
----------------------
   0 C :   -0.079535
   1 C :   -0.101423
   2 C :   -0.057298
   3 C :   -0.055707
   4 C :   -0.060627
   5 C :   -0.128488
   6 C :    0.064606
   7 C :   -0.055394
   8 C :   -0.057196
   9 C :   -0.101585
  10 H :    0.172862
  11 C :   -0.079496
  12 C :   -0.128663
  13 C :   -0.060020
  14 H :    0.166545
  15 H :    0.172859
  16 H :    0.172627
  17 H :    0.161848
  18 H :    0.166522
  19 H :    0.161855
  20 H :    0.172799
  21 N :    0.356786
  22 C :   -0.106307
  23 C :   -0.028453
  24 C :   -0.075364
  25 C :   -0.075729
  26 C :   -0.133136
  27 C :   -0.075431
  28 H :    0.158832
  29 H :    0.172504
  30 H :    0.167613
  31 C :   -0.179362
  32 C :   -0.087196
  33 C :   -0.090068
  34 C :   -0.127247
  35 H :    0.169348
  36 C :   -0.110812
  37 H :    0.168996
  38 C :   -0.238399
  39 H :    0.164827
  40 H :    0.161495
  41 O :    0.209418
  42 C :   -0.300926
  43 H :    0.118605
  44 H :    0.115043
  45 H :    0.115163
  46 H :    0.160613
  47 B :   -0.818364
  48 O :    0.154886
  49 O :    0.157137
  50 H :    0.222645
  51 H :    0.225794

  Mayer bond orders larger than 0.100000
B(  0-C ,  1-C ) :   1.5324 B(  0-C ,  5-C ) :   1.2181 B(  0-C , 14-H ) :   0.9672
B(  1-C ,  2-C ) :   1.2519 B(  1-C , 15-H ) :   0.9696 B(  2-C ,  3-C ) :   1.2633
B(  2-C , 21-N ) :   1.2359 B(  3-C ,  4-C ) :   1.1761 B(  3-C ,  6-C ) :   1.1847
B(  3-C , 22-C ) :  -0.1012 B(  4-C ,  5-C ) :   1.5949 B(  4-C , 16-H ) :   0.9587
B(  5-C , 17-H ) :   0.9790 B(  6-C ,  7-C ) :   1.1906 B(  6-C , 22-C ) :   0.8114
B(  7-C ,  8-C ) :   1.2561 B(  7-C , 13-C ) :   1.1777 B(  7-C , 22-C ) :  -0.1056
B(  8-C ,  9-C ) :   1.2518 B(  8-C , 21-N ) :   1.2357 B(  9-C , 10-H ) :   0.9695
B(  9-C , 11-C ) :   1.5303 B( 11-C , 12-C ) :   1.2178 B( 11-C , 18-H ) :   0.9679
B( 12-C , 13-C ) :   1.5981 B( 12-C , 19-H ) :   0.9780 B( 13-C , 20-H ) :   0.9575
B( 21-N , 31-C ) :   0.7215 B( 22-C , 23-C ) :   1.3281 B( 22-C , 24-C ) :   1.3603
B( 23-C , 25-C ) :   1.3635 B( 23-C , 29-H ) :   0.9947 B( 24-C , 26-C ) :   1.4437
B( 24-C , 30-H ) :   0.9866 B( 25-C , 27-C ) :   1.3597 B( 25-C , 47-B ) :   1.0028
B( 26-C , 27-C ) :   1.3960 B( 26-C , 28-H ) :   0.9774 B( 27-C , 46-H ) :   0.9788
B( 31-C , 32-C ) :   1.5330 B( 31-C , 33-C ) :   1.4755 B( 32-C , 34-C ) :   1.3960
B( 32-C , 35-H ) :   0.9703 B( 33-C , 36-C ) :   1.4611 B( 33-C , 37-H ) :   0.9854
B( 34-C , 38-C ) :   1.3221 B( 34-C , 39-H ) :   0.9651 B( 36-C , 38-C ) :   1.3209
B( 36-C , 40-H ) :   0.9946 B( 38-C , 41-O ) :   1.1256 B( 41-O , 42-C ) :   0.8927
B( 42-C , 43-H ) :   0.9700 B( 42-C , 44-H ) :   0.9701 B( 42-C , 45-H ) :   0.9701
B( 47-B , 48-O ) :   1.2584 B( 47-B , 49-O ) :   1.2488 B( 48-O , 50-H ) :   0.8484
B( 49-O , 51-H ) :   0.8433

MP2 TOTAL ENERGY:    -1307.429619994 Eh

-----------------------------------------------------------------------------
         ABSORPTION SPECTRUM VIA TRANSITION ELECTRIC DIPOLE MOMENTS
-----------------------------------------------------------------------------
State   Energy    Wavelength  fosc         T2        TX        TY        TZ
        (cm-1)      (nm)                 (au**2)    (au)      (au)      (au)
-----------------------------------------------------------------------------
   1   23732.8    421.4   0.253688663   3.51907   1.86657   0.13556  -0.12887
   2   28768.5    347.6   0.334873686   3.83213  -0.14323   1.91556   0.37714
   3   28175.9    354.9   0.007117804   0.08317  -0.27125   0.09328   0.02977
   4   31186.7    320.6   0.087894825   0.92783  -0.96016  -0.05613   0.05270
   5   32047.1    312.0   0.049882510   0.51243  -0.06121  -0.70243  -0.12360
   6   33264.6    300.6   0.018585488   0.18394   0.02851   0.29532   0.30969
   7   37413.7    267.3   0.253072913   2.22685   0.04876  -1.49137   0.01684
   8   37940.1    263.6   0.243886083   2.11624   0.06986  -1.27352  -0.69964
   9   38928.4    256.9   0.603380298   5.10270   0.03396   2.24277   0.26748
  10   39420.2    253.7   0.218130362   1.82168  -0.47234   1.18675   0.43612
  11   46574.1    214.7   0.093119093   0.65822   0.58802  -0.37657   0.41309
  12   46563.5    214.8   0.153194479   1.08311   1.02198   0.03291  -0.19385
  13   46225.1    216.3   0.142000187   1.01132  -0.99886   0.04300  -0.10840
  14   45047.6    222.0   0.038438957   0.28092  -0.11965   0.50481  -0.10844
  15   43514.6    229.8   0.041152224   0.31134   0.54921  -0.05694   0.08038
  16   46792.9    213.7   0.006600349   0.04644  -0.14859   0.09192  -0.12613
  17   46745.0    213.9   0.036462036   0.25679  -0.08656   0.25320  -0.43033
  18   48731.7    205.2   0.745188405   5.03419   2.23213   0.19160  -0.12284
  19   44542.1    224.5   0.085379626   0.63104   0.76787   0.01464   0.20298
  20   50540.5    197.9   0.313954702   2.04504   0.15939  -0.85011   1.13884
  21   51184.2    195.4   1.629118921  10.47833  -3.22438  -0.18398   0.21874
  22   50789.7    196.9   0.068931226   0.44680   0.35328   0.41317  -0.38896
  23   49752.8    201.0   0.045248739   0.29941   0.12886  -0.51735   0.12311
  24   50235.8    199.1   0.055913642   0.36642   0.20165  -0.00464   0.57073
  25   52532.4    190.4   0.427930765   2.68177   0.05381  -0.27742   1.61305
  26   50891.3    196.5   0.001712414   0.01108  -0.00376  -0.10437  -0.01302
  27   50954.9    196.3   0.000106247   0.00069   0.02364   0.00927  -0.00645
  28   51374.9    194.6   0.040317122   0.25835  -0.11574   0.49477   0.01267
  29   52056.8    192.1   0.169899322   1.07446  -0.11973   1.02769  -0.06299
  30   51402.9    194.5   0.004780396   0.03062   0.04963   0.09745  -0.13659

FINAL SINGLE POINT ENERGY     -1305.453296996331

DIPOLE MOMENT
-------------
                                X             Y             Z
Electronic contribution:     14.50266      -0.29929      -1.27610
Nuclear contribution   :    -15.20823       0.95575       1.01498
                        -----------------------------------------
Total Dipole Moment    :     -0.70558       0.65646      -0.26112
                        -----------------------------------------
Magnitude (a.u.)       :      0.99848
Magnitude (Debye)      :      2.53793

Rotational constants in cm-1:     0.010590     0.002430     0.002180
Rotational constants in MHz :   317.490030    72.863317    65.347730

                             ****ORCA TERMINATED NORMALLY****
TOTAL RUN TIME: 0 days 8 hours 47 minutes 34 seconds 498 msec
