                         Program Version 5.0.2 -  RELEASE  -
|  1> %maxcore 20000
|  2> %pal
|  3>  nprocs= 4
|  4> end
|  5> ! RI-B2GP-PLYP   def2-TZVP def2/J def2-TZVP/C RIJCOSX CPCM TightSCF
|  6> %TDDFT
|  7>    NROOTS   30
|  8>    dcorr 4
|  9>    TDA      FALSE
| 10> END
| 11>
| 12> %CPCM
| 13>    SMD          TRUE
| 14>    SMDsolvent   "ACETONITRILE"
| 15> END
| 16>
| 17>
| 18> * xyz 1 1
| 19> C                  -1.10789000    3.65794600    0.41552300
| 20> C                  -1.69725000    2.43847600    0.22388400
| 21> C                  -0.90318500    1.30743000   -0.03603200
| 22> C                   0.51474800    1.44127900   -0.12342700
| 23> C                   1.07669600    2.72230600    0.11122100
| 24> C                   0.28899300    3.80398200    0.37168000
| 25> C                   1.30499300    0.31196400   -0.40730200
| 26> C                   0.68102700   -0.93675500   -0.58472000
| 27> C                  -0.73667200   -1.04250900   -0.45976000
| 28> C                  -1.36088000   -2.29273000   -0.61589200
| 29> H                  -2.43156900   -2.37493100   -0.50646300
| 30> C                  -0.61110600   -3.39870200   -0.90937900
| 31> C                   0.78162600   -3.30928200   -1.07363300
| 32> C                   1.40785300   -2.10861100   -0.91735500
| 33> H                  -1.73136600    4.51950100    0.61592300
| 34> H                  -2.77078600    2.33939400    0.27517400
| 35> H                   2.15152600    2.82824600    0.09071700
| 36> H                   0.73597500    4.77227600    0.55074400
| 37> H                  -1.10516700   -4.35420600   -1.02807900
| 38> H                   1.35198700   -4.19158100   -1.32991500
| 39> H                   2.47648700   -2.03293800   -1.05663800
| 40> N                  -1.47855000    0.07667200   -0.19737600
| 41> C                   2.77031500    0.43557600   -0.51746300
| 42> C                   3.60561500   -0.24449700    0.36675800
| 43> C                   3.34003100    1.23748300   -1.50810600
| 44> C                   4.99543100   -0.13343600    0.29629500
| 45> C                   4.71677400    1.33983800   -1.61160800
| 46> C                   5.53220500    0.66649600   -0.71589600
| 47> H                   5.15173500    1.94952500   -2.39301800
| 48> H                   3.16090000   -0.86130500    1.13936300
| 49> H                   2.69869900    1.76514000   -2.20349100
| 50> C                  -2.91648700   -0.04387400   -0.08772400
| 51> C                  -3.48905800   -0.26548700    1.15020900
| 52> C                  -3.70110500    0.06852100   -1.22706700
| 53> C                  -4.86618500   -0.37708900    1.26413100
| 54> H                  -2.85994100   -0.34942700    2.02740300
| 55> C                  -5.07132100   -0.04156500   -1.12003900
| 56> H                  -3.23486300    0.24150900   -2.18872100
| 57> C                  -5.66390700   -0.26420000    0.12592700
| 58> H                  -5.30724100   -0.54963500    2.23497100
| 59> H                  -5.70343100    0.04318100   -1.99401200
| 60> O                  -7.00839100   -0.35516100    0.13090900
| 61> C                  -7.65015200   -0.57642400    1.37840000
| 62> H                  -8.71513000   -0.61296100    1.16764300
| 63> H                  -7.33925300   -1.52328000    1.82538300
| 64> H                  -7.45003400    0.23613200    2.08016400
| 65> H                   6.60774100    0.76949100   -0.81771100
| 66> B                   5.89393600   -0.88993800    1.32750200
| 67> O                   7.25611000   -0.79016500    1.37766700
| 68> O                   5.27828100   -1.69989600    2.23764400
| 69> H                   7.63084100   -0.19658400    0.71876200
| 70> H                   5.90840000   -2.11960400    2.83441500
| 71> *
| 72>
| 73>
| 74>                          ****END OF INPUT****

CARTESIAN COORDINATES (ANGSTROEM)
---------------------------------
  C     -1.107890    3.657946    0.415523
  C     -1.697250    2.438476    0.223884
  C     -0.903185    1.307430   -0.036032
  C      0.514748    1.441279   -0.123427
  C      1.076696    2.722306    0.111221
  C      0.288993    3.803982    0.371680
  C      1.304993    0.311964   -0.407302
  C      0.681027   -0.936755   -0.584720
  C     -0.736672   -1.042509   -0.459760
  C     -1.360880   -2.292730   -0.615892
  H     -2.431569   -2.374931   -0.506463
  C     -0.611106   -3.398702   -0.909379
  C      0.781626   -3.309282   -1.073633
  C      1.407853   -2.108611   -0.917355
  H     -1.731366    4.519501    0.615923
  H     -2.770786    2.339394    0.275174
  H      2.151526    2.828246    0.090717
  H      0.735975    4.772276    0.550744
  H     -1.105167   -4.354206   -1.028079
  H      1.351987   -4.191581   -1.329915
  H      2.476487   -2.032938   -1.056638
  N     -1.478550    0.076672   -0.197376
  C      2.770315    0.435576   -0.517463
  C      3.605615   -0.244497    0.366758
  C      3.340031    1.237483   -1.508106
  C      4.995431   -0.133436    0.296295
  C      4.716774    1.339838   -1.611608
  C      5.532205    0.666496   -0.715896
  H      5.151735    1.949525   -2.393018
  H      3.160900   -0.861305    1.139363
  H      2.698699    1.765140   -2.203491
  C     -2.916487   -0.043874   -0.087724
  C     -3.489058   -0.265487    1.150209
  C     -3.701105    0.068521   -1.227067
  C     -4.866185   -0.377089    1.264131
  H     -2.859941   -0.349427    2.027403
  C     -5.071321   -0.041565   -1.120039
  H     -3.234863    0.241509   -2.188721
  C     -5.663907   -0.264200    0.125927
  H     -5.307241   -0.549635    2.234971
  H     -5.703431    0.043181   -1.994012
  O     -7.008391   -0.355161    0.130909
  C     -7.650152   -0.576424    1.378400
  H     -8.715130   -0.612961    1.167643
  H     -7.339253   -1.523280    1.825383
  H     -7.450034    0.236132    2.080164
  H      6.607741    0.769491   -0.817711
  B      5.893936   -0.889938    1.327502
  O      7.256110   -0.790165    1.377667
  O      5.278281   -1.699896    2.237644
  H      7.630841   -0.196584    0.718762
  H      5.908400   -2.119604    2.834415

 Total Charge           Charge          ....    1
 Multiplicity           Mult            ....    1
 Number of Electrons    NEL             ....  212
 Basis Dimension        Dim             .... 1087

ORBITAL ENERGIES
----------------

  NO   OCC          E(Eh)            E(eV)
   0   2.0000     -19.975036      -543.5484
   1   2.0000     -19.952364      -542.9314
   2   2.0000     -19.947578      -542.8012
   3   2.0000     -15.127654      -411.6444
   4   2.0000     -10.870451      -295.8000
   5   2.0000     -10.870424      -295.7993
   6   2.0000     -10.856844      -295.4298
   7   2.0000     -10.853467      -295.3378
   8   2.0000     -10.826113      -294.5935
   9   2.0000     -10.821434      -294.4662
  10   2.0000     -10.821407      -294.4654
  11   2.0000     -10.817257      -294.3525
  12   2.0000     -10.806098      -294.0489
  13   2.0000     -10.806065      -294.0480
  14   2.0000     -10.804532      -294.0063
  15   2.0000     -10.802017      -293.9378
  16   2.0000     -10.801913      -293.9350
  17   2.0000     -10.795428      -293.7585
  18   2.0000     -10.794627      -293.7367
  19   2.0000     -10.794615      -293.7364
  20   2.0000     -10.794129      -293.7232
  21   2.0000     -10.794086      -293.7220
  22   2.0000     -10.793041      -293.6936
  23   2.0000     -10.791038      -293.6391
  24   2.0000     -10.790274      -293.6183
  25   2.0000     -10.790170      -293.6154
  26   2.0000     -10.784084      -293.4498
  27   2.0000     -10.783697      -293.4393
  28   2.0000     -10.782579      -293.4089
  29   2.0000     -10.770462      -293.0792
  30   2.0000      -7.272254      -197.8881
  31   2.0000      -1.274381       -34.6777
  32   2.0000      -1.238574       -33.7033
  33   2.0000      -1.217405       -33.1273
  34   2.0000      -1.200863       -32.6771
  35   2.0000      -1.078208       -29.3395
  36   2.0000      -1.061043       -28.8724
  37   2.0000      -1.045677       -28.4543
  38   2.0000      -1.032170       -28.0868
  39   2.0000      -0.999688       -27.2029
  40   2.0000      -0.949440       -25.8356
  41   2.0000      -0.935776       -25.4638
  42   2.0000      -0.932065       -25.3628
  43   2.0000      -0.923957       -25.1421
  44   2.0000      -0.916546       -24.9405
  45   2.0000      -0.914695       -24.8901
  46   2.0000      -0.898071       -24.4377
  47   2.0000      -0.847680       -23.0665
  48   2.0000      -0.827757       -22.5244
  49   2.0000      -0.801216       -21.8022
  50   2.0000      -0.788079       -21.4447
  51   2.0000      -0.761366       -20.7178
  52   2.0000      -0.752484       -20.4761
  53   2.0000      -0.746260       -20.3068
  54   2.0000      -0.742070       -20.1927
  55   2.0000      -0.714257       -19.4359
  56   2.0000      -0.695087       -18.9143
  57   2.0000      -0.691477       -18.8160
  58   2.0000      -0.679207       -18.4822
  59   2.0000      -0.667405       -18.1610
  60   2.0000      -0.660717       -17.9790
  61   2.0000      -0.640953       -17.4412
  62   2.0000      -0.627783       -17.0829
  63   2.0000      -0.618648       -16.8343
  64   2.0000      -0.610909       -16.6237
  65   2.0000      -0.598258       -16.2794
  66   2.0000      -0.591999       -16.1091
  67   2.0000      -0.588299       -16.0084
  68   2.0000      -0.579432       -15.7672
  69   2.0000      -0.576381       -15.6841
  70   2.0000      -0.559908       -15.2359
  71   2.0000      -0.558696       -15.2029
  72   2.0000      -0.556277       -15.1371
  73   2.0000      -0.551407       -15.0046
  74   2.0000      -0.550137       -14.9700
  75   2.0000      -0.544467       -14.8157
  76   2.0000      -0.536172       -14.5900
  77   2.0000      -0.534690       -14.5497
  78   2.0000      -0.525013       -14.2863
  79   2.0000      -0.511771       -13.9260
  80   2.0000      -0.504389       -13.7251
  81   2.0000      -0.502620       -13.6770
  82   2.0000      -0.491802       -13.3826
  83   2.0000      -0.486225       -13.2309
  84   2.0000      -0.483265       -13.1503
  85   2.0000      -0.478203       -13.0126
  86   2.0000      -0.474365       -12.9081
  87   2.0000      -0.468110       -12.7379
  88   2.0000      -0.465706       -12.6725
  89   2.0000      -0.459608       -12.5066
  90   2.0000      -0.457485       -12.4488
  91   2.0000      -0.452053       -12.3010
  92   2.0000      -0.437706       -11.9106
  93   2.0000      -0.432938       -11.7808
  94   2.0000      -0.430385       -11.7114
  95   2.0000      -0.424256       -11.5446
  96   2.0000      -0.418577       -11.3901
  97   2.0000      -0.417926       -11.3723
  98   2.0000      -0.391101       -10.6424
  99   2.0000      -0.343156        -9.3377
 100   2.0000      -0.323995        -8.8164
 101   2.0000      -0.320873        -8.7314
 102   2.0000      -0.319881        -8.7044
 103   2.0000      -0.316052        -8.6002
 104   2.0000      -0.294058        -8.0017
 105   2.0000      -0.285512        -7.7692
 106   0.0000      -0.058088        -1.5807
 107   0.0000       0.017143         0.4665
 108   0.0000       0.025278         0.6879
 109   0.0000       0.038478         1.0470
 110   0.0000       0.046412         1.2629

MULLIKEN ATOMIC CHARGES
-----------------------
   0 C :   -0.092876
   1 C :   -0.246662
   2 C :    0.185527
   3 C :    0.090827
   4 C :   -0.256901
   5 C :   -0.161602
   6 C :    0.336584
   7 C :    0.089243
   8 C :    0.189461
   9 C :   -0.246885
  10 H :    0.188702
  11 C :   -0.092809
  12 C :   -0.162968
  13 C :   -0.253977
  14 H :    0.179826
  15 H :    0.187986
  16 H :    0.196000
  17 H :    0.173617
  18 H :    0.179624
  19 H :    0.173735
  20 H :    0.195573
  21 N :    0.133722
  22 C :    0.072633
  23 C :   -0.323907
  24 C :   -0.280111
  25 C :   -0.015102
  26 C :   -0.156929
  27 C :   -0.215707
  28 H :    0.166911
  29 H :    0.172994
  30 H :    0.178914
  31 C :    0.076939
  32 C :   -0.249648
  33 C :   -0.225629
  34 C :   -0.234869
  35 H :    0.172805
  36 C :   -0.200455
  37 H :    0.169954
  38 C :    0.383656
  39 H :    0.175850
  40 H :    0.156818
  41 O :   -0.342699
  42 C :   -0.193005
  43 H :    0.154828
  44 H :    0.139643
  45 H :    0.140243
  46 H :    0.149070
  47 B :    0.485426
  48 O :   -0.529206
  49 O :   -0.548847
  50 H :    0.366373
  51 H :    0.367312
Sum of atomic charges:    1.0000000

LOEWDIN ATOMIC CHARGES
----------------------
   0 C :   -0.078647
   1 C :   -0.099175
   2 C :   -0.054818
   3 C :   -0.052483
   4 C :   -0.059010
   5 C :   -0.126460
   6 C :    0.066372
   7 C :   -0.052163
   8 C :   -0.054718
   9 C :   -0.099339
  10 H :    0.169795
  11 C :   -0.078601
  12 C :   -0.126651
  13 C :   -0.058388
  14 H :    0.163317
  15 H :    0.169794
  16 H :    0.169609
  17 H :    0.158586
  18 H :    0.163289
  19 H :    0.158594
  20 H :    0.169786
  21 N :    0.355457
  22 C :   -0.101179
  23 C :   -0.026919
  24 C :   -0.073760
  25 C :   -0.072401
  26 C :   -0.131133
  27 C :   -0.074369
  28 H :    0.155490
  29 H :    0.168913
  30 H :    0.164065
  31 C :   -0.172630
  32 C :   -0.085360
  33 C :   -0.088218
  34 C :   -0.125495
  35 H :    0.165804
  36 C :   -0.109337
  37 H :    0.165480
  38 C :   -0.234567
  39 H :    0.161653
  40 H :    0.158007
  41 O :    0.206760
  42 C :   -0.293238
  43 H :    0.115981
  44 H :    0.112211
  45 H :    0.112336
  46 H :    0.157362
  47 B :   -0.817273
  48 O :    0.155042
  49 O :    0.157515
  50 H :    0.221219
  51 H :    0.223894

  Mayer bond orders larger than 0.100000
B(  0-C ,  1-C ) :   1.5343 B(  0-C ,  5-C ) :   1.2209 B(  0-C , 14-H ) :   0.9697
B(  1-C ,  2-C ) :   1.2515 B(  1-C , 15-H ) :   0.9697 B(  2-C ,  3-C ) :   1.2644
B(  2-C , 21-N ) :   1.2320 B(  3-C ,  4-C ) :   1.1887 B(  3-C ,  6-C ) :   1.1821
B(  4-C ,  5-C ) :   1.5931 B(  4-C , 16-H ) :   0.9587 B(  5-C , 17-H ) :   0.9822
B(  6-C ,  7-C ) :   1.1872 B(  6-C , 22-C ) :   0.8175 B(  7-C ,  8-C ) :   1.2575
B(  7-C , 13-C ) :   1.1896 B(  8-C ,  9-C ) :   1.2513 B(  8-C , 21-N ) :   1.2319
B(  9-C , 10-H ) :   0.9698 B(  9-C , 11-C ) :   1.5320 B( 11-C , 12-C ) :   1.2207
B( 11-C , 18-H ) :   0.9704 B( 12-C , 13-C ) :   1.5970 B( 12-C , 19-H ) :   0.9813
B( 13-C , 20-H ) :   0.9573 B( 21-N , 31-C ) :   0.6947 B( 22-C , 23-C ) :   1.3241
B( 22-C , 24-C ) :   1.3503 B( 23-C , 25-C ) :   1.3647 B( 23-C , 29-H ) :   0.9932
B( 24-C , 26-C ) :   1.4440 B( 24-C , 30-H ) :   0.9872 B( 25-C , 27-C ) :   1.3662
B( 25-C , 47-B ) :   1.0090 B( 26-C , 27-C ) :   1.3935 B( 26-C , 28-H ) :   0.9824
B( 27-C , 46-H ) :   0.9775 B( 31-C , 32-C ) :   1.5101 B( 31-C , 33-C ) :   1.4571
B( 32-C , 34-C ) :   1.3773 B( 32-C , 35-H ) :   0.9742 B( 33-C , 36-C ) :   1.4577
B( 33-C , 37-H ) :   0.9894 B( 34-C , 38-C ) :   1.3185 B( 34-C , 39-H ) :   0.9720
B( 36-C , 38-C ) :   1.3243 B( 36-C , 40-H ) :   0.9944 B( 38-C , 41-O ) :   1.1163
B( 41-O , 42-C ) :   0.8799 B( 42-C , 43-H ) :   0.9742 B( 42-C , 44-H ) :   0.9728
B( 42-C , 45-H ) :   0.9729 B( 47-B , 48-O ) :   1.2511 B( 47-B , 49-O ) :   1.2420
B( 48-O , 50-H ) :   0.8543 B( 49-O , 51-H ) :   0.8499

MP2 TOTAL ENERGY:    -1307.821322104 Eh

-----------------------------------------------------------------------------
         ABSORPTION SPECTRUM VIA TRANSITION ELECTRIC DIPOLE MOMENTS
-----------------------------------------------------------------------------
State   Energy    Wavelength  fosc         T2        TX        TY        TZ
        (cm-1)      (nm)                 (au**2)    (au)      (au)      (au)
-----------------------------------------------------------------------------
   1   23891.2    418.6   0.252646391   3.48138   1.85658   0.13469  -0.12782
   2   29907.8    334.4   0.345842569   3.80688   0.14432  -1.90925  -0.37525
   3   26416.8    378.5   0.001519999   0.01894  -0.11536   0.07348   0.01534
   4   30774.1    324.9   0.089394076   0.95631   0.97504   0.05527  -0.05061
   5   32022.5    312.3   0.039807129   0.40924  -0.05310  -0.62959  -0.10022
   6   32726.6    305.6   0.019004396   0.19117   0.01278   0.31386   0.30414
   7   35509.5    281.6   0.175696244   1.62890   0.04657  -1.25449  -0.23018
   8   39223.2    255.0   0.053154563   0.44614   0.03500  -0.28057  -0.60514
   9   39337.9    254.2   0.883293939   7.39214   0.00510  -2.69169  -0.38327
  10   40211.2    248.7   0.222508659   1.82170  -0.47239   1.18687   0.43574
  11   46582.7    214.7   0.086417808   0.61074   0.53716  -0.38650   0.41570
  12   46836.5    213.5   0.155854568   1.09550   1.03019   0.02092  -0.18374
  13   46285.4    216.1   0.143465377   1.02042  -0.99978   0.06578  -0.12859
  14   44366.7    225.4   0.039711253   0.29467  -0.11247   0.52489  -0.08069
  15   43826.3    228.2   0.032200257   0.24188  -0.47819   0.07195  -0.08966
  16   46968.1    212.9   0.007869213   0.05516  -0.17135   0.09727  -0.12781
  17   43099.7    232.0   0.010876794   0.08308   0.11889  -0.09383   0.24524
  18   47614.6    210.0   0.686154078   4.74414  -2.16414  -0.22551   0.09881
  19   46516.7    215.0   0.083034514   0.58766  -0.34879   0.35648  -0.58218
  20   48721.8    205.2   0.244820782   1.65425   0.67528   0.63629  -0.89072
  21   50655.4    197.4   1.612737150  10.48126  -3.23685   0.02693  -0.05772
  22   50665.6    197.4   0.163950406   1.06531   0.62210   0.58780  -0.57688
  23   49197.4    203.3   0.046397083   0.31047  -0.11116   0.46227  -0.29055
  24   49331.4    202.7   0.052663202   0.35145   0.23109  -0.11910   0.53279
  25   49521.9    201.9   0.022562428   0.14999   0.02602  -0.03556   0.38477
  26   52109.8    191.9   0.392138962   2.47740   0.03117  -0.22602   1.55735
  27   49963.1    200.1   0.024560815   0.16183  -0.13165   0.38013   0.00199
  28   50137.7    199.5   0.003775059   0.02479   0.03354   0.15383  -0.00007
  29   51217.0    195.2   0.206312943   1.32613   0.15656  -1.13531   0.11266
  30   50474.5    198.1   0.004451996   0.02904  -0.05526  -0.03321   0.15774

FINAL SINGLE POINT ENERGY     -1305.634505121493

DIPOLE MOMENT
-------------
                                X             Y             Z
Electronic contribution:     14.50772      -0.29959      -1.27478
Nuclear contribution   :    -15.20823       0.95575       1.01498
                        -----------------------------------------
Total Dipole Moment    :     -0.70051       0.65616      -0.25980
                        -----------------------------------------
Magnitude (a.u.)       :      0.99436
Magnitude (Debye)      :      2.52746

Rotational constants in cm-1:     0.010590     0.002430     0.002180
Rotational constants in MHz :   317.490030    72.863317    65.347730

                             ****ORCA TERMINATED NORMALLY****
TOTAL RUN TIME: 0 days 12 hours 47 minutes 11 seconds 58 msec
