                         Program Version 5.0.2 -  RELEASE  -
|  1> %maxcore 20000
|  2> %pal
|  3>  nprocs= 4
|  4> end
|  5> ! RI-wPBEPP86   def2-TZVP def2/J def2-TZVP/C RIJCOSX CPCM TightSCF
|  6> %TDDFT
|  7>    NROOTS   30
|  8>    dcorr 1
|  9>    TDA      FALSE
| 10> END
| 11>
| 12> %CPCM
| 13>    SMD          TRUE
| 14>    SMDsolvent   "ACETONITRILE"
| 15> END
| 16>
| 17>
| 18> * xyz 1 1
| 19> C                  -1.10789000    3.65794600    0.41552300
| 20> C                  -1.69725000    2.43847600    0.22388400
| 21> C                  -0.90318500    1.30743000   -0.03603200
| 22> C                   0.51474800    1.44127900   -0.12342700
| 23> C                   1.07669600    2.72230600    0.11122100
| 24> C                   0.28899300    3.80398200    0.37168000
| 25> C                   1.30499300    0.31196400   -0.40730200
| 26> C                   0.68102700   -0.93675500   -0.58472000
| 27> C                  -0.73667200   -1.04250900   -0.45976000
| 28> C                  -1.36088000   -2.29273000   -0.61589200
| 29> H                  -2.43156900   -2.37493100   -0.50646300
| 30> C                  -0.61110600   -3.39870200   -0.90937900
| 31> C                   0.78162600   -3.30928200   -1.07363300
| 32> C                   1.40785300   -2.10861100   -0.91735500
| 33> H                  -1.73136600    4.51950100    0.61592300
| 34> H                  -2.77078600    2.33939400    0.27517400
| 35> H                   2.15152600    2.82824600    0.09071700
| 36> H                   0.73597500    4.77227600    0.55074400
| 37> H                  -1.10516700   -4.35420600   -1.02807900
| 38> H                   1.35198700   -4.19158100   -1.32991500
| 39> H                   2.47648700   -2.03293800   -1.05663800
| 40> N                  -1.47855000    0.07667200   -0.19737600
| 41> C                   2.77031500    0.43557600   -0.51746300
| 42> C                   3.60561500   -0.24449700    0.36675800
| 43> C                   3.34003100    1.23748300   -1.50810600
| 44> C                   4.99543100   -0.13343600    0.29629500
| 45> C                   4.71677400    1.33983800   -1.61160800
| 46> C                   5.53220500    0.66649600   -0.71589600
| 47> H                   5.15173500    1.94952500   -2.39301800
| 48> H                   3.16090000   -0.86130500    1.13936300
| 49> H                   2.69869900    1.76514000   -2.20349100
| 50> C                  -2.91648700   -0.04387400   -0.08772400
| 51> C                  -3.48905800   -0.26548700    1.15020900
| 52> C                  -3.70110500    0.06852100   -1.22706700
| 53> C                  -4.86618500   -0.37708900    1.26413100
| 54> H                  -2.85994100   -0.34942700    2.02740300
| 55> C                  -5.07132100   -0.04156500   -1.12003900
| 56> H                  -3.23486300    0.24150900   -2.18872100
| 57> C                  -5.66390700   -0.26420000    0.12592700
| 58> H                  -5.30724100   -0.54963500    2.23497100
| 59> H                  -5.70343100    0.04318100   -1.99401200
| 60> O                  -7.00839100   -0.35516100    0.13090900
| 61> C                  -7.65015200   -0.57642400    1.37840000
| 62> H                  -8.71513000   -0.61296100    1.16764300
| 63> H                  -7.33925300   -1.52328000    1.82538300
| 64> H                  -7.45003400    0.23613200    2.08016400
| 65> H                   6.60774100    0.76949100   -0.81771100
| 66> B                   5.89393600   -0.88993800    1.32750200
| 67> O                   7.25611000   -0.79016500    1.37766700
| 68> O                   5.27828100   -1.69989600    2.23764400
| 69> H                   7.63084100   -0.19658400    0.71876200
| 70> H                   5.90840000   -2.11960400    2.83441500
| 71> *
| 72>
| 73>
| 74>                          ****END OF INPUT****

CARTESIAN COORDINATES (ANGSTROEM)
---------------------------------
  C     -1.107890    3.657946    0.415523
  C     -1.697250    2.438476    0.223884
  C     -0.903185    1.307430   -0.036032
  C      0.514748    1.441279   -0.123427
  C      1.076696    2.722306    0.111221
  C      0.288993    3.803982    0.371680
  C      1.304993    0.311964   -0.407302
  C      0.681027   -0.936755   -0.584720
  C     -0.736672   -1.042509   -0.459760
  C     -1.360880   -2.292730   -0.615892
  H     -2.431569   -2.374931   -0.506463
  C     -0.611106   -3.398702   -0.909379
  C      0.781626   -3.309282   -1.073633
  C      1.407853   -2.108611   -0.917355
  H     -1.731366    4.519501    0.615923
  H     -2.770786    2.339394    0.275174
  H      2.151526    2.828246    0.090717
  H      0.735975    4.772276    0.550744
  H     -1.105167   -4.354206   -1.028079
  H      1.351987   -4.191581   -1.329915
  H      2.476487   -2.032938   -1.056638
  N     -1.478550    0.076672   -0.197376
  C      2.770315    0.435576   -0.517463
  C      3.605615   -0.244497    0.366758
  C      3.340031    1.237483   -1.508106
  C      4.995431   -0.133436    0.296295
  C      4.716774    1.339838   -1.611608
  C      5.532205    0.666496   -0.715896
  H      5.151735    1.949525   -2.393018
  H      3.160900   -0.861305    1.139363
  H      2.698699    1.765140   -2.203491
  C     -2.916487   -0.043874   -0.087724
  C     -3.489058   -0.265487    1.150209
  C     -3.701105    0.068521   -1.227067
  C     -4.866185   -0.377089    1.264131
  H     -2.859941   -0.349427    2.027403
  C     -5.071321   -0.041565   -1.120039
  H     -3.234863    0.241509   -2.188721
  C     -5.663907   -0.264200    0.125927
  H     -5.307241   -0.549635    2.234971
  H     -5.703431    0.043181   -1.994012
  O     -7.008391   -0.355161    0.130909
  C     -7.650152   -0.576424    1.378400
  H     -8.715130   -0.612961    1.167643
  H     -7.339253   -1.523280    1.825383
  H     -7.450034    0.236132    2.080164
  H      6.607741    0.769491   -0.817711
  B      5.893936   -0.889938    1.327502
  O      7.256110   -0.790165    1.377667
  O      5.278281   -1.699896    2.237644
  H      7.630841   -0.196584    0.718762
  H      5.908400   -2.119604    2.834415

 Total Charge           Charge          ....    1
 Multiplicity           Mult            ....    1
 Number of Electrons    NEL             ....  212
 Basis Dimension        Dim             .... 1087

ORBITAL ENERGIES
----------------

  NO   OCC          E(Eh)            E(eV)
   0   2.0000     -20.094702      -546.8046
   1   2.0000     -20.069836      -546.1280
   2   2.0000     -20.065045      -545.9976
   3   2.0000     -15.237113      -414.6229
   4   2.0000     -10.964344      -298.3550
   5   2.0000     -10.964314      -298.3542
   6   2.0000     -10.952543      -298.0338
   7   2.0000     -10.945536      -297.8432
   8   2.0000     -10.918797      -297.1156
   9   2.0000     -10.913982      -296.9846
  10   2.0000     -10.913957      -296.9839
  11   2.0000     -10.904051      -296.7143
  12   2.0000     -10.898102      -296.5524
  13   2.0000     -10.898064      -296.5514
  14   2.0000     -10.897746      -296.5427
  15   2.0000     -10.894264      -296.4480
  16   2.0000     -10.894160      -296.4452
  17   2.0000     -10.887352      -296.2599
  18   2.0000     -10.886896      -296.2475
  19   2.0000     -10.886418      -296.2345
  20   2.0000     -10.885728      -296.2157
  21   2.0000     -10.885308      -296.2043
  22   2.0000     -10.885265      -296.2031
  23   2.0000     -10.883071      -296.1434
  24   2.0000     -10.880989      -296.0868
  25   2.0000     -10.880881      -296.0838
  26   2.0000     -10.875322      -295.9325
  27   2.0000     -10.874889      -295.9208
  28   2.0000     -10.873584      -295.8853
  29   2.0000     -10.863344      -295.6066
  30   2.0000      -7.345978      -199.8942
  31   2.0000      -1.341310       -36.4989
  32   2.0000      -1.303674       -35.4748
  33   2.0000      -1.285034       -34.9676
  34   2.0000      -1.264933       -34.4206
  35   2.0000      -1.144014       -31.1302
  36   2.0000      -1.126080       -30.6422
  37   2.0000      -1.110628       -30.2217
  38   2.0000      -1.096498       -29.8372
  39   2.0000      -1.063395       -28.9365
  40   2.0000      -1.011428       -27.5224
  41   2.0000      -0.997629       -27.1469
  42   2.0000      -0.993604       -27.0373
  43   2.0000      -0.985204       -26.8088
  44   2.0000      -0.977687       -26.6042
  45   2.0000      -0.976140       -26.5621
  46   2.0000      -0.958427       -26.0801
  47   2.0000      -0.906241       -24.6601
  48   2.0000      -0.886316       -24.1179
  49   2.0000      -0.859277       -23.3821
  50   2.0000      -0.846060       -23.0225
  51   2.0000      -0.818004       -22.2590
  52   2.0000      -0.809383       -22.0244
  53   2.0000      -0.802335       -21.8326
  54   2.0000      -0.798354       -21.7243
  55   2.0000      -0.769757       -20.9462
  56   2.0000      -0.749772       -20.4023
  57   2.0000      -0.747059       -20.3285
  58   2.0000      -0.733037       -19.9469
  59   2.0000      -0.721853       -19.6426
  60   2.0000      -0.714457       -19.4414
  61   2.0000      -0.693939       -18.8830
  62   2.0000      -0.680489       -18.5170
  63   2.0000      -0.672538       -18.3007
  64   2.0000      -0.662377       -18.0242
  65   2.0000      -0.649833       -17.6828
  66   2.0000      -0.643577       -17.5126
  67   2.0000      -0.639965       -17.4143
  68   2.0000      -0.632263       -17.2048
  69   2.0000      -0.629037       -17.1170
  70   2.0000      -0.610922       -16.6240
  71   2.0000      -0.609068       -16.5736
  72   2.0000      -0.606620       -16.5070
  73   2.0000      -0.602624       -16.3982
  74   2.0000      -0.599222       -16.3057
  75   2.0000      -0.594433       -16.1753
  76   2.0000      -0.586171       -15.9505
  77   2.0000      -0.583937       -15.8897
  78   2.0000      -0.574141       -15.6232
  79   2.0000      -0.560909       -15.2631
  80   2.0000      -0.556886       -15.1536
  81   2.0000      -0.550489       -14.9796
  82   2.0000      -0.538761       -14.6604
  83   2.0000      -0.536737       -14.6054
  84   2.0000      -0.532287       -14.4843
  85   2.0000      -0.528493       -14.3810
  86   2.0000      -0.526549       -14.3281
  87   2.0000      -0.517194       -14.0736
  88   2.0000      -0.512711       -13.9516
  89   2.0000      -0.505836       -13.7645
  90   2.0000      -0.503862       -13.7108
  91   2.0000      -0.500422       -13.6172
  92   2.0000      -0.486997       -13.2519
  93   2.0000      -0.480466       -13.0742
  94   2.0000      -0.478541       -13.0218
  95   2.0000      -0.470467       -12.8021
  96   2.0000      -0.466695       -12.6994
  97   2.0000      -0.464595       -12.6423
  98   2.0000      -0.438738       -11.9387
  99   2.0000      -0.389033       -10.5861
 100   2.0000      -0.368646       -10.0314
 101   2.0000      -0.365291        -9.9401
 102   2.0000      -0.364241        -9.9115
 103   2.0000      -0.358949        -9.7675
 104   2.0000      -0.337986        -9.1971
 105   2.0000      -0.327447        -8.9103
 106   0.0000      -0.043710        -1.1894
 107   0.0000       0.033645         0.9155
 108   0.0000       0.043051         1.1715
 109   0.0000       0.056556         1.5390
 110   0.0000       0.065099         1.7714

MULLIKEN ATOMIC CHARGES
-----------------------
   0 C :   -0.105337
   1 C :   -0.281283
   2 C :    0.208577
   3 C :    0.072296
   4 C :   -0.262430
   5 C :   -0.187622
   6 C :    0.337546
   7 C :    0.068760
   8 C :    0.211961
   9 C :   -0.281472
  10 H :    0.215630
  11 C :   -0.105529
  12 C :   -0.188348
  13 C :   -0.259649
  14 H :    0.201144
  15 H :    0.214701
  16 H :    0.224454
  17 H :    0.196011
  18 H :    0.200972
  19 H :    0.196149
  20 H :    0.224702
  21 N :    0.158767
  22 C :   -0.000979
  23 C :   -0.341260
  24 C :   -0.291519
  25 C :    0.013648
  26 C :   -0.181248
  27 C :   -0.234697
  28 H :    0.190849
  29 H :    0.205707
  30 H :    0.207441
  31 C :   -0.047005
  32 C :   -0.253198
  33 C :   -0.223804
  34 C :   -0.252730
  35 H :    0.197774
  36 C :   -0.224163
  37 H :    0.195381
  38 C :    0.384571
  39 H :    0.205711
  40 H :    0.184424
  41 O :   -0.320776
  42 C :   -0.270144
  43 H :    0.175683
  44 H :    0.161258
  45 H :    0.161869
  46 H :    0.172151
  47 B :    0.439073
  48 O :   -0.526271
  49 O :   -0.547145
  50 H :    0.378303
  51 H :    0.381096
Sum of atomic charges:    1.0000000

LOEWDIN ATOMIC CHARGES
----------------------
   0 C :   -0.080008
   1 C :   -0.104717
   2 C :   -0.057263
   3 C :   -0.057619
   4 C :   -0.062180
   5 C :   -0.131326
   6 C :    0.066109
   7 C :   -0.057315
   8 C :   -0.057164
   9 C :   -0.104891
  10 H :    0.175011
  11 C :   -0.079965
  12 C :   -0.131498
  13 C :   -0.061572
  14 H :    0.169436
  15 H :    0.174997
  16 H :    0.174953
  17 H :    0.164493
  18 H :    0.169413
  19 H :    0.164501
  20 H :    0.175127
  21 N :    0.355919
  22 C :   -0.108831
  23 C :   -0.030250
  24 C :   -0.077177
  25 C :   -0.076069
  26 C :   -0.134861
  27 C :   -0.076751
  28 H :    0.161661
  29 H :    0.175027
  30 H :    0.170492
  31 C :   -0.183038
  32 C :   -0.088929
  33 C :   -0.092016
  34 C :   -0.129687
  35 H :    0.172385
  36 C :   -0.112584
  37 H :    0.172002
  38 C :   -0.239843
  39 H :    0.167241
  40 H :    0.164329
  41 O :    0.209077
  42 C :   -0.306461
  43 H :    0.121039
  44 H :    0.117106
  45 H :    0.117224
  46 H :    0.163190
  47 B :   -0.826055
  48 O :    0.156539
  49 O :    0.158337
  50 H :    0.224399
  51 H :    0.228064

  Mayer bond orders larger than 0.100000
B(  0-C ,  1-C ) :   1.5421 B(  0-C ,  5-C ) :   1.2140 B(  0-C , 14-H ) :   0.9631
B(  1-C ,  2-C ) :   1.2297 B(  1-C , 15-H ) :   0.9604 B(  2-C ,  3-C ) :   1.2852
B(  2-C , 21-N ) :   1.2362 B(  3-C ,  4-C ) :   1.1795 B(  3-C ,  6-C ) :   1.2066
B(  4-C ,  5-C ) :   1.5994 B(  4-C , 16-H ) :   0.9412 B(  5-C , 17-H ) :   0.9749
B(  6-C ,  7-C ) :   1.2127 B(  6-C , 22-C ) :   0.8234 B(  7-C ,  8-C ) :   1.2793
B(  7-C , 13-C ) :   1.1815 B(  8-C ,  9-C ) :   1.2298 B(  8-C , 21-N ) :   1.2359
B(  9-C , 10-H ) :   0.9603 B(  9-C , 11-C ) :   1.5396 B( 11-C , 12-C ) :   1.2138
B( 11-C , 18-H ) :   0.9638 B( 12-C , 13-C ) :   1.6027 B( 12-C , 19-H ) :   0.9740
B( 13-C , 20-H ) :   0.9397 B( 21-N , 31-C ) :   0.7239 B( 22-C , 23-C ) :   1.3375
B( 22-C , 24-C ) :   1.3593 B( 23-C , 25-C ) :   1.3643 B( 23-C , 29-H ) :   0.9724
B( 24-C , 26-C ) :   1.4438 B( 24-C , 30-H ) :   0.9768 B( 25-C , 27-C ) :   1.3596
B( 25-C , 47-B ) :   1.0160 B( 26-C , 27-C ) :   1.4024 B( 26-C , 28-H ) :   0.9747
B( 27-C , 46-H ) :   0.9697 B( 31-C , 32-C ) :   1.5302 B( 31-C , 33-C ) :   1.4726
B( 32-C , 34-C ) :   1.3969 B( 32-C , 35-H ) :   0.9638 B( 33-C , 36-C ) :   1.4595
B( 33-C , 37-H ) :   0.9788 B( 34-C , 38-C ) :   1.3169 B( 34-C , 39-H ) :   0.9535
B( 36-C , 38-C ) :   1.3211 B( 36-C , 40-H ) :   0.9838 B( 38-C , 41-O ) :   1.1233
B( 41-O , 42-C ) :   0.8871 B( 42-C , 43-H ) :   0.9679 B( 42-C , 44-H ) :   0.9678
B( 42-C , 45-H ) :   0.9678 B( 47-B , 48-O ) :   1.2654 B( 47-B , 49-O ) :   1.2565
B( 48-O , 50-H ) :   0.8440 B( 49-O , 51-H ) :   0.8387

MP2 TOTAL ENERGY:    -1308.120392965 Eh

-----------------------------------------------------------------------------
         ABSORPTION SPECTRUM VIA TRANSITION ELECTRIC DIPOLE MOMENTS
-----------------------------------------------------------------------------
State   Energy    Wavelength  fosc         T2        TX        TY        TZ
        (cm-1)      (nm)                 (au**2)    (au)      (au)      (au)
-----------------------------------------------------------------------------
   1   24577.6    406.9   0.274255425   3.67360  -1.90706  -0.13862   0.13238
   2   30156.2    331.6   0.353639772   3.86065   0.14000  -1.92267  -0.37999
   3   33503.5    298.5   0.088118027   0.86587   0.47690  -0.77379  -0.19922
   4   33262.3    300.6   0.106581982   1.05489   0.91034   0.47470   0.02893
   5   29435.9    339.7   0.003249601   0.03634   0.18072  -0.05219  -0.03097
   6   35329.4    283.1   0.021713436   0.20233   0.11511   0.29631   0.31825
   7   39562.3    252.8   0.034957149   0.29089  -0.01851  -0.06809   0.53471
   8   40572.5    246.5   1.215607752   9.86364  -0.15715   3.08626   0.56031
   9   40599.3    246.3   0.050189935   0.40698   0.36618  -0.27626  -0.44337
  10   47714.8    209.6   0.130363372   0.89945   0.79545  -0.37404   0.35610
  11   47688.6    209.7   0.123104243   0.84983   0.89338   0.07987  -0.21291
  12   38655.3    258.7   0.072648936   0.61872  -0.10582   0.77482   0.08472
  13   47785.3    209.3   0.126930492   0.87447  -0.93301  -0.00130  -0.06296
  14   45089.8    221.8   0.096993082   0.70817   0.82145  -0.13246   0.12591
  15   45933.3    217.7   0.021737600   0.15580   0.13477   0.32866  -0.17209
  16   48503.2    206.2   0.003912735   0.02656   0.00495  -0.09244   0.13412
  17   47022.8    212.7   0.085465854   0.59836  -0.43393   0.35360  -0.53388
  18   50603.2    197.6   1.041326784   6.77461  -2.58713  -0.21580   0.18652
  19   51500.4    194.2   0.645178196   4.12425   1.56469  -0.81356   1.00703
  20   52100.4    191.9   1.181867271   7.46798   2.56237   0.66048  -0.68264
  21   51134.2    195.6   0.008535449   0.05495  -0.17236  -0.08191  -0.13615
  22   50505.5    198.0   0.301138637   1.96293  -0.19888  -0.23867   1.36617
  23   50485.4    198.1   0.145021488   0.94567   0.07773   0.40244   0.88186
  24   51131.1    195.6   0.137018870   0.88221  -0.08693   0.70046  -0.61969
  25   50978.7    196.2   0.001073754   0.00693  -0.01664  -0.03332   0.07448
  26   51277.6    195.0   0.024384024   0.15655   0.12873  -0.18307   0.32628
  27   52036.0    192.2   0.002687184   0.01700   0.02547  -0.12600   0.02182
  28   52198.9    191.6   0.000520617   0.00328  -0.03158  -0.02478   0.04089
  29   53336.5    187.5   0.089295266   0.55116   0.05194   0.73808   0.06084
  30   53307.8    187.6   0.002184682   0.01349   0.08485   0.02004   0.07675

FINAL SINGLE POINT ENERGY     -1305.410503083333

DIPOLE MOMENT
-------------
                                X             Y             Z
Electronic contribution:     14.52669      -0.29232      -1.27847
Nuclear contribution   :    -15.20823       0.95575       1.01498
                        -----------------------------------------
Total Dipole Moment    :     -0.68155       0.66343      -0.26349
                        -----------------------------------------
Magnitude (a.u.)       :      0.98695
Magnitude (Debye)      :      2.50863

Rotational constants in cm-1:     0.010590     0.002430     0.002180
Rotational constants in MHz :   317.490030    72.863317    65.347730

                             ****ORCA TERMINATED NORMALLY****
TOTAL RUN TIME: 0 days 15 hours 26 minutes 52 seconds 922 msec
