                         Program Version 5.0.2 -  RELEASE  -
|  1> %maxcore 24000
|  2> %pal
|  3>  nprocs= 8
|  4> end
|  5> ! RI-DSD-BLYP D3BJ def2-TZVP def2/J def2-TZVP/C RIJCOSX CPCM TightSCF
|  6>
|  7> %cis
|  8>    dcorr 4
|  9>    doscs true
| 10>    scspar 0.333, 1.2, 0.43, 1.24
| 11> END
| 12>
| 13> %TDDFT DCORR 4
| 14>    NROOTS   30
| 15>
| 16>    TDA      FALSE
| 17> END
| 18>
| 19> %CPCM
| 20>    SMD          TRUE
| 21>    SMDsolvent   "ACETONITRILE"
| 22> END
| 23>
| 24>
| 25> * xyz 1 1
| 26> C                  -1.10789000    3.65794600    0.41552300
| 27> C                  -1.69725000    2.43847600    0.22388400
| 28> C                  -0.90318500    1.30743000   -0.03603200
| 29> C                   0.51474800    1.44127900   -0.12342700
| 30> C                   1.07669600    2.72230600    0.11122100
| 31> C                   0.28899300    3.80398200    0.37168000
| 32> C                   1.30499300    0.31196400   -0.40730200
| 33> C                   0.68102700   -0.93675500   -0.58472000
| 34> C                  -0.73667200   -1.04250900   -0.45976000
| 35> C                  -1.36088000   -2.29273000   -0.61589200
| 36> H                  -2.43156900   -2.37493100   -0.50646300
| 37> C                  -0.61110600   -3.39870200   -0.90937900
| 38> C                   0.78162600   -3.30928200   -1.07363300
| 39> C                   1.40785300   -2.10861100   -0.91735500
| 40> H                  -1.73136600    4.51950100    0.61592300
| 41> H                  -2.77078600    2.33939400    0.27517400
| 42> H                   2.15152600    2.82824600    0.09071700
| 43> H                   0.73597500    4.77227600    0.55074400
| 44> H                  -1.10516700   -4.35420600   -1.02807900
| 45> H                   1.35198700   -4.19158100   -1.32991500
| 46> H                   2.47648700   -2.03293800   -1.05663800
| 47> N                  -1.47855000    0.07667200   -0.19737600
| 48> C                   2.77031500    0.43557600   -0.51746300
| 49> C                   3.60561500   -0.24449700    0.36675800
| 50> C                   3.34003100    1.23748300   -1.50810600
| 51> C                   4.99543100   -0.13343600    0.29629500
| 52> C                   4.71677400    1.33983800   -1.61160800
| 53> C                   5.53220500    0.66649600   -0.71589600
| 54> H                   5.15173500    1.94952500   -2.39301800
| 55> H                   3.16090000   -0.86130500    1.13936300
| 56> H                   2.69869900    1.76514000   -2.20349100
| 57> C                  -2.91648700   -0.04387400   -0.08772400
| 58> C                  -3.48905800   -0.26548700    1.15020900
| 59> C                  -3.70110500    0.06852100   -1.22706700
| 60> C                  -4.86618500   -0.37708900    1.26413100
| 61> H                  -2.85994100   -0.34942700    2.02740300
| 62> C                  -5.07132100   -0.04156500   -1.12003900
| 63> H                  -3.23486300    0.24150900   -2.18872100
| 64> C                  -5.66390700   -0.26420000    0.12592700
| 65> H                  -5.30724100   -0.54963500    2.23497100
| 66> H                  -5.70343100    0.04318100   -1.99401200
| 67> O                  -7.00839100   -0.35516100    0.13090900
| 68> C                  -7.65015200   -0.57642400    1.37840000
| 69> H                  -8.71513000   -0.61296100    1.16764300
| 70> H                  -7.33925300   -1.52328000    1.82538300
| 71> H                  -7.45003400    0.23613200    2.08016400
| 72> H                   6.60774100    0.76949100   -0.81771100
| 73> B                   5.89393600   -0.88993800    1.32750200
| 74> O                   7.25611000   -0.79016500    1.37766700
| 75> O                   5.27828100   -1.69989600    2.23764400
| 76> H                   7.63084100   -0.19658400    0.71876200
| 77> H                   5.90840000   -2.11960400    2.83441500
| 78> *
| 79>
| 80>
| 81>                          ****END OF INPUT****

CARTESIAN COORDINATES (ANGSTROEM)
---------------------------------
  C     -1.107890    3.657946    0.415523
  C     -1.697250    2.438476    0.223884
  C     -0.903185    1.307430   -0.036032
  C      0.514748    1.441279   -0.123427
  C      1.076696    2.722306    0.111221
  C      0.288993    3.803982    0.371680
  C      1.304993    0.311964   -0.407302
  C      0.681027   -0.936755   -0.584720
  C     -0.736672   -1.042509   -0.459760
  C     -1.360880   -2.292730   -0.615892
  H     -2.431569   -2.374931   -0.506463
  C     -0.611106   -3.398702   -0.909379
  C      0.781626   -3.309282   -1.073633
  C      1.407853   -2.108611   -0.917355
  H     -1.731366    4.519501    0.615923
  H     -2.770786    2.339394    0.275174
  H      2.151526    2.828246    0.090717
  H      0.735975    4.772276    0.550744
  H     -1.105167   -4.354206   -1.028079
  H      1.351987   -4.191581   -1.329915
  H      2.476487   -2.032938   -1.056638
  N     -1.478550    0.076672   -0.197376
  C      2.770315    0.435576   -0.517463
  C      3.605615   -0.244497    0.366758
  C      3.340031    1.237483   -1.508106
  C      4.995431   -0.133436    0.296295
  C      4.716774    1.339838   -1.611608
  C      5.532205    0.666496   -0.715896
  H      5.151735    1.949525   -2.393018
  H      3.160900   -0.861305    1.139363
  H      2.698699    1.765140   -2.203491
  C     -2.916487   -0.043874   -0.087724
  C     -3.489058   -0.265487    1.150209
  C     -3.701105    0.068521   -1.227067
  C     -4.866185   -0.377089    1.264131
  H     -2.859941   -0.349427    2.027403
  C     -5.071321   -0.041565   -1.120039
  H     -3.234863    0.241509   -2.188721
  C     -5.663907   -0.264200    0.125927
  H     -5.307241   -0.549635    2.234971
  H     -5.703431    0.043181   -1.994012
  O     -7.008391   -0.355161    0.130909
  C     -7.650152   -0.576424    1.378400
  H     -8.715130   -0.612961    1.167643
  H     -7.339253   -1.523280    1.825383
  H     -7.450034    0.236132    2.080164
  H      6.607741    0.769491   -0.817711
  B      5.893936   -0.889938    1.327502
  O      7.256110   -0.790165    1.377667
  O      5.278281   -1.699896    2.237644
  H      7.630841   -0.196584    0.718762
  H      5.908400   -2.119604    2.834415

 Total Charge           Charge          ....    1
 Multiplicity           Mult            ....    1
 Number of Electrons    NEL             ....  212
 Basis Dimension        Dim             .... 1087

ORBITAL ENERGIES
----------------

  NO   OCC          E(Eh)            E(eV)
   0   2.0000     -20.044109      -545.4279
   1   2.0000     -20.021643      -544.8166
   2   2.0000     -20.016817      -544.6853
   3   2.0000     -15.187571      -413.2748
   4   2.0000     -10.921898      -297.2000
   5   2.0000     -10.921870      -297.1992
   6   2.0000     -10.908659      -296.8397
   7   2.0000     -10.904661      -296.7309
   8   2.0000     -10.876784      -295.9723
   9   2.0000     -10.871969      -295.8413
  10   2.0000     -10.871941      -295.8405
  11   2.0000     -10.868267      -295.7406
  12   2.0000     -10.857347      -295.4434
  13   2.0000     -10.857312      -295.4425
  14   2.0000     -10.855350      -295.3891
  15   2.0000     -10.853159      -295.3295
  16   2.0000     -10.853055      -295.3266
  17   2.0000     -10.846420      -295.1461
  18   2.0000     -10.845745      -295.1277
  19   2.0000     -10.845598      -295.1237
  20   2.0000     -10.844684      -295.0989
  21   2.0000     -10.844641      -295.0977
  22   2.0000     -10.844144      -295.0841
  23   2.0000     -10.842118      -295.0290
  24   2.0000     -10.840888      -294.9956
  25   2.0000     -10.840782      -294.9927
  26   2.0000     -10.834919      -294.8331
  27   2.0000     -10.834395      -294.8189
  28   2.0000     -10.833280      -294.7885
  29   2.0000     -10.821064      -294.4561
  30   2.0000      -7.313124      -199.0002
  31   2.0000      -1.289991       -35.1024
  32   2.0000      -1.254153       -34.1272
  33   2.0000      -1.231888       -33.5214
  34   2.0000      -1.216090       -33.0915
  35   2.0000      -1.091803       -29.7095
  36   2.0000      -1.074365       -29.2349
  37   2.0000      -1.059008       -28.8171
  38   2.0000      -1.045262       -28.4430
  39   2.0000      -1.012440       -27.5499
  40   2.0000      -0.961420       -26.1616
  41   2.0000      -0.947604       -25.7856
  42   2.0000      -0.944050       -25.6889
  43   2.0000      -0.935947       -25.4684
  44   2.0000      -0.928493       -25.2656
  45   2.0000      -0.926727       -25.2175
  46   2.0000      -0.909573       -24.7507
  47   2.0000      -0.858282       -23.3550
  48   2.0000      -0.838274       -22.8106
  49   2.0000      -0.811061       -22.0701
  50   2.0000      -0.797900       -21.7120
  51   2.0000      -0.771010       -20.9802
  52   2.0000      -0.762132       -20.7387
  53   2.0000      -0.755795       -20.5662
  54   2.0000      -0.751533       -20.4502
  55   2.0000      -0.723232       -19.6801
  56   2.0000      -0.703855       -19.1529
  57   2.0000      -0.699553       -19.0358
  58   2.0000      -0.687584       -18.7101
  59   2.0000      -0.675209       -18.3734
  60   2.0000      -0.668724       -18.1969
  61   2.0000      -0.648637       -17.6503
  62   2.0000      -0.635477       -17.2922
  63   2.0000      -0.626171       -17.0390
  64   2.0000      -0.618630       -16.8338
  65   2.0000      -0.605831       -16.4855
  66   2.0000      -0.599391       -16.3103
  67   2.0000      -0.595507       -16.2046
  68   2.0000      -0.587211       -15.9788
  69   2.0000      -0.583711       -15.8836
  70   2.0000      -0.567167       -15.4334
  71   2.0000      -0.565674       -15.3928
  72   2.0000      -0.563403       -15.3310
  73   2.0000      -0.558275       -15.1914
  74   2.0000      -0.557153       -15.1609
  75   2.0000      -0.551322       -15.0022
  76   2.0000      -0.543233       -14.7821
  77   2.0000      -0.541732       -14.7413
  78   2.0000      -0.531817       -14.4715
  79   2.0000      -0.518285       -14.1033
  80   2.0000      -0.511639       -13.9224
  81   2.0000      -0.508940       -13.8490
  82   2.0000      -0.498311       -13.5597
  83   2.0000      -0.493849       -13.4383
  84   2.0000      -0.490272       -13.3410
  85   2.0000      -0.484026       -13.1710
  86   2.0000      -0.479419       -13.0456
  87   2.0000      -0.474039       -12.8992
  88   2.0000      -0.471807       -12.8385
  89   2.0000      -0.465697       -12.6723
  90   2.0000      -0.463617       -12.6157
  91   2.0000      -0.457677       -12.4540
  92   2.0000      -0.443117       -12.0578
  93   2.0000      -0.438757       -11.9392
  94   2.0000      -0.437616       -11.9081
  95   2.0000      -0.430035       -11.7019
  96   2.0000      -0.424369       -11.5477
  97   2.0000      -0.423696       -11.5294
  98   2.0000      -0.394738       -10.7414
  99   2.0000      -0.345985        -9.4147
 100   2.0000      -0.326646        -8.8885
 101   2.0000      -0.323379        -8.7996
 102   2.0000      -0.322416        -8.7734
 103   2.0000      -0.318275        -8.6607
 104   2.0000      -0.297038        -8.0828
 105   2.0000      -0.287630        -7.8268
 106   0.0000      -0.050692        -1.3794
 107   0.0000       0.025023         0.6809
 108   0.0000       0.033269         0.9053
 109   0.0000       0.046613         1.2684
 110   0.0000       0.054725         1.4891

MULLIKEN ATOMIC CHARGES
-----------------------
   0 C :   -0.088653
   1 C :   -0.254875
   2 C :    0.194542
   3 C :    0.088872
   4 C :   -0.260119
   5 C :   -0.163468
   6 C :    0.344816
   7 C :    0.087297
   8 C :    0.198558
   9 C :   -0.255059
  10 H :    0.188046
  11 C :   -0.088578
  12 C :   -0.164910
  13 C :   -0.257232
  14 H :    0.179790
  15 H :    0.187280
  16 H :    0.195398
  17 H :    0.173477
  18 H :    0.179590
  19 H :    0.173606
  20 H :    0.194913
  21 N :    0.131949
  22 C :    0.079851
  23 C :   -0.326669
  24 C :   -0.284374
  25 C :   -0.019806
  26 C :   -0.156456
  27 C :   -0.215261
  28 H :    0.166894
  29 H :    0.172976
  30 H :    0.178694
  31 C :    0.087317
  32 C :   -0.252450
  33 C :   -0.228522
  34 C :   -0.236749
  35 H :    0.172754
  36 C :   -0.202562
  37 H :    0.169953
  38 C :    0.388450
  39 H :    0.175406
  40 H :    0.156518
  41 O :   -0.347527
  42 C :   -0.187249
  43 H :    0.153773
  44 H :    0.138153
  45 H :    0.138773
  46 H :    0.149017
  47 B :    0.499083
  48 O :   -0.536082
  49 O :   -0.555602
  50 H :    0.367811
  51 H :    0.368645
Sum of atomic charges:    1.0000000

LOEWDIN ATOMIC CHARGES
----------------------
   0 C :   -0.077286
   1 C :   -0.099987
   2 C :   -0.053382
   3 C :   -0.053321
   4 C :   -0.058192
   5 C :   -0.127165
   6 C :    0.068513
   7 C :   -0.053002
   8 C :   -0.053282
   9 C :   -0.100158
  10 H :    0.169348
  11 C :   -0.077237
  12 C :   -0.127358
  13 C :   -0.057563
  14 H :    0.163004
  15 H :    0.169348
  16 H :    0.169290
  17 H :    0.158103
  18 H :    0.162978
  19 H :    0.158110
  20 H :    0.169466
  21 N :    0.353790
  22 C :   -0.101107
  23 C :   -0.026107
  24 C :   -0.072954
  25 C :   -0.072741
  26 C :   -0.131208
  27 C :   -0.073600
  28 H :    0.155071
  29 H :    0.168631
  30 H :    0.163728
  31 C :   -0.172274
  32 C :   -0.084498
  33 C :   -0.087375
  34 C :   -0.125678
  35 H :    0.165425
  36 C :   -0.109547
  37 H :    0.165092
  38 C :   -0.232984
  39 H :    0.161239
  40 H :    0.157558
  41 O :    0.204142
  42 C :   -0.290788
  43 H :    0.115341
  44 H :    0.111619
  45 H :    0.111746
  46 H :    0.157043
  47 B :   -0.813529
  48 O :    0.153064
  49 O :    0.155503
  50 H :    0.221254
  51 H :    0.223917

  Mayer bond orders larger than 0.100000
B(  0-C ,  1-C ) :   1.5362 B(  0-C ,  5-C ) :   1.2193 B(  0-C , 14-H ) :   0.9705
B(  1-C ,  2-C ) :   1.2523 B(  1-C , 15-H ) :   0.9720 B(  2-C ,  3-C ) :   1.2633
B(  2-C , 21-N ) :   1.2323 B(  3-C ,  4-C ) :   1.1872 B(  3-C ,  6-C ) :   1.1816
B(  4-C ,  5-C ) :   1.5963 B(  4-C , 16-H ) :   0.9609 B(  5-C , 17-H ) :   0.9835
B(  6-C ,  7-C ) :   1.1871 B(  6-C , 22-C ) :   0.8128 B(  7-C ,  8-C ) :   1.2563
B(  7-C , 13-C ) :   1.1883 B(  7-C , 22-C ) :  -0.1002 B(  8-C ,  9-C ) :   1.2521
B(  8-C , 21-N ) :   1.2322 B(  9-C , 10-H ) :   0.9720 B(  9-C , 11-C ) :   1.5339
B( 11-C , 12-C ) :   1.2191 B( 11-C , 18-H ) :   0.9713 B( 12-C , 13-C ) :   1.6003
B( 12-C , 19-H ) :   0.9825 B( 13-C , 20-H ) :   0.9595 B( 21-N , 31-C ) :   0.6951
B( 22-C , 23-C ) :   1.3248 B( 22-C , 24-C ) :   1.3523 B( 23-C , 25-C ) :   1.3681
B( 23-C , 29-H ) :   0.9941 B( 24-C , 26-C ) :   1.4460 B( 24-C , 30-H ) :   0.9880
B( 25-C , 27-C ) :   1.3681 B( 25-C , 47-B ) :   1.0078 B( 26-C , 27-C ) :   1.3938
B( 26-C , 28-H ) :   0.9834 B( 27-C , 46-H ) :   0.9790 B( 31-C , 32-C ) :   1.5138
B( 31-C , 33-C ) :   1.4596 B( 32-C , 34-C ) :   1.3791 B( 32-C , 35-H ) :   0.9750
B( 33-C , 36-C ) :   1.4597 B( 33-C , 37-H ) :   0.9900 B( 34-C , 38-C ) :   1.3223
B( 34-C , 39-H ) :   0.9740 B( 36-C , 38-C ) :   1.3254 B( 36-C , 40-H ) :   0.9959
B( 38-C , 41-O ) :   1.1133 B( 41-O , 42-C ) :   0.8779 B( 42-C , 43-H ) :   0.9751
B( 42-C , 44-H ) :   0.9740 B( 42-C , 45-H ) :   0.9740 B( 47-B , 48-O ) :   1.2459
B( 47-B , 49-O ) :   1.2365 B( 48-O , 50-H ) :   0.8538 B( 49-O , 51-H ) :   0.8494

MP2 TOTAL ENERGY:    -1307.478104999 Eh

-----------------------------------------------------------------------------
         ABSORPTION SPECTRUM VIA TRANSITION ELECTRIC DIPOLE MOMENTS
-----------------------------------------------------------------------------
State   Energy    Wavelength  fosc         T2        TX        TY        TZ
        (cm-1)      (nm)                 (au**2)    (au)      (au)      (au)
-----------------------------------------------------------------------------
   1   16342.5    611.9   0.176004900   3.54553  -1.87355  -0.13626   0.12960
   2   21262.6    470.3   0.248304514   3.84453   0.14268  -1.91863  -0.37822
   3   15841.7    631.2   0.012121227   0.25190  -0.48891   0.10271   0.04810
   4   19555.1    511.4   0.045582929   0.76739   0.86937   0.09874  -0.04291
   5   22967.0    435.4   0.035588405   0.51013  -0.05050  -0.70117  -0.12625
   6   21478.8    465.6   0.012130686   0.18593   0.03681   0.29649   0.31092
   7   27746.5    360.4   0.034635456   0.41095   0.00745   0.47586  -0.42947
   8   25799.6    387.6   0.356418413   4.54802   0.08551  -2.05498  -0.56370
   9   27769.2    360.1   0.220831865   2.61803   0.18240   1.60594   0.07556
  10   28574.5    350.0   0.324431099   3.73783   0.42217  -1.81876  -0.50170
  11   44582.1    224.3   0.090021937   0.66476  -0.60781   0.37264  -0.39555
  12   43771.7    228.5   0.122928158   0.92456  -0.94209  -0.02994   0.19008
  13   41074.6    243.5   0.126952500   1.01752   1.00295  -0.03880   0.10054
  14   35560.0    281.2   0.028393615   0.26287  -0.12752   0.48281  -0.11619
  15   31609.4    316.4   0.027474418   0.28615  -0.52890   0.04518  -0.06610
  16   38362.2    260.7   0.008073921   0.06929  -0.20351   0.09728  -0.13568
  17   40036.2    249.8   0.702615939   5.77751   2.39553   0.17815  -0.08487
  18   37072.7    269.7   0.143830995   1.27724   0.43191  -0.54926   0.88827
  19   29788.3    335.7   0.029645736   0.32764  -0.51749  -0.22396   0.09839
  20   39851.4    250.9   0.171885280   1.41994   0.40246   0.68188  -0.89051
  21   43953.0    227.5   1.311186219   9.82090   3.13021   0.09189  -0.11943
  22   41878.4    238.8   0.065634758   0.51596  -0.36162  -0.45315   0.42409
  23   37761.6    264.8   0.035497944   0.30948  -0.14187   0.53631  -0.04152
  24   38682.9    258.5   0.041543725   0.35356  -0.21588   0.02110  -0.55363
  25   44459.7    224.9   0.368267448   2.72692  -0.06716   0.29697  -1.62303
  26   39158.3    255.4   0.002002102   0.01683   0.00404   0.12765   0.02285
  27   39536.5    252.9   0.000946993   0.00789   0.06834  -0.05651  -0.00470
  28   38886.2    257.2   0.007658103   0.06483  -0.07505   0.24207   0.02452
  29   39533.8    252.9   0.145475125   1.21142  -0.14556   1.08982  -0.05034
  30   37467.5    266.9   0.005414726   0.04758  -0.05486  -0.13667   0.16090

Dispersion correction           -0.050562280
FINAL SINGLE POINT ENERGY     -1304.981721316440

DIPOLE MOMENT
-------------
                                X             Y             Z
Electronic contribution:     14.52942      -0.29618      -1.27729
Nuclear contribution   :    -15.20823       0.95575       1.01498
                        -----------------------------------------
Total Dipole Moment    :     -0.67881       0.65957      -0.26231
                        -----------------------------------------
Magnitude (a.u.)       :      0.98216
Magnitude (Debye)      :      2.49644

Rotational constants in cm-1:     0.010590     0.002430     0.002180
Rotational constants in MHz :   317.490030    72.863317    65.347730

                             ****ORCA TERMINATED NORMALLY****
TOTAL RUN TIME: 0 days 1 hours 53 minutes 27 seconds 231 msec
