                         Program Version 5.0.2 -  RELEASE  -
|  1> %maxcore 3200
|  2> %pal
|  3>  nprocs= 8
|  4> end
|  5> ! RI-B2PLYP D3BJ def2-TZVP def2/J def2-TZVP/C RIJCOSX CPCM TightSCF
|  6> %TDDFT DCORR 4
|  7>    NROOTS   30
|  8>
|  9>    TDA      FALSE
| 10> END
| 11>
| 12> %CPCM
| 13>    SMD          TRUE
| 14>    SMDsolvent   "ACETONITRILE"
| 15> END
| 16>
| 17>
| 18> * xyz 1 1
| 19> C                  -3.52189000   -0.52501000   -0.05008700
| 20> C                  -2.90087400    0.72989200    0.01676100
| 21> C                  -1.51934600    0.84488300    0.08802500
| 22> C                  -0.68841000   -0.31903600    0.04796800
| 23> C                  -1.34967100   -1.57914000    0.02689900
| 24> C                  -2.69765000   -1.69089300   -0.01917500
| 25> C                   0.70136100   -0.20537400    0.04004800
| 26> C                   1.29126100    1.07949500   -0.01169900
| 27> C                   0.44605700    2.22994900    0.07301100
| 28> C                   0.99140500    3.51785500   -0.00013100
| 29> H                   0.35649700    4.38755400    0.00881700
| 30> C                   2.34835600    3.67686100   -0.13387100
| 31> C                   3.21173200    2.58960400   -0.20917700
| 32> C                   2.70124100    1.30852400   -0.16632100
| 33> H                  -3.51054600    1.61539600   -0.01689900
| 34> H                  -0.74778900   -2.47656800    0.03877300
| 35> H                  -3.14974400   -2.67107200   -0.03973600
| 36> H                   2.75628500    4.67734800   -0.20064000
| 37> H                   4.27212500    2.75167000   -0.32506300
| 38> N                  -0.91226800    2.06891200    0.22154400
| 39> C                  -1.73695500    3.23562800    0.51809200
| 40> H                  -1.17652900    3.93035400    1.13248800
| 41> H                  -2.06346500    3.73798800   -0.39237700
| 42> H                  -2.60518900    2.92266000    1.08586300
| 43> C                   1.49472700   -1.45902700    0.09499600
| 44> C                   1.66751900   -2.24348600   -1.04172100
| 45> C                   2.03202800   -1.88512000    1.30659500
| 46> C                   2.38910600   -3.42548200   -0.97133300
| 47> C                   2.74520000   -3.07163300    1.37535800
| 48> C                   2.93047900   -3.84285400    0.23619400
| 49> H                   2.52369200   -4.02427700   -1.86344500
| 50> H                   3.15671600   -3.39460100    2.32346900
| 51> H                   1.24184700   -1.91901000   -1.98372700
| 52> H                   1.89485700   -1.27870500    2.19395500
| 53> H                   3.49035800   -4.76783200    0.29053700
| 54> O                   3.47015400    0.22073600   -0.29071000
| 55> C                   4.87155600    0.39021200   -0.45657100
| 56> H                   5.09947600    0.94873800   -1.36633100
| 57> H                   5.31488900    0.89671700    0.40244900
| 58> H                   5.28245100   -0.61239200   -0.53606400
| 59> N                  -4.86123200   -0.63897200   -0.13997700
| 60> C                  -5.69336200    0.54654000   -0.16347700
| 61> H                  -5.46776300    1.17398500   -1.02855700
| 62> H                  -6.73440500    0.24922500   -0.21756900
| 63> H                  -5.55183400    1.14735500    0.73735400
| 64> C                  -5.49772500   -1.94080700   -0.22465500
| 65> H                  -6.56977300   -1.80043600   -0.30515000
| 66> H                  -5.15827400   -2.49575300   -1.10060700
| 67> H                  -5.29749100   -2.54329800    0.66281000
| 68> *
| 69>
| 70>
| 71>                          ****END OF INPUT****

CARTESIAN COORDINATES (ANGSTROEM)
---------------------------------
  C     -3.521890   -0.525010   -0.050087
  C     -2.900874    0.729892    0.016761
  C     -1.519346    0.844883    0.088025
  C     -0.688410   -0.319036    0.047968
  C     -1.349671   -1.579140    0.026899
  C     -2.697650   -1.690893   -0.019175
  C      0.701361   -0.205374    0.040048
  C      1.291261    1.079495   -0.011699
  C      0.446057    2.229949    0.073011
  C      0.991405    3.517855   -0.000131
  H      0.356497    4.387554    0.008817
  C      2.348356    3.676861   -0.133871
  C      3.211732    2.589604   -0.209177
  C      2.701241    1.308524   -0.166321
  H     -3.510546    1.615396   -0.016899
  H     -0.747789   -2.476568    0.038773
  H     -3.149744   -2.671072   -0.039736
  H      2.756285    4.677348   -0.200640
  H      4.272125    2.751670   -0.325063
  N     -0.912268    2.068912    0.221544
  C     -1.736955    3.235628    0.518092
  H     -1.176529    3.930354    1.132488
  H     -2.063465    3.737988   -0.392377
  H     -2.605189    2.922660    1.085863
  C      1.494727   -1.459027    0.094996
  C      1.667519   -2.243486   -1.041721
  C      2.032028   -1.885120    1.306595
  C      2.389106   -3.425482   -0.971333
  C      2.745200   -3.071633    1.375358
  C      2.930479   -3.842854    0.236194
  H      2.523692   -4.024277   -1.863445
  H      3.156716   -3.394601    2.323469
  H      1.241847   -1.919010   -1.983727
  H      1.894857   -1.278705    2.193955
  H      3.490358   -4.767832    0.290537
  O      3.470154    0.220736   -0.290710
  C      4.871556    0.390212   -0.456571
  H      5.099476    0.948738   -1.366331
  H      5.314889    0.896717    0.402449
  H      5.282451   -0.612392   -0.536064
  N     -4.861232   -0.638972   -0.139977
  C     -5.693362    0.546540   -0.163477
  H     -5.467763    1.173985   -1.028557
  H     -6.734405    0.249225   -0.217569
  H     -5.551834    1.147355    0.737354
  C     -5.497725   -1.940807   -0.224655
  H     -6.569773   -1.800436   -0.305150
  H     -5.158274   -2.495753   -1.100607
  H     -5.297491   -2.543298    0.662810

 Total Charge           Charge          ....    1
 Multiplicity           Mult            ....    1
 Number of Electrons    NEL             ....  182
 Basis Dimension        Dim             ....  944

ORBITAL ENERGIES
----------------

  NO   OCC          E(Eh)            E(eV)
   0   2.0000     -19.766052      -537.8616
   1   2.0000     -14.919903      -405.9912
   2   2.0000     -14.876893      -404.8208
   3   2.0000     -10.707902      -291.3768
   4   2.0000     -10.698480      -291.1205
   5   2.0000     -10.698454      -291.1197
   6   2.0000     -10.689566      -290.8779
   7   2.0000     -10.682950      -290.6978
   8   2.0000     -10.660295      -290.0814
   9   2.0000     -10.653961      -289.9090
  10   2.0000     -10.648022      -289.7474
  11   2.0000     -10.647622      -289.7365
  12   2.0000     -10.639725      -289.5216
  13   2.0000     -10.639536      -289.5165
  14   2.0000     -10.638241      -289.4812
  15   2.0000     -10.638028      -289.4754
  16   2.0000     -10.636926      -289.4455
  17   2.0000     -10.626700      -289.1672
  18   2.0000     -10.620485      -288.9981
  19   2.0000     -10.620379      -288.9952
  20   2.0000     -10.619877      -288.9815
  21   2.0000     -10.618960      -288.9566
  22   2.0000     -10.618689      -288.9492
  23   2.0000     -10.617622      -288.9202
  24   2.0000     -10.617374      -288.9134
  25   2.0000     -10.616547      -288.8909
  26   2.0000      -1.231445       -33.5093
  27   2.0000      -1.147087       -31.2138
  28   2.0000      -1.104963       -30.0676
  29   2.0000      -1.014597       -27.6086
  30   2.0000      -1.000451       -27.2237
  31   2.0000      -0.983850       -26.7719
  32   2.0000      -0.944613       -25.7042
  33   2.0000      -0.900194       -24.4955
  34   2.0000      -0.884687       -24.0736
  35   2.0000      -0.877840       -23.8872
  36   2.0000      -0.868878       -23.6434
  37   2.0000      -0.864550       -23.5256
  38   2.0000      -0.836439       -22.7607
  39   2.0000      -0.822285       -22.3755
  40   2.0000      -0.817037       -22.2327
  41   2.0000      -0.795293       -21.6410
  42   2.0000      -0.763881       -20.7862
  43   2.0000      -0.737296       -20.0629
  44   2.0000      -0.714295       -19.4370
  45   2.0000      -0.704246       -19.1635
  46   2.0000      -0.697918       -18.9913
  47   2.0000      -0.672112       -18.2891
  48   2.0000      -0.656492       -17.8640
  49   2.0000      -0.641530       -17.4569
  50   2.0000      -0.624572       -16.9955
  51   2.0000      -0.596082       -16.2202
  52   2.0000      -0.591317       -16.0906
  53   2.0000      -0.588382       -16.0107
  54   2.0000      -0.575992       -15.6735
  55   2.0000      -0.564537       -15.3618
  56   2.0000      -0.563247       -15.3267
  57   2.0000      -0.553048       -15.0492
  58   2.0000      -0.549102       -14.9418
  59   2.0000      -0.545838       -14.8530
  60   2.0000      -0.541916       -14.7463
  61   2.0000      -0.534733       -14.5508
  62   2.0000      -0.528048       -14.3689
  63   2.0000      -0.527279       -14.3480
  64   2.0000      -0.507220       -13.8021
  65   2.0000      -0.494863       -13.4659
  66   2.0000      -0.493445       -13.4273
  67   2.0000      -0.485440       -13.2095
  68   2.0000      -0.481188       -13.0938
  69   2.0000      -0.475827       -12.9479
  70   2.0000      -0.472878       -12.8677
  71   2.0000      -0.472537       -12.8584
  72   2.0000      -0.466537       -12.6951
  73   2.0000      -0.452493       -12.3130
  74   2.0000      -0.448896       -12.2151
  75   2.0000      -0.447307       -12.1718
  76   2.0000      -0.441207       -12.0058
  77   2.0000      -0.435577       -11.8526
  78   2.0000      -0.421777       -11.4771
  79   2.0000      -0.417276       -11.3547
  80   2.0000      -0.412199       -11.2165
  81   2.0000      -0.405222       -11.0267
  82   2.0000      -0.400084       -10.8868
  83   2.0000      -0.385742       -10.4966
  84   2.0000      -0.374098       -10.1797
  85   2.0000      -0.330951        -9.0056
  86   2.0000      -0.309770        -8.4293
  87   2.0000      -0.298210        -8.1147
  88   2.0000      -0.290380        -7.9016
  89   2.0000      -0.260564        -7.0903
  90   2.0000      -0.249982        -6.8024
  91   0.0000      -0.056643        -1.5413
  92   0.0000       0.014133         0.3846
  93   0.0000       0.035362         0.9622
  94   0.0000       0.038623         1.0510
  95   0.0000       0.047775         1.3000

MULLIKEN ATOMIC CHARGES
-----------------------
   0 C :    0.265906
   1 C :   -0.362934
   2 C :    0.108176
   3 C :    0.124241
   4 C :   -0.237501
   5 C :   -0.279211
   6 C :    0.257459
   7 C :    0.059042
   8 C :    0.174044
   9 C :   -0.334241
  10 H :    0.175114
  11 C :   -0.086253
  12 C :   -0.313646
  13 C :    0.271527
  14 H :    0.195942
  15 H :    0.186552
  16 H :    0.173221
  17 H :    0.172257
  18 H :    0.173740
  19 N :   -0.000506
  20 C :   -0.317184
  21 H :    0.172287
  22 H :    0.167808
  23 H :    0.170848
  24 C :    0.152332
  25 C :   -0.252308
  26 C :   -0.246652
  27 C :   -0.187344
  28 C :   -0.189846
  29 C :   -0.124537
  30 H :    0.157249
  31 H :    0.156951
  32 H :    0.159173
  33 H :    0.158660
  34 H :    0.159488
  35 O :   -0.318333
  36 C :   -0.223608
  37 H :    0.147362
  38 H :    0.146673
  39 H :    0.156737
  40 N :   -0.076627
  41 C :   -0.305042
  42 H :    0.146187
  43 H :    0.162163
  44 H :    0.147110
  45 C :   -0.299230
  46 H :    0.159533
  47 H :    0.148792
  48 H :    0.148433
Sum of atomic charges:    1.0000000

LOEWDIN ATOMIC CHARGES
----------------------
   0 C :   -0.153375
   1 C :   -0.121481
   2 C :   -0.085797
   3 C :   -0.066970
   4 C :   -0.058109
   5 C :   -0.104249
   6 C :    0.046067
   7 C :   -0.034968
   8 C :   -0.080641
   9 C :   -0.138316
  10 H :    0.161506
  11 C :   -0.096718
  12 C :   -0.142824
  13 C :   -0.183538
  14 H :    0.163397
  15 H :    0.171285
  16 H :    0.163790
  17 H :    0.162471
  18 H :    0.162525
  19 N :    0.290019
  20 C :   -0.221891
  21 H :    0.133867
  22 H :    0.129880
  23 H :    0.134134
  24 C :   -0.101945
  25 C :   -0.099373
  26 C :   -0.095995
  27 C :   -0.141556
  28 C :   -0.140905
  29 C :   -0.143198
  30 H :    0.152220
  31 H :    0.152227
  32 H :    0.158117
  33 H :    0.157930
  34 H :    0.151009
  35 O :    0.257781
  36 C :   -0.287940
  37 H :    0.116174
  38 H :    0.115992
  39 H :    0.118999
  40 N :    0.178236
  41 C :   -0.260143
  42 H :    0.121683
  43 H :    0.127413
  44 H :    0.121964
  45 C :   -0.259629
  46 H :    0.127593
  47 H :    0.121800
  48 H :    0.121482

  Mayer bond orders larger than 0.100000
B(  0-C ,  1-C ) :   1.3212 B(  0-C ,  5-C ) :   1.1055 B(  0-C , 40-N ) :   1.3783
B(  1-C ,  2-C ) :   1.4097 B(  1-C , 14-H ) :   0.9303 B(  2-C ,  3-C ) :   1.2387
B(  2-C , 19-N ) :   1.2359 B(  3-C ,  4-C ) :   1.1274 B(  3-C ,  6-C ) :   1.3394
B(  4-C ,  5-C ) :   1.7060 B(  4-C , 15-H ) :   0.9623 B(  5-C , 16-H ) :   0.9725
B(  6-C ,  7-C ) :   1.1388 B(  6-C , 24-C ) :   0.7744 B(  7-C ,  8-C ) :   1.2527
B(  7-C , 13-C ) :   1.1481 B(  8-C ,  9-C ) :   1.2681 B(  8-C , 19-N ) :   1.2298
B(  9-C , 10-H ) :   0.9834 B(  9-C , 11-C ) :   1.4939 B( 11-C , 12-C ) :   1.3034
B( 11-C , 17-H ) :   0.9687 B( 12-C , 13-C ) :   1.4438 B( 12-C , 18-H ) :   0.9795
B( 13-C , 35-O ) :   1.1712 B( 19-N , 20-C ) :   0.8919 B( 20-C , 21-H ) :   0.9617
B( 20-C , 22-H ) :   0.9606 B( 20-C , 23-H ) :   0.9614 B( 24-C , 25-C ) :   1.3610
B( 24-C , 26-C ) :   1.4005 B( 25-C , 27-C ) :   1.4352 B( 25-C , 32-H ) :   0.9868
B( 26-C , 28-C ) :   1.4491 B( 26-C , 33-H ) :   0.9844 B( 27-C , 29-C ) :   1.3952
B( 27-C , 30-H ) :   0.9819 B( 28-C , 29-C ) :   1.3866 B( 28-C , 31-H ) :   0.9825
B( 29-C , 34-H ) :   0.9764 B( 35-O , 36-C ) :   0.8861 B( 36-C , 37-H ) :   0.9694
B( 36-C , 38-H ) :   0.9696 B( 36-C , 39-H ) :   0.9728 B( 40-N , 41-C ) :   0.9146
B( 40-N , 45-C ) :   0.9121 B( 41-C , 42-H ) :   0.9660 B( 41-C , 43-H ) :   0.9685
B( 41-C , 44-H ) :   0.9677 B( 45-C , 46-H ) :   0.9683 B( 45-C , 47-H ) :   0.9689
B( 45-C , 48-H ) :   0.9680

MP2 TOTAL ENERGY:    -1074.348492712 Eh

-----------------------------------------------------------------------------
         ABSORPTION SPECTRUM VIA TRANSITION ELECTRIC DIPOLE MOMENTS
-----------------------------------------------------------------------------
State   Energy    Wavelength  fosc         T2        TX        TY        TZ
        (cm-1)      (nm)                 (au**2)    (au)      (au)      (au)
-----------------------------------------------------------------------------
   1   21053.6    475.0   0.299671380   4.68592   1.62825   1.42418   0.08031
   2   23712.7    421.7   0.465082683   6.45691  -2.52412  -0.28503   0.06695
   3   29424.3    339.9   0.018501677   0.20700   0.10896  -0.43184   0.09299
   4   31964.5    312.8   0.014823562   0.15267   0.38712   0.04714  -0.02419
   5   32554.9    307.2   0.009509302   0.09616   0.26682  -0.14625  -0.05985
   6   35614.6    280.8   0.863422690   7.98125  -2.78964  -0.44351  -0.04955
   7   35300.1    283.3   0.099190967   0.92506   0.91853  -0.28455  -0.01985
   8   39657.9    252.2   0.492244983   4.08627   0.61025   1.92312  -0.12431
   9   41392.3    241.6   0.003535108   0.02812  -0.05749  -0.15033   0.04703
  10   39656.5    252.2   0.057302532   0.47570  -0.04143  -0.68835   0.01242
  11   47904.1    208.8   0.002974730   0.02044   0.05443  -0.11919  -0.05722
  12   43830.2    228.2   0.094222234   0.70771  -0.22056  -0.80893  -0.06849
  13   43972.6    227.4   0.060335178   0.45171  -0.65023  -0.17002   0.00354
  14   44973.5    222.4   0.018550653   0.13579   0.10840   0.31354  -0.16043
  15   44933.9    222.5   0.088519595   0.64855   0.65484   0.46333   0.07108
  16   43281.0    231.0   0.136641723   1.03935  -0.54463   0.79729  -0.32719
  17   45277.2    220.9   0.173107270   1.25867  -0.20061   1.01588   0.43175
  18   45214.7    221.2   0.040505720   0.29493  -0.48171  -0.16387   0.18980
  19   46674.7    214.2   0.061453592   0.43345  -0.12534   0.33000  -0.55573
  20   49535.7    201.9   0.069009586   0.45863  -0.12373   0.12327  -0.65432
  21   46343.5    215.8   0.036537441   0.25955   0.34807   0.22237  -0.29824
  22   46693.6    214.2   0.022342022   0.15752   0.20774   0.33314   0.05818
  23   47000.7    212.8   0.224776248   1.57442  -0.84607   0.89273   0.24823
  24   49838.3    200.6   0.398892547   2.63493  -0.75636   1.42218  -0.20061
  25   51342.3    194.8   0.326356858   2.09263   0.39973   0.27442   1.36292
  26   48470.8    206.3   0.007184448   0.04880   0.06220  -0.21162  -0.01197
  27   49078.9    203.8   0.041522203   0.27852  -0.13212   0.38775   0.33275
  28   53251.5    187.8   0.001082124   0.00669  -0.05117   0.06381   0.00016
  29   51522.6    194.1   0.064659358   0.41315   0.47612  -0.39672   0.17053
  30   51505.2    194.2   0.223578803   1.42908  -0.75326   0.92730  -0.04228

Dispersion correction           -0.054966222
FINAL SINGLE POINT ENERGY     -1072.911231121290

DIPOLE MOMENT
-------------
                                X             Y             Z
Electronic contribution:     10.41549       1.12636       0.45785
Nuclear contribution   :    -12.63152       0.46724      -0.50410
                        -----------------------------------------
Total Dipole Moment    :     -2.21603       1.59360      -0.04625
                        -----------------------------------------
Magnitude (a.u.)       :      2.72992
Magnitude (Debye)      :      6.93891

Rotational constants in cm-1:     0.010162     0.005301     0.003642
Rotational constants in MHz :   304.643415   158.912869   109.175082

                             ****ORCA TERMINATED NORMALLY****
TOTAL RUN TIME: 0 days 1 hours 46 minutes 13 seconds 217 msec
