                         Program Version 5.0.2 -  RELEASE  -
|  1> %maxcore 20000
|  2> %pal
|  3>  nprocs= 6
|  4> end
|  5> ! RI-SCS-PBE-QIDH   def2-TZVP def2/J def2-TZVP/C RIJCOSX CPCM TightSCF
|  6> %TDDFT
|  7>    NROOTS   30
|  8>    dcorr 4
|  9>    doscs true
| 10>    TDA      FALSE
| 11> END
| 12>
| 13> %CPCM
| 14>    SMD          TRUE
| 15>    SMDsolvent   "ACETONITRILE"
| 16> END
| 17>
| 18>
| 19> * xyz 1 1
| 20> C                  -3.52189000   -0.52501000   -0.05008700
| 21> C                  -2.90087400    0.72989200    0.01676100
| 22> C                  -1.51934600    0.84488300    0.08802500
| 23> C                  -0.68841000   -0.31903600    0.04796800
| 24> C                  -1.34967100   -1.57914000    0.02689900
| 25> C                  -2.69765000   -1.69089300   -0.01917500
| 26> C                   0.70136100   -0.20537400    0.04004800
| 27> C                   1.29126100    1.07949500   -0.01169900
| 28> C                   0.44605700    2.22994900    0.07301100
| 29> C                   0.99140500    3.51785500   -0.00013100
| 30> H                   0.35649700    4.38755400    0.00881700
| 31> C                   2.34835600    3.67686100   -0.13387100
| 32> C                   3.21173200    2.58960400   -0.20917700
| 33> C                   2.70124100    1.30852400   -0.16632100
| 34> H                  -3.51054600    1.61539600   -0.01689900
| 35> H                  -0.74778900   -2.47656800    0.03877300
| 36> H                  -3.14974400   -2.67107200   -0.03973600
| 37> H                   2.75628500    4.67734800   -0.20064000
| 38> H                   4.27212500    2.75167000   -0.32506300
| 39> N                  -0.91226800    2.06891200    0.22154400
| 40> C                  -1.73695500    3.23562800    0.51809200
| 41> H                  -1.17652900    3.93035400    1.13248800
| 42> H                  -2.06346500    3.73798800   -0.39237700
| 43> H                  -2.60518900    2.92266000    1.08586300
| 44> C                   1.49472700   -1.45902700    0.09499600
| 45> C                   1.66751900   -2.24348600   -1.04172100
| 46> C                   2.03202800   -1.88512000    1.30659500
| 47> C                   2.38910600   -3.42548200   -0.97133300
| 48> C                   2.74520000   -3.07163300    1.37535800
| 49> C                   2.93047900   -3.84285400    0.23619400
| 50> H                   2.52369200   -4.02427700   -1.86344500
| 51> H                   3.15671600   -3.39460100    2.32346900
| 52> H                   1.24184700   -1.91901000   -1.98372700
| 53> H                   1.89485700   -1.27870500    2.19395500
| 54> H                   3.49035800   -4.76783200    0.29053700
| 55> O                   3.47015400    0.22073600   -0.29071000
| 56> C                   4.87155600    0.39021200   -0.45657100
| 57> H                   5.09947600    0.94873800   -1.36633100
| 58> H                   5.31488900    0.89671700    0.40244900
| 59> H                   5.28245100   -0.61239200   -0.53606400
| 60> N                  -4.86123200   -0.63897200   -0.13997700
| 61> C                  -5.69336200    0.54654000   -0.16347700
| 62> H                  -5.46776300    1.17398500   -1.02855700
| 63> H                  -6.73440500    0.24922500   -0.21756900
| 64> H                  -5.55183400    1.14735500    0.73735400
| 65> C                  -5.49772500   -1.94080700   -0.22465500
| 66> H                  -6.56977300   -1.80043600   -0.30515000
| 67> H                  -5.15827400   -2.49575300   -1.10060700
| 68> H                  -5.29749100   -2.54329800    0.66281000
| 69> *
| 70>
| 71>
| 72>                          ****END OF INPUT****

CARTESIAN COORDINATES (ANGSTROEM)
---------------------------------
  C     -3.521890   -0.525010   -0.050087
  C     -2.900874    0.729892    0.016761
  C     -1.519346    0.844883    0.088025
  C     -0.688410   -0.319036    0.047968
  C     -1.349671   -1.579140    0.026899
  C     -2.697650   -1.690893   -0.019175
  C      0.701361   -0.205374    0.040048
  C      1.291261    1.079495   -0.011699
  C      0.446057    2.229949    0.073011
  C      0.991405    3.517855   -0.000131
  H      0.356497    4.387554    0.008817
  C      2.348356    3.676861   -0.133871
  C      3.211732    2.589604   -0.209177
  C      2.701241    1.308524   -0.166321
  H     -3.510546    1.615396   -0.016899
  H     -0.747789   -2.476568    0.038773
  H     -3.149744   -2.671072   -0.039736
  H      2.756285    4.677348   -0.200640
  H      4.272125    2.751670   -0.325063
  N     -0.912268    2.068912    0.221544
  C     -1.736955    3.235628    0.518092
  H     -1.176529    3.930354    1.132488
  H     -2.063465    3.737988   -0.392377
  H     -2.605189    2.922660    1.085863
  C      1.494727   -1.459027    0.094996
  C      1.667519   -2.243486   -1.041721
  C      2.032028   -1.885120    1.306595
  C      2.389106   -3.425482   -0.971333
  C      2.745200   -3.071633    1.375358
  C      2.930479   -3.842854    0.236194
  H      2.523692   -4.024277   -1.863445
  H      3.156716   -3.394601    2.323469
  H      1.241847   -1.919010   -1.983727
  H      1.894857   -1.278705    2.193955
  H      3.490358   -4.767832    0.290537
  O      3.470154    0.220736   -0.290710
  C      4.871556    0.390212   -0.456571
  H      5.099476    0.948738   -1.366331
  H      5.314889    0.896717    0.402449
  H      5.282451   -0.612392   -0.536064
  N     -4.861232   -0.638972   -0.139977
  C     -5.693362    0.546540   -0.163477
  H     -5.467763    1.173985   -1.028557
  H     -6.734405    0.249225   -0.217569
  H     -5.551834    1.147355    0.737354
  C     -5.497725   -1.940807   -0.224655
  H     -6.569773   -1.800436   -0.305150
  H     -5.158274   -2.495753   -1.100607
  H     -5.297491   -2.543298    0.662810

 Total Charge           Charge          ....    1
 Multiplicity           Mult            ....    1
 Number of Electrons    NEL             ....  182
 Basis Dimension        Dim             ....  944

ORBITAL ENERGIES
----------------

  NO   OCC          E(Eh)            E(eV)
   0   2.0000     -20.047557      -545.5218
   1   2.0000     -15.167382      -412.7255
   2   2.0000     -15.122652      -411.5083
   3   2.0000     -10.916647      -297.0571
   4   2.0000     -10.908495      -296.8352
   5   2.0000     -10.908080      -296.8240
   6   2.0000     -10.899173      -296.5816
   7   2.0000     -10.894733      -296.4608
   8   2.0000     -10.862405      -295.5811
   9   2.0000     -10.860327      -295.5245
  10   2.0000     -10.853805      -295.3471
  11   2.0000     -10.850936      -295.2690
  12   2.0000     -10.847458      -295.1743
  13   2.0000     -10.847403      -295.1728
  14   2.0000     -10.844610      -295.0968
  15   2.0000     -10.840466      -294.9841
  16   2.0000     -10.840242      -294.9780
  17   2.0000     -10.831622      -294.7434
  18   2.0000     -10.826728      -294.6103
  19   2.0000     -10.826597      -294.6067
  20   2.0000     -10.824685      -294.5546
  21   2.0000     -10.824675      -294.5544
  22   2.0000     -10.824324      -294.5448
  23   2.0000     -10.822987      -294.5085
  24   2.0000     -10.822083      -294.4839
  25   2.0000     -10.821075      -294.4564
  26   2.0000      -1.313435       -35.7404
  27   2.0000      -1.225158       -33.3382
  28   2.0000      -1.180933       -32.1348
  29   2.0000      -1.088123       -29.6093
  30   2.0000      -1.072744       -29.1908
  31   2.0000      -1.055728       -28.7278
  32   2.0000      -1.014159       -27.5967
  33   2.0000      -0.966666       -26.3043
  34   2.0000      -0.950438       -25.8627
  35   2.0000      -0.943114       -25.6634
  36   2.0000      -0.933673       -25.4065
  37   2.0000      -0.930193       -25.3118
  38   2.0000      -0.897758       -24.4292
  39   2.0000      -0.883740       -24.0478
  40   2.0000      -0.877703       -23.8835
  41   2.0000      -0.854602       -23.2549
  42   2.0000      -0.822107       -22.3707
  43   2.0000      -0.793576       -21.5943
  44   2.0000      -0.769421       -20.9370
  45   2.0000      -0.759439       -20.6654
  46   2.0000      -0.752496       -20.4765
  47   2.0000      -0.724998       -19.7282
  48   2.0000      -0.707133       -19.2421
  49   2.0000      -0.691285       -18.8108
  50   2.0000      -0.673446       -18.3254
  51   2.0000      -0.642938       -17.4952
  52   2.0000      -0.637771       -17.3546
  53   2.0000      -0.635050       -17.2806
  54   2.0000      -0.622018       -16.9260
  55   2.0000      -0.610323       -16.6077
  56   2.0000      -0.608544       -16.5593
  57   2.0000      -0.599329       -16.3086
  58   2.0000      -0.593619       -16.1532
  59   2.0000      -0.590601       -16.0711
  60   2.0000      -0.586649       -15.9635
  61   2.0000      -0.579115       -15.7585
  62   2.0000      -0.570924       -15.5356
  63   2.0000      -0.570397       -15.5213
  64   2.0000      -0.549411       -14.9502
  65   2.0000      -0.536220       -14.5913
  66   2.0000      -0.534704       -14.5500
  67   2.0000      -0.526044       -14.3144
  68   2.0000      -0.521513       -14.1911
  69   2.0000      -0.515474       -14.0268
  70   2.0000      -0.512767       -13.9531
  71   2.0000      -0.511337       -13.9142
  72   2.0000      -0.505171       -13.7464
  73   2.0000      -0.491472       -13.3736
  74   2.0000      -0.487251       -13.2588
  75   2.0000      -0.485744       -13.2178
  76   2.0000      -0.479725       -13.0540
  77   2.0000      -0.474634       -12.9154
  78   2.0000      -0.458919       -12.4878
  79   2.0000      -0.455225       -12.3873
  80   2.0000      -0.449329       -12.2269
  81   2.0000      -0.443234       -12.0610
  82   2.0000      -0.437471       -11.9042
  83   2.0000      -0.421885       -11.4801
  84   2.0000      -0.409317       -11.1381
  85   2.0000      -0.361952        -9.8492
  86   2.0000      -0.339847        -9.2477
  87   2.0000      -0.326553        -8.8860
  88   2.0000      -0.319154        -8.6846
  89   2.0000      -0.287575        -7.8253
  90   2.0000      -0.276741        -7.5305
  91   0.0000      -0.044758        -1.2179
  92   0.0000       0.028967         0.7882
  93   0.0000       0.051865         1.4113
  94   0.0000       0.055656         1.5145
  95   0.0000       0.066130         1.7995

MULLIKEN ATOMIC CHARGES
-----------------------
   0 C :    0.291460
   1 C :   -0.454595
   2 C :    0.152359
   3 C :    0.119024
   4 C :   -0.255374
   5 C :   -0.327397
   6 C :    0.279035
   7 C :    0.034635
   8 C :    0.202597
   9 C :   -0.397056
  10 H :    0.187207
  11 C :   -0.070764
  12 C :   -0.357463
  13 C :    0.266650
  14 H :    0.207119
  15 H :    0.195644
  16 H :    0.184685
  17 H :    0.184701
  18 H :    0.187660
  19 N :    0.049996
  20 C :   -0.353127
  21 H :    0.185663
  22 H :    0.178493
  23 H :    0.183494
  24 C :    0.155326
  25 C :   -0.273058
  26 C :   -0.266372
  27 C :   -0.202501
  28 C :   -0.205892
  29 C :   -0.132302
  30 H :    0.170982
  31 H :    0.170677
  32 H :    0.174082
  33 H :    0.173659
  34 H :    0.173290
  35 O :   -0.288706
  36 C :   -0.265091
  37 H :    0.158497
  38 H :    0.157580
  39 H :    0.168953
  40 N :   -0.041555
  41 C :   -0.345848
  42 H :    0.157349
  43 H :    0.176497
  44 H :    0.157979
  45 C :   -0.341802
  46 H :    0.173662
  47 H :    0.160138
  48 H :    0.159810
Sum of atomic charges:    1.0000000

LOEWDIN ATOMIC CHARGES
----------------------
   0 C :   -0.151513
   1 C :   -0.127887
   2 C :   -0.084013
   3 C :   -0.073557
   4 C :   -0.056059
   5 C :   -0.108880
   6 C :    0.050355
   7 C :   -0.040308
   8 C :   -0.079377
   9 C :   -0.143735
  10 H :    0.164568
  11 C :   -0.093602
  12 C :   -0.147725
  13 C :   -0.181156
  14 H :    0.166202
  15 H :    0.174725
  16 H :    0.166836
  17 H :    0.166368
  18 H :    0.165586
  19 N :    0.285563
  20 C :   -0.226508
  21 H :    0.136239
  22 H :    0.132417
  23 H :    0.136465
  24 C :   -0.106953
  25 C :   -0.100960
  26 C :   -0.097144
  27 C :   -0.143392
  28 C :   -0.142801
  29 C :   -0.144635
  30 H :    0.155700
  31 H :    0.155700
  32 H :    0.161986
  33 H :    0.161751
  34 H :    0.154459
  35 O :    0.250507
  36 C :   -0.290901
  37 H :    0.118569
  38 H :    0.118375
  39 H :    0.121003
  40 N :    0.172494
  41 C :   -0.265519
  42 H :    0.124040
  43 H :    0.129712
  44 H :    0.124290
  45 C :   -0.265114
  46 H :    0.129897
  47 H :    0.124132
  48 H :    0.123798

  Mayer bond orders larger than 0.100000
B(  0-C ,  1-C ) :   1.3057 B(  0-C ,  5-C ) :   1.1028 B(  0-C , 40-N ) :   1.4137
B(  1-C ,  2-C ) :   1.3923 B(  1-C , 14-H ) :   0.9292 B(  2-C ,  3-C ) :   1.2513
B(  2-C , 19-N ) :   1.2603 B(  3-C ,  4-C ) :   1.1051 B(  3-C ,  6-C ) :   1.3674
B(  4-C ,  5-C ) :   1.7129 B(  4-C , 15-H ) :   0.9659 B(  5-C , 16-H ) :   0.9710
B(  6-C ,  7-C ) :   1.1399 B(  6-C , 24-C ) :   0.7602 B(  7-C ,  8-C ) :   1.2410
B(  7-C , 13-C ) :   1.1231 B(  8-C ,  9-C ) :   1.2702 B(  8-C , 19-N ) :   1.2473
B(  9-C , 10-H ) :   0.9828 B(  9-C , 11-C ) :   1.5025 B( 11-C , 12-C ) :   1.3083
B( 11-C , 17-H ) :   0.9639 B( 12-C , 13-C ) :   1.4613 B( 12-C , 18-H ) :   0.9747
B( 13-C , 35-O ) :   1.1827 B( 19-N , 20-C ) :   0.8908 B( 20-C , 21-H ) :   0.9562
B( 20-C , 22-H ) :   0.9603 B( 20-C , 23-H ) :   0.9556 B( 24-C , 25-C ) :   1.3739
B( 24-C , 26-C ) :   1.4267 B( 25-C , 27-C ) :   1.4423 B( 25-C , 32-H ) :   0.9838
B( 26-C , 28-C ) :   1.4593 B( 26-C , 33-H ) :   0.9813 B( 27-C , 29-C ) :   1.4020
B( 27-C , 30-H ) :   0.9791 B( 28-C , 29-C ) :   1.3929 B( 28-C , 31-H ) :   0.9796
B( 29-C , 34-H ) :   0.9743 B( 35-O , 36-C ) :   0.8895 B( 36-C , 37-H ) :   0.9685
B( 36-C , 38-H ) :   0.9687 B( 36-C , 39-H ) :   0.9700 B( 40-N , 41-C ) :   0.9191
B( 40-N , 45-C ) :   0.9165 B( 41-C , 42-H ) :   0.9647 B( 41-C , 43-H ) :   0.9633
B( 41-C , 44-H ) :   0.9660 B( 45-C , 46-H ) :   0.9634 B( 45-C , 47-H ) :   0.9675
B( 45-C , 48-H ) :   0.9665

MP2 TOTAL ENERGY:    -1073.834712670 Eh

-----------------------------------------------------------------------------
         ABSORPTION SPECTRUM VIA TRANSITION ELECTRIC DIPOLE MOMENTS
-----------------------------------------------------------------------------
State   Energy    Wavelength  fosc         T2        TX        TY        TZ
        (cm-1)      (nm)                 (au**2)    (au)      (au)      (au)
-----------------------------------------------------------------------------
   1   21371.5    467.9   0.438483647   6.75452  -2.11345  -1.51100  -0.06886
   2   24140.6    414.2   0.376929621   5.14030  -2.26559  -0.02038   0.08370
   3   31636.2    316.1   0.024805103   0.25813   0.10004   0.48607  -0.10886
   4   32335.9    309.3   0.052656759   0.53610  -0.73133   0.03425  -0.00873
   5   35367.8    282.7   0.036873669   0.34323  -0.56903   0.11519   0.07850
   6   36956.0    270.6   0.812243096   7.23563   2.66878   0.32808   0.07489
   7   36458.4    274.3   0.089278744   0.80617   0.69133  -0.57249  -0.02225
   8   40172.1    248.9   0.139849852   1.14608  -0.40193  -0.99128   0.04345
   9   41099.7    243.3   0.390228474   3.12576   0.65593   1.63797  -0.11213
  10   48324.5    206.9   0.005404878   0.03682  -0.15717   0.09737   0.05136
  11   41955.0    238.4   0.138886546   1.08981  -0.08170   1.03881  -0.06327
  12   45693.9    218.8   0.079889127   0.57558  -0.16091   0.73958   0.05209
  13   47415.5    210.9   0.118791858   0.82479   0.87143   0.16976   0.19126
  14   46157.0    216.7   0.145740535   1.03948  -0.70949  -0.71994   0.13342
  15   49039.0    203.9   0.345339966   2.31836  -0.76712   0.83061  -1.01979
  16   47158.3    212.1   0.060525471   0.42253  -0.13621   0.63115   0.07502
  17   50385.9    198.5   0.449176801   2.93484   0.57244  -1.33790  -0.90398
  18   49733.9    201.1   0.085414062   0.56540   0.07058  -0.11820  -0.73922
  19   51329.1    194.8   0.226954697   1.45563   0.62647  -1.00514   0.22990
  20   52520.0    190.4   0.176273609   1.10494  -0.30915   0.79940  -0.60854
  21   50475.3    198.1   0.087580969   0.57122   0.14887  -0.58652  -0.45283
  22   49514.0    202.0   0.091743759   0.60999  -0.56808   0.46883   0.25978
  23   49853.4    200.6   0.016654226   0.10998  -0.29057   0.15568   0.03619
  24   51083.2    195.8   0.092674751   0.59725  -0.50090  -0.14917  -0.56930
  25   51319.7    194.9   0.025141244   0.16128   0.27761   0.06687   0.28238
  26   52137.0    191.8   0.007177663   0.04532  -0.14389  -0.13815  -0.07438
  27   51337.1    194.8   0.075270970   0.48269   0.54428  -0.34825  -0.25528
  28   57059.8    175.3   0.001552076   0.00895   0.03079   0.07487   0.04901
  29   51454.9    194.3   0.031399488   0.20090   0.25621  -0.36590  -0.03705
  30   54519.0    183.4   0.043740323   0.26412   0.34652  -0.30388  -0.22739

FINAL SINGLE POINT ENERGY     -1072.152760773952

DIPOLE MOMENT
-------------
                                X             Y             Z
Electronic contribution:     10.49493       1.10549       0.45703
Nuclear contribution   :    -12.63152       0.46724      -0.50410
                        -----------------------------------------
Total Dipole Moment    :     -2.13659       1.57274      -0.04707
                        -----------------------------------------
Magnitude (a.u.)       :      2.65343
Magnitude (Debye)      :      6.74449

Rotational constants in cm-1:     0.010162     0.005301     0.003642
Rotational constants in MHz :   304.643415   158.912869   109.175082

                             ****ORCA TERMINATED NORMALLY****
TOTAL RUN TIME: 0 days 4 hours 59 minutes 19 seconds 422 msec
