                         Program Version 5.0.2 -  RELEASE  -
|  1> %maxcore 20000
|  2> %pal
|  3>  nprocs= 4
|  4> end
|  5> ! RI-B2GP-PLYP   def2-TZVP def2/J def2-TZVP/C RIJCOSX CPCM TightSCF
|  6> %TDDFT
|  7>    NROOTS   30
|  8>    dcorr 4
|  9>    TDA      FALSE
| 10> END
| 11>
| 12> %CPCM
| 13>    SMD          TRUE
| 14>    SMDsolvent   "ACETONITRILE"
| 15> END
| 16>
| 17>
| 18> * xyz 1 1
| 19> C                  -3.52189000   -0.52501000   -0.05008700
| 20> C                  -2.90087400    0.72989200    0.01676100
| 21> C                  -1.51934600    0.84488300    0.08802500
| 22> C                  -0.68841000   -0.31903600    0.04796800
| 23> C                  -1.34967100   -1.57914000    0.02689900
| 24> C                  -2.69765000   -1.69089300   -0.01917500
| 25> C                   0.70136100   -0.20537400    0.04004800
| 26> C                   1.29126100    1.07949500   -0.01169900
| 27> C                   0.44605700    2.22994900    0.07301100
| 28> C                   0.99140500    3.51785500   -0.00013100
| 29> H                   0.35649700    4.38755400    0.00881700
| 30> C                   2.34835600    3.67686100   -0.13387100
| 31> C                   3.21173200    2.58960400   -0.20917700
| 32> C                   2.70124100    1.30852400   -0.16632100
| 33> H                  -3.51054600    1.61539600   -0.01689900
| 34> H                  -0.74778900   -2.47656800    0.03877300
| 35> H                  -3.14974400   -2.67107200   -0.03973600
| 36> H                   2.75628500    4.67734800   -0.20064000
| 37> H                   4.27212500    2.75167000   -0.32506300
| 38> N                  -0.91226800    2.06891200    0.22154400
| 39> C                  -1.73695500    3.23562800    0.51809200
| 40> H                  -1.17652900    3.93035400    1.13248800
| 41> H                  -2.06346500    3.73798800   -0.39237700
| 42> H                  -2.60518900    2.92266000    1.08586300
| 43> C                   1.49472700   -1.45902700    0.09499600
| 44> C                   1.66751900   -2.24348600   -1.04172100
| 45> C                   2.03202800   -1.88512000    1.30659500
| 46> C                   2.38910600   -3.42548200   -0.97133300
| 47> C                   2.74520000   -3.07163300    1.37535800
| 48> C                   2.93047900   -3.84285400    0.23619400
| 49> H                   2.52369200   -4.02427700   -1.86344500
| 50> H                   3.15671600   -3.39460100    2.32346900
| 51> H                   1.24184700   -1.91901000   -1.98372700
| 52> H                   1.89485700   -1.27870500    2.19395500
| 53> H                   3.49035800   -4.76783200    0.29053700
| 54> O                   3.47015400    0.22073600   -0.29071000
| 55> C                   4.87155600    0.39021200   -0.45657100
| 56> H                   5.09947600    0.94873800   -1.36633100
| 57> H                   5.31488900    0.89671700    0.40244900
| 58> H                   5.28245100   -0.61239200   -0.53606400
| 59> N                  -4.86123200   -0.63897200   -0.13997700
| 60> C                  -5.69336200    0.54654000   -0.16347700
| 61> H                  -5.46776300    1.17398500   -1.02855700
| 62> H                  -6.73440500    0.24922500   -0.21756900
| 63> H                  -5.55183400    1.14735500    0.73735400
| 64> C                  -5.49772500   -1.94080700   -0.22465500
| 65> H                  -6.56977300   -1.80043600   -0.30515000
| 66> H                  -5.15827400   -2.49575300   -1.10060700
| 67> H                  -5.29749100   -2.54329800    0.66281000
| 68> *
| 69>
| 70>
| 71>                          ****END OF INPUT****

CARTESIAN COORDINATES (ANGSTROEM)
---------------------------------
  C     -3.521890   -0.525010   -0.050087
  C     -2.900874    0.729892    0.016761
  C     -1.519346    0.844883    0.088025
  C     -0.688410   -0.319036    0.047968
  C     -1.349671   -1.579140    0.026899
  C     -2.697650   -1.690893   -0.019175
  C      0.701361   -0.205374    0.040048
  C      1.291261    1.079495   -0.011699
  C      0.446057    2.229949    0.073011
  C      0.991405    3.517855   -0.000131
  H      0.356497    4.387554    0.008817
  C      2.348356    3.676861   -0.133871
  C      3.211732    2.589604   -0.209177
  C      2.701241    1.308524   -0.166321
  H     -3.510546    1.615396   -0.016899
  H     -0.747789   -2.476568    0.038773
  H     -3.149744   -2.671072   -0.039736
  H      2.756285    4.677348   -0.200640
  H      4.272125    2.751670   -0.325063
  N     -0.912268    2.068912    0.221544
  C     -1.736955    3.235628    0.518092
  H     -1.176529    3.930354    1.132488
  H     -2.063465    3.737988   -0.392377
  H     -2.605189    2.922660    1.085863
  C      1.494727   -1.459027    0.094996
  C      1.667519   -2.243486   -1.041721
  C      2.032028   -1.885120    1.306595
  C      2.389106   -3.425482   -0.971333
  C      2.745200   -3.071633    1.375358
  C      2.930479   -3.842854    0.236194
  H      2.523692   -4.024277   -1.863445
  H      3.156716   -3.394601    2.323469
  H      1.241847   -1.919010   -1.983727
  H      1.894857   -1.278705    2.193955
  H      3.490358   -4.767832    0.290537
  O      3.470154    0.220736   -0.290710
  C      4.871556    0.390212   -0.456571
  H      5.099476    0.948738   -1.366331
  H      5.314889    0.896717    0.402449
  H      5.282451   -0.612392   -0.536064
  N     -4.861232   -0.638972   -0.139977
  C     -5.693362    0.546540   -0.163477
  H     -5.467763    1.173985   -1.028557
  H     -6.734405    0.249225   -0.217569
  H     -5.551834    1.147355    0.737354
  C     -5.497725   -1.940807   -0.224655
  H     -6.569773   -1.800436   -0.305150
  H     -5.158274   -2.495753   -1.100607
  H     -5.297491   -2.543298    0.662810

 Total Charge           Charge          ....    1
 Multiplicity           Mult            ....    1
 Number of Electrons    NEL             ....  182
 Basis Dimension        Dim             ....  944

ORBITAL ENERGIES
----------------

  NO   OCC          E(Eh)            E(eV)
   0   2.0000     -19.980990      -543.7104
   1   2.0000     -15.107879      -411.1063
   2   2.0000     -15.063512      -409.8990
   3   2.0000     -10.870703      -295.8069
   4   2.0000     -10.861650      -295.5605
   5   2.0000     -10.861345      -295.5522
   6   2.0000     -10.852700      -295.3170
   7   2.0000     -10.846942      -295.1603
   8   2.0000     -10.820384      -294.4376
   9   2.0000     -10.813884      -294.2607
  10   2.0000     -10.807860      -294.0968
  11   2.0000     -10.807312      -294.0819
  12   2.0000     -10.801682      -293.9287
  13   2.0000     -10.801426      -293.9217
  14   2.0000     -10.797829      -293.8239
  15   2.0000     -10.797821      -293.8237
  16   2.0000     -10.797570      -293.8168
  17   2.0000     -10.786178      -293.5068
  18   2.0000     -10.781128      -293.3694
  19   2.0000     -10.781039      -293.3670
  20   2.0000     -10.779510      -293.3254
  21   2.0000     -10.779493      -293.3249
  22   2.0000     -10.779183      -293.3165
  23   2.0000     -10.777831      -293.2797
  24   2.0000     -10.777139      -293.2609
  25   2.0000     -10.775606      -293.2192
  26   2.0000      -1.285777       -34.9878
  27   2.0000      -1.197818       -32.5943
  28   2.0000      -1.154313       -31.4105
  29   2.0000      -1.062464       -28.9111
  30   2.0000      -1.047424       -28.5019
  31   2.0000      -1.030644       -28.0453
  32   2.0000      -0.989851       -26.9352
  33   2.0000      -0.943378       -25.6706
  34   2.0000      -0.927481       -25.2380
  35   2.0000      -0.920236       -25.0409
  36   2.0000      -0.911110       -24.7926
  37   2.0000      -0.907576       -24.6964
  38   2.0000      -0.876122       -23.8405
  39   2.0000      -0.862278       -23.4638
  40   2.0000      -0.856564       -23.3083
  41   2.0000      -0.833801       -22.6889
  42   2.0000      -0.801537       -21.8109
  43   2.0000      -0.773731       -21.0543
  44   2.0000      -0.749903       -20.4059
  45   2.0000      -0.740154       -20.1406
  46   2.0000      -0.733414       -19.9572
  47   2.0000      -0.706331       -19.2202
  48   2.0000      -0.688920       -18.7465
  49   2.0000      -0.673346       -18.3227
  50   2.0000      -0.655546       -17.8383
  51   2.0000      -0.626014       -17.0347
  52   2.0000      -0.621057       -16.8998
  53   2.0000      -0.618199       -16.8221
  54   2.0000      -0.605647       -16.4805
  55   2.0000      -0.593290       -16.1442
  56   2.0000      -0.592208       -16.1148
  57   2.0000      -0.582610       -15.8536
  58   2.0000      -0.577609       -15.7175
  59   2.0000      -0.574314       -15.6279
  60   2.0000      -0.570939       -15.5360
  61   2.0000      -0.563350       -15.3295
  62   2.0000      -0.555783       -15.1236
  63   2.0000      -0.555550       -15.1173
  64   2.0000      -0.534689       -14.5496
  65   2.0000      -0.521692       -14.1960
  66   2.0000      -0.520784       -14.1713
  67   2.0000      -0.512090       -13.9347
  68   2.0000      -0.507596       -13.8124
  69   2.0000      -0.501724       -13.6526
  70   2.0000      -0.498144       -13.5552
  71   2.0000      -0.497807       -13.5460
  72   2.0000      -0.491862       -13.3842
  73   2.0000      -0.476420       -12.9641
  74   2.0000      -0.474047       -12.8995
  75   2.0000      -0.472745       -12.8641
  76   2.0000      -0.466148       -12.6845
  77   2.0000      -0.459714       -12.5094
  78   2.0000      -0.446294       -12.1443
  79   2.0000      -0.440960       -11.9991
  80   2.0000      -0.436916       -11.8891
  81   2.0000      -0.430011       -11.7012
  82   2.0000      -0.424479       -11.5506
  83   2.0000      -0.407215       -11.0809
  84   2.0000      -0.394905       -10.7459
  85   2.0000      -0.348221        -9.4756
  86   2.0000      -0.326095        -8.8735
  87   2.0000      -0.313215        -8.5230
  88   2.0000      -0.305709        -8.3188
  89   2.0000      -0.275031        -7.4840
  90   2.0000      -0.264550        -7.1988
  91   0.0000      -0.041726        -1.1354
  92   0.0000       0.030971         0.8428
  93   0.0000       0.052838         1.4378
  94   0.0000       0.056344         1.5332
  95   0.0000       0.066689         1.8147

MULLIKEN ATOMIC CHARGES
-----------------------
   0 C :    0.283300
   1 C :   -0.389309
   2 C :    0.133132
   3 C :    0.121111
   4 C :   -0.238133
   5 C :   -0.296372
   6 C :    0.273431
   7 C :    0.055842
   8 C :    0.189318
   9 C :   -0.355710
  10 H :    0.178216
  11 C :   -0.073038
  12 C :   -0.327558
  13 C :    0.275621
  14 H :    0.196764
  15 H :    0.190045
  16 H :    0.176658
  17 H :    0.176822
  18 H :    0.177086
  19 N :   -0.010807
  20 C :   -0.318024
  21 H :    0.173615
  22 H :    0.168565
  23 H :    0.171957
  24 C :    0.160958
  25 C :   -0.262284
  26 C :   -0.258073
  27 C :   -0.192108
  28 C :   -0.193808
  29 C :   -0.127858
  30 H :    0.161734
  31 H :    0.161436
  32 H :    0.164549
  33 H :    0.163838
  34 H :    0.163869
  35 O :   -0.328906
  36 C :   -0.222225
  37 H :    0.147982
  38 H :    0.147258
  39 H :    0.158049
  40 N :   -0.086881
  41 C :   -0.305347
  42 H :    0.146118
  43 H :    0.163951
  44 H :    0.146885
  45 C :   -0.300245
  46 H :    0.161262
  47 H :    0.148846
  48 H :    0.148468
Sum of atomic charges:    1.0000000

LOEWDIN ATOMIC CHARGES
----------------------
   0 C :   -0.147531
   1 C :   -0.125347
   2 C :   -0.080972
   3 C :   -0.070193
   4 C :   -0.054736
   5 C :   -0.107206
   6 C :    0.052216
   7 C :   -0.037690
   8 C :   -0.076400
   9 C :   -0.140976
  10 H :    0.161406
  11 C :   -0.092220
  12 C :   -0.145332
  13 C :   -0.178118
  14 H :    0.163124
  15 H :    0.171632
  16 H :    0.163649
  17 H :    0.163072
  18 H :    0.162400
  19 N :    0.284476
  20 C :   -0.219847
  21 H :    0.133207
  22 H :    0.128993
  23 H :    0.133500
  24 C :   -0.101389
  25 C :   -0.098976
  26 C :   -0.095580
  27 C :   -0.141280
  28 C :   -0.140639
  29 C :   -0.142781
  30 H :    0.152414
  31 H :    0.152416
  32 H :    0.158390
  33 H :    0.158201
  34 H :    0.151208
  35 O :    0.248340
  36 C :   -0.283599
  37 H :    0.115699
  38 H :    0.115509
  39 H :    0.118409
  40 N :    0.171915
  41 C :   -0.258298
  42 H :    0.120682
  43 H :    0.126751
  44 H :    0.120967
  45 C :   -0.257754
  46 H :    0.126941
  47 H :    0.120835
  48 H :    0.120510

  Mayer bond orders larger than 0.100000
B(  0-C ,  1-C ) :   1.3178 B(  0-C ,  5-C ) :   1.1045 B(  0-C , 40-N ) :   1.3869
B(  1-C ,  2-C ) :   1.4063 B(  1-C , 14-H ) :   0.9351 B(  2-C ,  3-C ) :   1.2400
B(  2-C , 19-N ) :   1.2434 B(  3-C ,  4-C ) :   1.1219 B(  3-C ,  6-C ) :   1.3540
B(  4-C ,  5-C ) :   1.7107 B(  4-C , 15-H ) :   0.9641 B(  5-C , 16-H ) :   0.9742
B(  6-C ,  7-C ) :   1.1357 B(  6-C , 24-C ) :   0.7638 B(  7-C ,  8-C ) :   1.2516
B(  7-C , 13-C ) :   1.1396 B(  8-C ,  9-C ) :   1.2743 B(  8-C , 19-N ) :   1.2345
B(  9-C , 10-H ) :   0.9845 B(  9-C , 11-C ) :   1.4979 B( 11-C , 12-C ) :   1.3012
B( 11-C , 17-H ) :   0.9682 B( 12-C , 13-C ) :   1.4586 B( 12-C , 18-H ) :   0.9810
B( 13-C , 35-O ) :   1.1671 B( 19-N , 20-C ) :   0.8842 B( 20-C , 21-H ) :   0.9634
B( 20-C , 22-H ) :   0.9634 B( 20-C , 23-H ) :   0.9631 B( 24-C , 25-C ) :   1.3699
B( 24-C , 26-C ) :   1.4128 B( 25-C , 27-C ) :   1.4425 B( 25-C , 32-H ) :   0.9855
B( 26-C , 28-C ) :   1.4569 B( 26-C , 33-H ) :   0.9833 B( 27-C , 29-C ) :   1.4009
B( 27-C , 30-H ) :   0.9818 B( 28-C , 29-C ) :   1.3921 B( 28-C , 31-H ) :   0.9824
B( 29-C , 34-H ) :   0.9767 B( 35-O , 36-C ) :   0.8793 B( 36-C , 37-H ) :   0.9716
B( 36-C , 38-H ) :   0.9717 B( 36-C , 39-H ) :   0.9742 B( 40-N , 41-C ) :   0.9095
B( 40-N , 45-C ) :   0.9067 B( 41-C , 42-H ) :   0.9688 B( 41-C , 43-H ) :   0.9697
B( 41-C , 44-H ) :   0.9703 B( 45-C , 46-H ) :   0.9695 B( 45-C , 47-H ) :   0.9713
B( 45-C , 48-H ) :   0.9705

MP2 TOTAL ENERGY:    -1074.131472334 Eh

-----------------------------------------------------------------------------
         ABSORPTION SPECTRUM VIA TRANSITION ELECTRIC DIPOLE MOMENTS
-----------------------------------------------------------------------------
State   Energy    Wavelength  fosc         T2        TX        TY        TZ
        (cm-1)      (nm)                 (au**2)    (au)      (au)      (au)
-----------------------------------------------------------------------------
   1   21810.2    458.5   0.412319775   6.22371  -1.99055  -1.50214  -0.07073
   2   24381.3    410.2   0.407136997   5.49742  -2.34163  -0.08878   0.07943
   3   30854.7    324.1   0.022237236   0.23727  -0.00074   0.47513  -0.10732
   4   32666.8    306.1   0.042663179   0.42995  -0.65552  -0.01406   0.00670
   5   34269.4    291.8   0.021651207   0.20799   0.43031  -0.13108  -0.07511
   6   36881.9    271.1   0.841878395   7.51470   2.71659   0.36117   0.06646
   7   36455.8    274.3   0.092147994   0.83214  -0.75727   0.50809   0.02268
   8   41304.9    242.1   0.175255186   1.39684   0.42571   1.10156  -0.04670
   9   41287.9    242.2   0.349415599   2.78609  -0.59281  -1.55628   0.11244
  10   47627.0    210.0   0.016269350   0.11246  -0.15260   0.29616   0.03823
  11   42505.4    235.3   0.122075891   0.94550  -0.02801   0.96975  -0.06558
  12   45267.9    220.9   0.081260186   0.59097  -0.06763   0.76338   0.06030
  13   47146.8    212.1   0.128895205   0.90004   0.91960   0.16287   0.16688
  14   45995.2    217.4   0.118284687   0.84663   0.61465   0.67075  -0.13759
  15   46515.0    215.0   0.063292887   0.44796   0.47636  -0.14962   0.44570
  16   46628.3    214.5   0.322084688   2.27403   0.66650  -1.21857   0.58727
  17   50155.3    199.4   0.391331579   2.56864  -0.34721   0.98989   1.21169
  18   50919.4    196.4   0.038957000   0.25187  -0.05539  -0.10315   0.48802
  19   47833.7    209.1   0.075757462   0.52140  -0.32879   0.62478   0.15147
  20   48995.6    204.1   0.139180540   0.93518   0.51077  -0.51696   0.63800
  21   48537.4    206.0   0.117709541   0.79838   0.04030  -0.82459   0.34178
  22   49510.6    202.0   0.272933559   1.81482  -0.73505   1.11588   0.17124
  23   49357.5    202.6   0.035861931   0.23920  -0.33799   0.28726   0.20601
  24   50111.5    199.6   0.109044442   0.71638  -0.32121  -0.27122  -0.73460
  25   50117.6    199.5   0.071084922   0.46694   0.63282  -0.17368   0.19056
  26   53234.3    187.8   0.013113509   0.08110   0.22339   0.04925   0.16962
  27   51631.4    193.7   0.042254476   0.26942  -0.34269   0.28399   0.26708
  28   51011.7    196.0   0.003214341   0.02074  -0.01386   0.14320  -0.00684
  29   51453.2    194.4   0.030565891   0.19557  -0.23642   0.34944   0.13255
  30   55345.2    180.7   0.003924465   0.02334   0.02480  -0.10013   0.11271

FINAL SINGLE POINT ENERGY     -1072.269914298660

DIPOLE MOMENT
-------------
                                X             Y             Z
Electronic contribution:     10.50285       1.12061       0.45948
Nuclear contribution   :    -12.63152       0.46724      -0.50410
                        -----------------------------------------
Total Dipole Moment    :     -2.12866       1.58786      -0.04463
                        -----------------------------------------
Magnitude (a.u.)       :      2.65603
Magnitude (Debye)      :      6.75108

Rotational constants in cm-1:     0.010162     0.005301     0.003642
Rotational constants in MHz :   304.643415   158.912869   109.175082

                             ****ORCA TERMINATED NORMALLY****
TOTAL RUN TIME: 0 days 5 hours 48 minutes 31 seconds 93 msec
