                         Program Version 5.0.2 -  RELEASE  -
|  1> %maxcore 20000
|  2> %pal
|  3>  nprocs= 4
|  4> end
|  5> ! RI-wPBEPP86   def2-TZVP def2/J def2-TZVP/C RIJCOSX CPCM TightSCF
|  6> %TDDFT
|  7>    NROOTS   30
|  8>    dcorr 1
|  9>    TDA      FALSE
| 10> END
| 11>
| 12> %CPCM
| 13>    SMD          TRUE
| 14>    SMDsolvent   "ACETONITRILE"
| 15> END
| 16>
| 17>
| 18> * xyz 1 1
| 19> C                  -3.52189000   -0.52501000   -0.05008700
| 20> C                  -2.90087400    0.72989200    0.01676100
| 21> C                  -1.51934600    0.84488300    0.08802500
| 22> C                  -0.68841000   -0.31903600    0.04796800
| 23> C                  -1.34967100   -1.57914000    0.02689900
| 24> C                  -2.69765000   -1.69089300   -0.01917500
| 25> C                   0.70136100   -0.20537400    0.04004800
| 26> C                   1.29126100    1.07949500   -0.01169900
| 27> C                   0.44605700    2.22994900    0.07301100
| 28> C                   0.99140500    3.51785500   -0.00013100
| 29> H                   0.35649700    4.38755400    0.00881700
| 30> C                   2.34835600    3.67686100   -0.13387100
| 31> C                   3.21173200    2.58960400   -0.20917700
| 32> C                   2.70124100    1.30852400   -0.16632100
| 33> H                  -3.51054600    1.61539600   -0.01689900
| 34> H                  -0.74778900   -2.47656800    0.03877300
| 35> H                  -3.14974400   -2.67107200   -0.03973600
| 36> H                   2.75628500    4.67734800   -0.20064000
| 37> H                   4.27212500    2.75167000   -0.32506300
| 38> N                  -0.91226800    2.06891200    0.22154400
| 39> C                  -1.73695500    3.23562800    0.51809200
| 40> H                  -1.17652900    3.93035400    1.13248800
| 41> H                  -2.06346500    3.73798800   -0.39237700
| 42> H                  -2.60518900    2.92266000    1.08586300
| 43> C                   1.49472700   -1.45902700    0.09499600
| 44> C                   1.66751900   -2.24348600   -1.04172100
| 45> C                   2.03202800   -1.88512000    1.30659500
| 46> C                   2.38910600   -3.42548200   -0.97133300
| 47> C                   2.74520000   -3.07163300    1.37535800
| 48> C                   2.93047900   -3.84285400    0.23619400
| 49> H                   2.52369200   -4.02427700   -1.86344500
| 50> H                   3.15671600   -3.39460100    2.32346900
| 51> H                   1.24184700   -1.91901000   -1.98372700
| 52> H                   1.89485700   -1.27870500    2.19395500
| 53> H                   3.49035800   -4.76783200    0.29053700
| 54> O                   3.47015400    0.22073600   -0.29071000
| 55> C                   4.87155600    0.39021200   -0.45657100
| 56> H                   5.09947600    0.94873800   -1.36633100
| 57> H                   5.31488900    0.89671700    0.40244900
| 58> H                   5.28245100   -0.61239200   -0.53606400
| 59> N                  -4.86123200   -0.63897200   -0.13997700
| 60> C                  -5.69336200    0.54654000   -0.16347700
| 61> H                  -5.46776300    1.17398500   -1.02855700
| 62> H                  -6.73440500    0.24922500   -0.21756900
| 63> H                  -5.55183400    1.14735500    0.73735400
| 64> C                  -5.49772500   -1.94080700   -0.22465500
| 65> H                  -6.56977300   -1.80043600   -0.30515000
| 66> H                  -5.15827400   -2.49575300   -1.10060700
| 67> H                  -5.29749100   -2.54329800    0.66281000
| 68> *
| 69>
| 70>
| 71>                          ****END OF INPUT****

CARTESIAN COORDINATES (ANGSTROEM)
---------------------------------
  C     -3.521890   -0.525010   -0.050087
  C     -2.900874    0.729892    0.016761
  C     -1.519346    0.844883    0.088025
  C     -0.688410   -0.319036    0.047968
  C     -1.349671   -1.579140    0.026899
  C     -2.697650   -1.690893   -0.019175
  C      0.701361   -0.205374    0.040048
  C      1.291261    1.079495   -0.011699
  C      0.446057    2.229949    0.073011
  C      0.991405    3.517855   -0.000131
  H      0.356497    4.387554    0.008817
  C      2.348356    3.676861   -0.133871
  C      3.211732    2.589604   -0.209177
  C      2.701241    1.308524   -0.166321
  H     -3.510546    1.615396   -0.016899
  H     -0.747789   -2.476568    0.038773
  H     -3.149744   -2.671072   -0.039736
  H      2.756285    4.677348   -0.200640
  H      4.272125    2.751670   -0.325063
  N     -0.912268    2.068912    0.221544
  C     -1.736955    3.235628    0.518092
  H     -1.176529    3.930354    1.132488
  H     -2.063465    3.737988   -0.392377
  H     -2.605189    2.922660    1.085863
  C      1.494727   -1.459027    0.094996
  C      1.667519   -2.243486   -1.041721
  C      2.032028   -1.885120    1.306595
  C      2.389106   -3.425482   -0.971333
  C      2.745200   -3.071633    1.375358
  C      2.930479   -3.842854    0.236194
  H      2.523692   -4.024277   -1.863445
  H      3.156716   -3.394601    2.323469
  H      1.241847   -1.919010   -1.983727
  H      1.894857   -1.278705    2.193955
  H      3.490358   -4.767832    0.290537
  O      3.470154    0.220736   -0.290710
  C      4.871556    0.390212   -0.456571
  H      5.099476    0.948738   -1.366331
  H      5.314889    0.896717    0.402449
  H      5.282451   -0.612392   -0.536064
  N     -4.861232   -0.638972   -0.139977
  C     -5.693362    0.546540   -0.163477
  H     -5.467763    1.173985   -1.028557
  H     -6.734405    0.249225   -0.217569
  H     -5.551834    1.147355    0.737354
  C     -5.497725   -1.940807   -0.224655
  H     -6.569773   -1.800436   -0.305150
  H     -5.158274   -2.495753   -1.100607
  H     -5.297491   -2.543298    0.662810

 Total Charge           Charge          ....    1
 Multiplicity           Mult            ....    1
 Number of Electrons    NEL             ....  182
 Basis Dimension        Dim             ....  944

ORBITAL ENERGIES
----------------

  NO   OCC          E(Eh)            E(eV)
   0   2.0000     -20.101748      -546.9964
   1   2.0000     -15.217039      -414.0767
   2   2.0000     -15.171421      -412.8353
   3   2.0000     -10.963898      -298.3428
   4   2.0000     -10.956053      -298.1294
   5   2.0000     -10.955314      -298.1093
   6   2.0000     -10.946425      -297.8674
   7   2.0000     -10.942690      -297.7657
   8   2.0000     -10.907490      -296.8079
   9   2.0000     -10.906273      -296.7748
  10   2.0000     -10.899579      -296.5926
  11   2.0000     -10.896076      -296.4973
  12   2.0000     -10.894410      -296.4520
  13   2.0000     -10.894053      -296.4422
  14   2.0000     -10.890962      -296.3581
  15   2.0000     -10.885224      -296.2020
  16   2.0000     -10.885021      -296.1965
  17   2.0000     -10.877331      -295.9872
  18   2.0000     -10.872830      -295.8648
  19   2.0000     -10.872704      -295.8613
  20   2.0000     -10.870689      -295.8065
  21   2.0000     -10.870435      -295.7996
  22   2.0000     -10.870335      -295.7968
  23   2.0000     -10.868943      -295.7590
  24   2.0000     -10.867815      -295.7283
  25   2.0000     -10.866661      -295.6969
  26   2.0000      -1.353283       -36.8247
  27   2.0000      -1.265073       -34.4244
  28   2.0000      -1.220014       -33.1983
  29   2.0000      -1.127900       -30.6917
  30   2.0000      -1.112320       -30.2678
  31   2.0000      -1.095082       -29.7987
  32   2.0000      -1.053386       -28.6641
  33   2.0000      -1.005433       -27.3592
  34   2.0000      -0.989001       -26.9121
  35   2.0000      -0.981638       -26.7117
  36   2.0000      -0.971922       -26.4473
  37   2.0000      -0.968496       -26.3541
  38   2.0000      -0.935359       -25.4524
  39   2.0000      -0.921420       -25.0731
  40   2.0000      -0.915454       -24.9108
  41   2.0000      -0.892121       -24.2758
  42   2.0000      -0.859740       -23.3947
  43   2.0000      -0.830687       -22.6041
  44   2.0000      -0.806517       -21.9464
  45   2.0000      -0.796330       -21.6692
  46   2.0000      -0.789317       -21.4784
  47   2.0000      -0.761608       -20.7244
  48   2.0000      -0.743842       -20.2410
  49   2.0000      -0.727724       -19.8024
  50   2.0000      -0.710073       -19.3221
  51   2.0000      -0.678818       -18.4716
  52   2.0000      -0.673699       -18.3323
  53   2.0000      -0.670959       -18.2577
  54   2.0000      -0.657433       -17.8896
  55   2.0000      -0.646994       -17.6056
  56   2.0000      -0.644015       -17.5245
  57   2.0000      -0.635611       -17.2959
  58   2.0000      -0.628684       -17.1074
  59   2.0000      -0.626117       -17.0375
  60   2.0000      -0.621772       -16.9193
  61   2.0000      -0.614832       -16.7304
  62   2.0000      -0.605625       -16.4799
  63   2.0000      -0.605542       -16.4776
  64   2.0000      -0.583855       -15.8875
  65   2.0000      -0.570716       -15.5300
  66   2.0000      -0.569106       -15.4862
  67   2.0000      -0.560255       -15.2453
  68   2.0000      -0.555798       -15.1240
  69   2.0000      -0.549642       -14.9565
  70   2.0000      -0.547352       -14.8942
  71   2.0000      -0.544676       -14.8214
  72   2.0000      -0.538777       -14.6609
  73   2.0000      -0.526369       -14.3232
  74   2.0000      -0.520946       -14.1757
  75   2.0000      -0.519238       -14.1292
  76   2.0000      -0.513815       -13.9816
  77   2.0000      -0.508847       -13.8464
  78   2.0000      -0.491759       -13.3814
  79   2.0000      -0.488982       -13.3059
  80   2.0000      -0.482364       -13.1258
  81   2.0000      -0.476837       -12.9754
  82   2.0000      -0.470741       -12.8095
  83   2.0000      -0.455789       -12.4026
  84   2.0000      -0.442475       -12.0404
  85   2.0000      -0.393563       -10.7094
  86   2.0000      -0.371539       -10.1101
  87   2.0000      -0.357719        -9.7340
  88   2.0000      -0.350201        -9.5294
  89   2.0000      -0.317171        -8.6307
  90   2.0000      -0.305734        -8.3194
  91   0.0000      -0.027133        -0.7383
  92   0.0000       0.047509         1.2928
  93   0.0000       0.071405         1.9430
  94   0.0000       0.075298         2.0490
  95   0.0000       0.086492         2.3536

MULLIKEN ATOMIC CHARGES
-----------------------
   0 C :    0.305891
   1 C :   -0.439792
   2 C :    0.153173
   3 C :    0.117390
   4 C :   -0.262879
   5 C :   -0.331939
   6 C :    0.258374
   7 C :    0.030174
   8 C :    0.221292
   9 C :   -0.396099
  10 H :    0.209011
  11 C :   -0.099460
  12 C :   -0.362196
  13 C :    0.291535
  14 H :    0.236687
  15 H :    0.216500
  16 H :    0.203353
  17 H :    0.198523
  18 H :    0.205627
  19 N :   -0.010792
  20 C :   -0.389266
  21 H :    0.196230
  22 H :    0.196408
  23 H :    0.193431
  24 C :    0.056848
  25 C :   -0.264440
  26 C :   -0.249185
  27 C :   -0.210370
  28 C :   -0.215528
  29 C :   -0.147652
  30 H :    0.186350
  31 H :    0.185935
  32 H :    0.191434
  33 H :    0.190109
  34 H :    0.188332
  35 O :   -0.296180
  36 C :   -0.298417
  37 H :    0.170257
  38 H :    0.169623
  39 H :    0.178677
  40 N :   -0.082845
  41 C :   -0.373266
  42 H :    0.169087
  43 H :    0.184879
  44 H :    0.169323
  45 C :   -0.369320
  46 H :    0.181400
  47 H :    0.172226
  48 H :    0.171550
Sum of atomic charges:    1.0000000

LOEWDIN ATOMIC CHARGES
----------------------
   0 C :   -0.150912
   1 C :   -0.132600
   2 C :   -0.082934
   3 C :   -0.075950
   4 C :   -0.056341
   5 C :   -0.112354
   6 C :    0.051896
   7 C :   -0.042151
   8 C :   -0.078828
   9 C :   -0.147086
  10 H :    0.166850
  11 C :   -0.093533
  12 C :   -0.151210
  13 C :   -0.181535
  14 H :    0.167779
  15 H :    0.177163
  16 H :    0.169142
  17 H :    0.169408
  18 H :    0.167896
  19 N :    0.284855
  20 C :   -0.231702
  21 H :    0.138249
  22 H :    0.134993
  23 H :    0.138379
  24 C :   -0.109710
  25 C :   -0.103508
  26 C :   -0.099454
  27 C :   -0.145097
  28 C :   -0.144562
  29 C :   -0.146459
  30 H :    0.158506
  31 H :    0.158504
  32 H :    0.164902
  33 H :    0.164669
  34 H :    0.157235
  35 O :    0.250170
  36 C :   -0.296286
  37 H :    0.120722
  38 H :    0.120534
  39 H :    0.123403
  40 N :    0.170482
  41 C :   -0.270896
  42 H :    0.126044
  43 H :    0.131823
  44 H :    0.126211
  45 C :   -0.270662
  46 H :    0.131969
  47 H :    0.126161
  48 H :    0.125821

  Mayer bond orders larger than 0.100000
B(  0-C ,  1-C ) :   1.3346 B(  0-C ,  5-C ) :   1.0896 B(  0-C , 40-N ) :   1.4014
B(  1-C ,  2-C ) :   1.4206 B(  1-C , 14-H ) :   0.8910 B(  2-C ,  3-C ) :   1.2531
B(  2-C , 19-N ) :   1.2567 B(  3-C ,  4-C ) :   1.1036 B(  3-C ,  6-C ) :   1.3796
B(  4-C ,  5-C ) :   1.7578 B(  4-C , 15-H ) :   0.9479 B(  5-C , 16-H ) :   0.9527
B(  6-C ,  7-C ) :   1.1635 B(  6-C , 24-C ) :   0.7929 B(  7-C ,  8-C ) :   1.2562
B(  7-C , 13-C ) :   1.1452 B(  8-C ,  9-C ) :   1.2547 B(  8-C , 19-N ) :   1.2437
B(  9-C , 10-H ) :   0.9667 B(  9-C , 11-C ) :   1.5193 B( 11-C , 12-C ) :   1.3150
B( 11-C , 17-H ) :   0.9609 B( 12-C , 13-C ) :   1.4470 B( 12-C , 18-H ) :   0.9645
B( 13-C , 35-O ) :   1.1771 B( 19-N , 20-C ) :   0.8928 B( 20-C , 21-H ) :   0.9542
B( 20-C , 22-H ) :   0.9575 B( 20-C , 23-H ) :   0.9534 B( 24-C , 25-C ) :   1.3754
B( 24-C , 26-C ) :   1.4223 B( 25-C , 27-C ) :   1.4369 B( 25-C , 32-H ) :   0.9787
B( 26-C , 28-C ) :   1.4515 B( 26-C , 33-H ) :   0.9754 B( 27-C , 29-C ) :   1.3972
B( 27-C , 30-H ) :   0.9756 B( 28-C , 29-C ) :   1.3881 B( 28-C , 31-H ) :   0.9765
B( 29-C , 34-H ) :   0.9719 B( 35-O , 36-C ) :   0.8838 B( 36-C , 37-H ) :   0.9658
B( 36-C , 38-H ) :   0.9659 B( 36-C , 39-H ) :   0.9679 B( 40-N , 41-C ) :   0.9176
B( 40-N , 45-C ) :   0.9140 B( 41-C , 42-H ) :   0.9630 B( 41-C , 43-H ) :   0.9611
B( 41-C , 44-H ) :   0.9641 B( 45-C , 46-H ) :   0.9610 B( 45-C , 47-H ) :   0.9657
B( 45-C , 48-H ) :   0.9646

MP2 TOTAL ENERGY:    -1074.420555563 Eh

-----------------------------------------------------------------------------
         ABSORPTION SPECTRUM VIA TRANSITION ELECTRIC DIPOLE MOMENTS
-----------------------------------------------------------------------------
State   Energy    Wavelength  fosc         T2        TX        TY        TZ
        (cm-1)      (nm)                 (au**2)    (au)      (au)      (au)
-----------------------------------------------------------------------------
   1   22617.9    442.1   0.558981544   8.13617  -2.40686  -1.52966  -0.05765
   2   24861.2    402.2   0.306465817   4.05821   2.00346  -0.18814  -0.09465
   3   32945.4    303.5   0.063416447   0.63370  -0.67943  -0.40577   0.08613
   4   33205.4    301.2   0.055959198   0.55480   0.65778  -0.33806   0.08859
   5   38215.6    261.7   0.800094521   6.89249  -2.61888  -0.17836  -0.04664
   6   37622.6    265.8   0.016391383   0.14343   0.34530   0.10190   0.11755
   7   37582.3    266.1   0.104345801   0.91404  -0.55678   0.77641   0.03500
   8   41233.4    242.5   0.074400089   0.59402   0.33022   0.69632   0.01038
   9   42447.4    235.6   0.481384004   3.73350  -0.80035  -1.75556   0.10461
  10   49166.0    203.4   0.011386008   0.07624   0.20381   0.16518  -0.08612
  11   43995.6    227.3   0.207858015   1.55537  -0.20201   1.22818  -0.07829
  12   47164.7    212.0   0.083933019   0.58586  -0.54594   0.53647  -0.00264
  13   48205.9    207.4   0.140029159   0.95630   0.91214   0.22000   0.27549
  14   47511.9    210.5   0.176767391   1.22483  -0.65405  -0.84167   0.29772
  15   51642.0    193.6   0.397247369   2.53241   0.45294   0.07559   1.52366
  16   51522.3    194.1   0.748791067   4.78455   1.00971  -1.92094  -0.27388
  17   50269.9    198.9   0.095916302   0.62815   0.15655  -0.25811   0.73282
  18   50429.2    198.3   0.007078684   0.04621   0.00653  -0.03725  -0.21162
  19   52272.7    191.3   0.047401871   0.29854   0.05654   0.02461  -0.54289
  20   50983.3    196.1   0.128461659   0.82951  -0.48587   0.73442  -0.23253
  21   52282.1    191.3   0.151515980   0.95407   0.54834  -0.76688  -0.25553
  22   52168.9    191.7   0.011930387   0.07529   0.24447  -0.12426   0.00898
  23   55744.7    179.4   0.025548743   0.15088  -0.37632   0.06275  -0.07297
  24   52503.4    190.5   0.006602229   0.04140   0.15886   0.04609   0.11847
  25   52022.2    192.2   0.038368580   0.24281  -0.47112   0.06039   0.13116
  26   52161.4    191.7   0.016655990   0.10512  -0.24308  -0.07900  -0.19949
  27   52229.7    191.5   0.028440393   0.17926   0.15132   0.26881   0.29001
  28   54844.9    182.3   0.038176681   0.22916   0.41045  -0.23759  -0.06512
  29   54533.4    183.4   0.009859887   0.05952  -0.05707  -0.11909   0.20514
  30   55196.7    181.2   0.017317724   0.10329  -0.25845   0.15671   0.10925

FINAL SINGLE POINT ENERGY     -1072.114521909488

DIPOLE MOMENT
-------------
                                X             Y             Z
Electronic contribution:     10.53825       1.10152       0.45642
Nuclear contribution   :    -12.63152       0.46724      -0.50410
                        -----------------------------------------
Total Dipole Moment    :     -2.09327       1.56876      -0.04768
                        -----------------------------------------
Magnitude (a.u.)       :      2.61631
Magnitude (Debye)      :      6.65012

Rotational constants in cm-1:     0.010162     0.005301     0.003642
Rotational constants in MHz :   304.643415   158.912869   109.175082

                             ****ORCA TERMINATED NORMALLY****
TOTAL RUN TIME: 1 days 2 hours 54 minutes 58 seconds 969 msec
