                         Program Version 5.0.2 -  RELEASE  -
|  1> %maxcore 24000
|  2> %pal
|  3>  nprocs= 8
|  4> end
|  5> ! RI-DSD-BLYP D3BJ def2-TZVP def2/J def2-TZVP/C RIJCOSX CPCM TightSCF
|  6> %TDDFT
|  7>    NROOTS   30
|  8>    dcorr 4
|  9>    doscs true
| 10>    scspar 0.333, 1.2, 0.43, 1.24
| 11>    TDA      FALSE
| 12> END
| 13>
| 14> %CPCM
| 15>    SMD          TRUE
| 16>    SMDsolvent   "ACETONITRILE"
| 17> END
| 18>
| 19>
| 20> * xyz 1 1
| 21> C                  -3.52189000   -0.52501000   -0.05008700
| 22> C                  -2.90087400    0.72989200    0.01676100
| 23> C                  -1.51934600    0.84488300    0.08802500
| 24> C                  -0.68841000   -0.31903600    0.04796800
| 25> C                  -1.34967100   -1.57914000    0.02689900
| 26> C                  -2.69765000   -1.69089300   -0.01917500
| 27> C                   0.70136100   -0.20537400    0.04004800
| 28> C                   1.29126100    1.07949500   -0.01169900
| 29> C                   0.44605700    2.22994900    0.07301100
| 30> C                   0.99140500    3.51785500   -0.00013100
| 31> H                   0.35649700    4.38755400    0.00881700
| 32> C                   2.34835600    3.67686100   -0.13387100
| 33> C                   3.21173200    2.58960400   -0.20917700
| 34> C                   2.70124100    1.30852400   -0.16632100
| 35> H                  -3.51054600    1.61539600   -0.01689900
| 36> H                  -0.74778900   -2.47656800    0.03877300
| 37> H                  -3.14974400   -2.67107200   -0.03973600
| 38> H                   2.75628500    4.67734800   -0.20064000
| 39> H                   4.27212500    2.75167000   -0.32506300
| 40> N                  -0.91226800    2.06891200    0.22154400
| 41> C                  -1.73695500    3.23562800    0.51809200
| 42> H                  -1.17652900    3.93035400    1.13248800
| 43> H                  -2.06346500    3.73798800   -0.39237700
| 44> H                  -2.60518900    2.92266000    1.08586300
| 45> C                   1.49472700   -1.45902700    0.09499600
| 46> C                   1.66751900   -2.24348600   -1.04172100
| 47> C                   2.03202800   -1.88512000    1.30659500
| 48> C                   2.38910600   -3.42548200   -0.97133300
| 49> C                   2.74520000   -3.07163300    1.37535800
| 50> C                   2.93047900   -3.84285400    0.23619400
| 51> H                   2.52369200   -4.02427700   -1.86344500
| 52> H                   3.15671600   -3.39460100    2.32346900
| 53> H                   1.24184700   -1.91901000   -1.98372700
| 54> H                   1.89485700   -1.27870500    2.19395500
| 55> H                   3.49035800   -4.76783200    0.29053700
| 56> O                   3.47015400    0.22073600   -0.29071000
| 57> C                   4.87155600    0.39021200   -0.45657100
| 58> H                   5.09947600    0.94873800   -1.36633100
| 59> H                   5.31488900    0.89671700    0.40244900
| 60> H                   5.28245100   -0.61239200   -0.53606400
| 61> N                  -4.86123200   -0.63897200   -0.13997700
| 62> C                  -5.69336200    0.54654000   -0.16347700
| 63> H                  -5.46776300    1.17398500   -1.02855700
| 64> H                  -6.73440500    0.24922500   -0.21756900
| 65> H                  -5.55183400    1.14735500    0.73735400
| 66> C                  -5.49772500   -1.94080700   -0.22465500
| 67> H                  -6.56977300   -1.80043600   -0.30515000
| 68> H                  -5.15827400   -2.49575300   -1.10060700
| 69> H                  -5.29749100   -2.54329800    0.66281000
| 70> *
| 71>
| 72>
| 73>                          ****END OF INPUT****

CARTESIAN COORDINATES (ANGSTROEM)
---------------------------------
  C     -3.521890   -0.525010   -0.050087
  C     -2.900874    0.729892    0.016761
  C     -1.519346    0.844883    0.088025
  C     -0.688410   -0.319036    0.047968
  C     -1.349671   -1.579140    0.026899
  C     -2.697650   -1.690893   -0.019175
  C      0.701361   -0.205374    0.040048
  C      1.291261    1.079495   -0.011699
  C      0.446057    2.229949    0.073011
  C      0.991405    3.517855   -0.000131
  H      0.356497    4.387554    0.008817
  C      2.348356    3.676861   -0.133871
  C      3.211732    2.589604   -0.209177
  C      2.701241    1.308524   -0.166321
  H     -3.510546    1.615396   -0.016899
  H     -0.747789   -2.476568    0.038773
  H     -3.149744   -2.671072   -0.039736
  H      2.756285    4.677348   -0.200640
  H      4.272125    2.751670   -0.325063
  N     -0.912268    2.068912    0.221544
  C     -1.736955    3.235628    0.518092
  H     -1.176529    3.930354    1.132488
  H     -2.063465    3.737988   -0.392377
  H     -2.605189    2.922660    1.085863
  C      1.494727   -1.459027    0.094996
  C      1.667519   -2.243486   -1.041721
  C      2.032028   -1.885120    1.306595
  C      2.389106   -3.425482   -0.971333
  C      2.745200   -3.071633    1.375358
  C      2.930479   -3.842854    0.236194
  H      2.523692   -4.024277   -1.863445
  H      3.156716   -3.394601    2.323469
  H      1.241847   -1.919010   -1.983727
  H      1.894857   -1.278705    2.193955
  H      3.490358   -4.767832    0.290537
  O      3.470154    0.220736   -0.290710
  C      4.871556    0.390212   -0.456571
  H      5.099476    0.948738   -1.366331
  H      5.314889    0.896717    0.402449
  H      5.282451   -0.612392   -0.536064
  N     -4.861232   -0.638972   -0.139977
  C     -5.693362    0.546540   -0.163477
  H     -5.467763    1.173985   -1.028557
  H     -6.734405    0.249225   -0.217569
  H     -5.551834    1.147355    0.737354
  C     -5.497725   -1.940807   -0.224655
  H     -6.569773   -1.800436   -0.305150
  H     -5.158274   -2.495753   -1.100607
  H     -5.297491   -2.543298    0.662810

 Total Charge           Charge          ....    1
 Multiplicity           Mult            ....    1
 Number of Electrons    NEL             ....  182
 Basis Dimension        Dim             ....  944

ORBITAL ENERGIES
----------------

  NO   OCC          E(Eh)            E(eV)
   0   2.0000     -20.050094      -545.5908
   1   2.0000     -15.167800      -412.7368
   2   2.0000     -15.123103      -411.5206
   3   2.0000     -10.922322      -297.2115
   4   2.0000     -10.913344      -296.9672
   5   2.0000     -10.912962      -296.9568
   6   2.0000     -10.904407      -296.7240
   7   2.0000     -10.898900      -296.5741
   8   2.0000     -10.871411      -295.8261
   9   2.0000     -10.864432      -295.6362
  10   2.0000     -10.858721      -295.4808
  11   2.0000     -10.857776      -295.4551
  12   2.0000     -10.853119      -295.3284
  13   2.0000     -10.852798      -295.3196
  14   2.0000     -10.848818      -295.2113
  15   2.0000     -10.848679      -295.2076
  16   2.0000     -10.848403      -295.2001
  17   2.0000     -10.836689      -294.8813
  18   2.0000     -10.832136      -294.7574
  19   2.0000     -10.832055      -294.7552
  20   2.0000     -10.830515      -294.7133
  21   2.0000     -10.830171      -294.7039
  22   2.0000     -10.830059      -294.7009
  23   2.0000     -10.828805      -294.6668
  24   2.0000     -10.827677      -294.6361
  25   2.0000     -10.825963      -294.5894
  26   2.0000      -1.301541       -35.4167
  27   2.0000      -1.212309       -32.9886
  28   2.0000      -1.168420       -31.7943
  29   2.0000      -1.076055       -29.2810
  30   2.0000      -1.060694       -28.8629
  31   2.0000      -1.043904       -28.4061
  32   2.0000      -1.002560       -27.2810
  33   2.0000      -0.955392       -25.9975
  34   2.0000      -0.939392       -25.5621
  35   2.0000      -0.932041       -25.3621
  36   2.0000      -0.922841       -25.1118
  37   2.0000      -0.919627       -25.0243
  38   2.0000      -0.887036       -24.1375
  39   2.0000      -0.873269       -23.7628
  40   2.0000      -0.867397       -23.6031
  41   2.0000      -0.844293       -22.9744
  42   2.0000      -0.811703       -22.0875
  43   2.0000      -0.783518       -21.3206
  44   2.0000      -0.759414       -20.6647
  45   2.0000      -0.749819       -20.4036
  46   2.0000      -0.742890       -20.2151
  47   2.0000      -0.715394       -19.4668
  48   2.0000      -0.697346       -18.9758
  49   2.0000      -0.681549       -18.5459
  50   2.0000      -0.663490       -18.0545
  51   2.0000      -0.633661       -17.2428
  52   2.0000      -0.628588       -17.1047
  53   2.0000      -0.625764       -17.0279
  54   2.0000      -0.613158       -16.6849
  55   2.0000      -0.600543       -16.3416
  56   2.0000      -0.599515       -16.3136
  57   2.0000      -0.590129       -16.0582
  58   2.0000      -0.584826       -15.9139
  59   2.0000      -0.581542       -15.8246
  60   2.0000      -0.578250       -15.7350
  61   2.0000      -0.570517       -15.5246
  62   2.0000      -0.562856       -15.3161
  63   2.0000      -0.562505       -15.3065
  64   2.0000      -0.541567       -14.7368
  65   2.0000      -0.528304       -14.3759
  66   2.0000      -0.527645       -14.3579
  67   2.0000      -0.518632       -14.1127
  68   2.0000      -0.514083       -13.9889
  69   2.0000      -0.508120       -13.8266
  70   2.0000      -0.504442       -13.7266
  71   2.0000      -0.503859       -13.7107
  72   2.0000      -0.498053       -13.5527
  73   2.0000      -0.482187       -13.1210
  74   2.0000      -0.480146       -13.0654
  75   2.0000      -0.478879       -13.0310
  76   2.0000      -0.472168       -12.8484
  77   2.0000      -0.465494       -12.6667
  78   2.0000      -0.452203       -12.3051
  79   2.0000      -0.446603       -12.1527
  80   2.0000      -0.442932       -12.0528
  81   2.0000      -0.435966       -11.8632
  82   2.0000      -0.430287       -11.7087
  83   2.0000      -0.412106       -11.2140
  84   2.0000      -0.399486       -10.8706
  85   2.0000      -0.351701        -9.5703
  86   2.0000      -0.329189        -8.9577
  87   2.0000      -0.315949        -8.5974
  88   2.0000      -0.308513        -8.3951
  89   2.0000      -0.277565        -7.5529
  90   2.0000      -0.267152        -7.2696
  91   0.0000      -0.034290        -0.9331
  92   0.0000       0.038934         1.0595
  93   0.0000       0.060884         1.6567
  94   0.0000       0.064467         1.7542
  95   0.0000       0.075263         2.0480

MULLIKEN ATOMIC CHARGES
-----------------------
   0 C :    0.290667
   1 C :   -0.400864
   2 C :    0.143420
   3 C :    0.119382
   4 C :   -0.237103
   5 C :   -0.303281
   6 C :    0.282106
   7 C :    0.054246
   8 C :    0.194980
   9 C :   -0.364100
  10 H :    0.177429
  11 C :   -0.065349
  12 C :   -0.333026
  13 C :    0.276939
  14 H :    0.195222
  15 H :    0.189664
  16 H :    0.176311
  17 H :    0.176904
  18 H :    0.176648
  19 N :   -0.011720
  20 C :   -0.313924
  21 H :    0.172678
  22 H :    0.166815
  23 H :    0.171020
  24 C :    0.172354
  25 C :   -0.266449
  26 C :   -0.263563
  27 C :   -0.192782
  28 C :   -0.193950
  29 C :   -0.127643
  30 H :    0.161634
  31 H :    0.161349
  32 H :    0.164662
  33 H :    0.163906
  34 H :    0.163789
  35 O :   -0.332211
  36 C :   -0.217186
  37 H :    0.146587
  38 H :    0.145840
  39 H :    0.157090
  40 N :   -0.088493
  41 C :   -0.301281
  42 H :    0.144449
  43 H :    0.163286
  44 H :    0.145219
  45 C :   -0.296362
  46 H :    0.160618
  47 H :    0.147216
  48 H :    0.146854
Sum of atomic charges:    1.0000000

LOEWDIN ATOMIC CHARGES
----------------------
   0 C :   -0.145270
   1 C :   -0.126547
   2 C :   -0.079097
   3 C :   -0.071249
   4 C :   -0.053266
   5 C :   -0.108143
   6 C :    0.054570
   7 C :   -0.038607
   8 C :   -0.074707
   9 C :   -0.141792
  10 H :    0.160998
  11 C :   -0.090365
  12 C :   -0.146138
  13 C :   -0.176011
  14 H :    0.162741
  15 H :    0.171394
  16 H :    0.163217
  17 H :    0.162830
  18 H :    0.161975
  19 N :    0.282880
  20 C :   -0.218267
  21 H :    0.132601
  22 H :    0.128219
  23 H :    0.132914
  24 C :   -0.100685
  25 C :   -0.098481
  26 C :   -0.095131
  27 C :   -0.140896
  28 C :   -0.140252
  29 C :   -0.142373
  30 H :    0.152049
  31 H :    0.152049
  32 H :    0.158036
  33 H :    0.157850
  34 H :    0.150844
  35 O :    0.245596
  36 C :   -0.281154
  37 H :    0.115119
  38 H :    0.114924
  39 H :    0.117787
  40 N :    0.170229
  41 C :   -0.256698
  42 H :    0.119915
  43 H :    0.126138
  44 H :    0.120212
  45 C :   -0.256134
  46 H :    0.126333
  47 H :    0.120085
  48 H :    0.119758

  Mayer bond orders larger than 0.100000
B(  0-C ,  1-C ) :   1.3144 B(  0-C ,  5-C ) :   1.1040 B(  0-C , 40-N ) :   1.3905
B(  1-C ,  2-C ) :   1.4030 B(  1-C , 14-H ) :   0.9397 B(  2-C ,  3-C ) :   1.2400
B(  2-C , 19-N ) :   1.2461 B(  3-C ,  4-C ) :   1.1193 B(  3-C ,  6-C ) :   1.3588
B(  4-C ,  5-C ) :   1.7097 B(  4-C , 15-H ) :   0.9663 B(  5-C , 16-H ) :   0.9768
B(  6-C ,  7-C ) :   1.1328 B(  6-C , 24-C ) :   0.7582 B(  7-C ,  8-C ) :   1.2501
B(  7-C , 13-C ) :   1.1347 B(  8-C ,  9-C ) :   1.2759 B(  8-C , 19-N ) :   1.2362
B(  9-C , 10-H ) :   0.9869 B(  9-C , 11-C ) :   1.4975 B( 11-C , 12-C ) :   1.2992
B( 11-C , 17-H ) :   0.9691 B( 12-C , 13-C ) :   1.4635 B( 12-C , 18-H ) :   0.9831
B( 13-C , 35-O ) :   1.1662 B( 19-N , 20-C ) :   0.8813 B( 20-C , 21-H ) :   0.9646
B( 20-C , 22-H ) :   0.9648 B( 20-C , 23-H ) :   0.9642 B( 24-C , 25-C ) :   1.3718
B( 24-C , 26-C ) :   1.4161 B( 25-C , 27-C ) :   1.4448 B( 25-C , 32-H ) :   0.9861
B( 26-C , 28-C ) :   1.4593 B( 26-C , 33-H ) :   0.9841 B( 27-C , 29-C ) :   1.4022
B( 27-C , 30-H ) :   0.9828 B( 28-C , 29-C ) :   1.3933 B( 28-C , 31-H ) :   0.9834
B( 29-C , 34-H ) :   0.9778 B( 35-O , 36-C ) :   0.8773 B( 36-C , 37-H ) :   0.9727
B( 36-C , 38-H ) :   0.9729 B( 36-C , 39-H ) :   0.9751 B( 40-N , 41-C ) :   0.9077
B( 40-N , 45-C ) :   0.9048 B( 41-C , 42-H ) :   0.9701 B( 41-C , 43-H ) :   0.9706
B( 41-C , 44-H ) :   0.9716 B( 45-C , 46-H ) :   0.9704 B( 45-C , 47-H ) :   0.9726
B( 45-C , 48-H ) :   0.9718

MP2 TOTAL ENERGY:    -1073.842316451 Eh

-----------------------------------------------------------------------------
         ABSORPTION SPECTRUM VIA TRANSITION ELECTRIC DIPOLE MOMENTS
-----------------------------------------------------------------------------
State   Energy    Wavelength  fosc         T2        TX        TY        TZ
        (cm-1)      (nm)                 (au**2)    (au)      (au)      (au)
-----------------------------------------------------------------------------
   1   10550.8    947.8   0.218982898   6.83284   2.12608   1.51929   0.06606
   2   15159.1    659.7   0.231935801   5.03697  -2.24275  -0.00354   0.08387
   3   21852.7    457.6   0.017699606   0.26665   0.12313   0.48898  -0.11129
   4   22778.1    439.0   0.036691250   0.53030  -0.72631   0.05130  -0.01186
   5   23124.7    432.4   0.024147933   0.34378  -0.57016   0.11179   0.07877
   6   26574.4    376.3   0.579592507   7.18018  -2.65829  -0.32871  -0.07487
   7   23911.4    418.2   0.062815662   0.86485  -0.71460   0.59468   0.02343
   8   29986.5    333.5   0.054219231   0.59526  -0.31122  -0.70579   0.01613
   9   32403.2    308.6   0.354650612   3.60320   0.71952   1.75295  -0.11258
  10   46562.9    214.8   0.006558660   0.04637   0.18710   0.08618  -0.06275
  11   29221.2    342.2   0.110742134   1.24764  -0.12168   1.10857  -0.06247
  12   35293.3    283.3   0.057648414   0.53774  -0.18003   0.70889   0.05297
  13   37879.5    264.0   0.110028623   0.95626   0.94474   0.15136   0.20203
  14   33559.5    298.0   0.103583946   1.01614  -0.64150  -0.76114   0.15898
  15   38706.8    258.4   0.284950326   2.42358  -0.76241   0.80581  -1.09224
  16   33683.6    296.9   0.095485437   0.93324   0.33179  -0.90523  -0.06092
  17   42482.2    235.4   0.368379774   2.85473   0.49721  -1.21419  -1.06454
  18   43992.5    227.3   0.045477938   0.34033  -0.03443  -0.14253   0.56465
  19   36253.5    275.8   0.054976120   0.49923  -0.34578   0.55629   0.26495
  20   40470.8    247.1   0.196871504   1.60146  -0.56393   0.96201  -0.59832
  21   35603.4    280.9   0.073940569   0.68370   0.15632  -0.79374  -0.17100
  22   34802.7    287.3   0.066869042   0.63254   0.58666  -0.46986  -0.26000
  23   35881.7    278.7   0.019916128   0.18273   0.35367  -0.23797  -0.03193
  24   38512.6    259.7   0.056753151   0.48514   0.48041   0.12862   0.48765
  25   45102.2    221.7   0.008821698   0.06439   0.01340  -0.15598  -0.19970
  26   36730.1    272.3   0.025013778   0.22420  -0.36606  -0.04856  -0.29638
  27   36745.1    272.1   0.043196133   0.38701   0.49881  -0.28127  -0.24308
  28   38906.6    257.0   0.002459073   0.02081   0.00879  -0.14397  -0.00185
  29   47170.1    212.0   0.008199770   0.05723  -0.10893   0.11806   0.17727
  30   35172.0    284.3   0.019548446   0.18297  -0.24721   0.34890   0.01155

Dispersion correction           -0.044214789
FINAL SINGLE POINT ENERGY     -1071.740209933651

DIPOLE MOMENT
-------------
                                X             Y             Z
Electronic contribution:     10.53148       1.11745       0.46000
Nuclear contribution   :    -12.63152       0.46724      -0.50410
                        -----------------------------------------
Total Dipole Moment    :     -2.10003       1.58469      -0.04410
                        -----------------------------------------
Magnitude (a.u.)       :      2.63122
Magnitude (Debye)      :      6.68804

Rotational constants in cm-1:     0.010162     0.005301     0.003642
Rotational constants in MHz :   304.643415   158.912869   109.175082

                             ****ORCA TERMINATED NORMALLY****
TOTAL RUN TIME: 0 days 1 hours 0 minutes 10 seconds 947 msec
