                         Program Version 5.0.2 -  RELEASE  -
|  1> %maxcore 38400
|  2> %pal
|  3>  nprocs= 4
|  4> end
|  5> !STEOM-DLPNO-CCSD DEF2-TZVP DEF2-TZVP/C def2/J TightSCF TightPNO CPCM
|  6> %MDCI
|  7>    Dorootwise true
|  8>    OTHRESH 0.005
|  9>    VTHRESH 0.005
| 10>    TCutPNOSingles 1e-11
| 11>    DTol 1e-5
| 12>    NROOTS  25
| 13>    DOSOLV  TRUE
| 14>    MAXITER 500
| 15> END
| 16> %CPCM
| 17>    SMD          TRUE
| 18>    SMDsolvent   "ACETONITRILE"
| 19> END
| 20>
| 21>
| 22> * xyz 1 1
| 23> C                  -3.52189000   -0.52501000   -0.05008700
| 24> C                  -2.90087400    0.72989200    0.01676100
| 25> C                  -1.51934600    0.84488300    0.08802500
| 26> C                  -0.68841000   -0.31903600    0.04796800
| 27> C                  -1.34967100   -1.57914000    0.02689900
| 28> C                  -2.69765000   -1.69089300   -0.01917500
| 29> C                   0.70136100   -0.20537400    0.04004800
| 30> C                   1.29126100    1.07949500   -0.01169900
| 31> C                   0.44605700    2.22994900    0.07301100
| 32> C                   0.99140500    3.51785500   -0.00013100
| 33> H                   0.35649700    4.38755400    0.00881700
| 34> C                   2.34835600    3.67686100   -0.13387100
| 35> C                   3.21173200    2.58960400   -0.20917700
| 36> C                   2.70124100    1.30852400   -0.16632100
| 37> H                  -3.51054600    1.61539600   -0.01689900
| 38> H                  -0.74778900   -2.47656800    0.03877300
| 39> H                  -3.14974400   -2.67107200   -0.03973600
| 40> H                   2.75628500    4.67734800   -0.20064000
| 41> H                   4.27212500    2.75167000   -0.32506300
| 42> N                  -0.91226800    2.06891200    0.22154400
| 43> C                  -1.73695500    3.23562800    0.51809200
| 44> H                  -1.17652900    3.93035400    1.13248800
| 45> H                  -2.06346500    3.73798800   -0.39237700
| 46> H                  -2.60518900    2.92266000    1.08586300
| 47> C                   1.49472700   -1.45902700    0.09499600
| 48> C                   1.66751900   -2.24348600   -1.04172100
| 49> C                   2.03202800   -1.88512000    1.30659500
| 50> C                   2.38910600   -3.42548200   -0.97133300
| 51> C                   2.74520000   -3.07163300    1.37535800
| 52> C                   2.93047900   -3.84285400    0.23619400
| 53> H                   2.52369200   -4.02427700   -1.86344500
| 54> H                   3.15671600   -3.39460100    2.32346900
| 55> H                   1.24184700   -1.91901000   -1.98372700
| 56> H                   1.89485700   -1.27870500    2.19395500
| 57> H                   3.49035800   -4.76783200    0.29053700
| 58> O                   3.47015400    0.22073600   -0.29071000
| 59> C                   4.87155600    0.39021200   -0.45657100
| 60> H                   5.09947600    0.94873800   -1.36633100
| 61> H                   5.31488900    0.89671700    0.40244900
| 62> H                   5.28245100   -0.61239200   -0.53606400
| 63> N                  -4.86123200   -0.63897200   -0.13997700
| 64> C                  -5.69336200    0.54654000   -0.16347700
| 65> H                  -5.46776300    1.17398500   -1.02855700
| 66> H                  -6.73440500    0.24922500   -0.21756900
| 67> H                  -5.55183400    1.14735500    0.73735400
| 68> C                  -5.49772500   -1.94080700   -0.22465500
| 69> H                  -6.56977300   -1.80043600   -0.30515000
| 70> H                  -5.15827400   -2.49575300   -1.10060700
| 71> H                  -5.29749100   -2.54329800    0.66281000
| 72> *
| 73>
| 74>
| 75>                          ****END OF INPUT****

CARTESIAN COORDINATES (ANGSTROEM)
---------------------------------
  C     -3.521890   -0.525010   -0.050087
  C     -2.900874    0.729892    0.016761
  C     -1.519346    0.844883    0.088025
  C     -0.688410   -0.319036    0.047968
  C     -1.349671   -1.579140    0.026899
  C     -2.697650   -1.690893   -0.019175
  C      0.701361   -0.205374    0.040048
  C      1.291261    1.079495   -0.011699
  C      0.446057    2.229949    0.073011
  C      0.991405    3.517855   -0.000131
  H      0.356497    4.387554    0.008817
  C      2.348356    3.676861   -0.133871
  C      3.211732    2.589604   -0.209177
  C      2.701241    1.308524   -0.166321
  H     -3.510546    1.615396   -0.016899
  H     -0.747789   -2.476568    0.038773
  H     -3.149744   -2.671072   -0.039736
  H      2.756285    4.677348   -0.200640
  H      4.272125    2.751670   -0.325063
  N     -0.912268    2.068912    0.221544
  C     -1.736955    3.235628    0.518092
  H     -1.176529    3.930354    1.132488
  H     -2.063465    3.737988   -0.392377
  H     -2.605189    2.922660    1.085863
  C      1.494727   -1.459027    0.094996
  C      1.667519   -2.243486   -1.041721
  C      2.032028   -1.885120    1.306595
  C      2.389106   -3.425482   -0.971333
  C      2.745200   -3.071633    1.375358
  C      2.930479   -3.842854    0.236194
  H      2.523692   -4.024277   -1.863445
  H      3.156716   -3.394601    2.323469
  H      1.241847   -1.919010   -1.983727
  H      1.894857   -1.278705    2.193955
  H      3.490358   -4.767832    0.290537
  O      3.470154    0.220736   -0.290710
  C      4.871556    0.390212   -0.456571
  H      5.099476    0.948738   -1.366331
  H      5.314889    0.896717    0.402449
  H      5.282451   -0.612392   -0.536064
  N     -4.861232   -0.638972   -0.139977
  C     -5.693362    0.546540   -0.163477
  H     -5.467763    1.173985   -1.028557
  H     -6.734405    0.249225   -0.217569
  H     -5.551834    1.147355    0.737354
  C     -5.497725   -1.940807   -0.224655
  H     -6.569773   -1.800436   -0.305150
  H     -5.158274   -2.495753   -1.100607
  H     -5.297491   -2.543298    0.662810

 Total Charge           Charge          ....    1
 Multiplicity           Mult            ....    1
 Number of Electrons    NEL             ....  182
 Basis Dimension        Dim             ....  944

ORBITAL ENERGIES
----------------

  NO   OCC          E(Eh)            E(eV)
   0   2.0000     -20.595188      -560.4236
   1   2.0000     -15.640609      -425.6026
   2   2.0000     -15.594282      -424.3420
   3   2.0000     -11.331511      -308.3461
   4   2.0000     -11.323039      -308.1156
   5   2.0000     -11.322180      -308.0922
   6   2.0000     -11.314036      -307.8706
   7   2.0000     -11.310540      -307.7754
   8   2.0000     -11.275216      -306.8142
   9   2.0000     -11.264317      -306.5177
  10   2.0000     -11.261189      -306.4325
  11   2.0000     -11.260789      -306.4217
  12   2.0000     -11.260146      -306.4041
  13   2.0000     -11.256798      -306.3130
  14   2.0000     -11.252822      -306.2048
  15   2.0000     -11.251191      -306.1605
  16   2.0000     -11.250783      -306.1494
  17   2.0000     -11.236221      -305.7531
  18   2.0000     -11.236089      -305.7495
  19   2.0000     -11.236049      -305.7484
  20   2.0000     -11.234342      -305.7020
  21   2.0000     -11.233850      -305.6886
  22   2.0000     -11.232397      -305.6491
  23   2.0000     -11.230005      -305.5840
  24   2.0000     -11.227450      -305.5145
  25   2.0000     -11.224590      -305.4366
  26   2.0000      -1.432762       -38.9874
  27   2.0000      -1.332673       -36.2639
  28   2.0000      -1.286144       -34.9978
  29   2.0000      -1.189209       -32.3600
  30   2.0000      -1.171372       -31.8746
  31   2.0000      -1.154441       -31.4139
  32   2.0000      -1.108862       -30.1737
  33   2.0000      -1.056455       -28.7476
  34   2.0000      -1.039721       -28.2922
  35   2.0000      -1.031599       -28.0712
  36   2.0000      -1.021813       -27.8050
  37   2.0000      -1.020652       -27.7734
  38   2.0000      -0.979580       -26.6557
  39   2.0000      -0.966249       -26.2930
  40   2.0000      -0.959347       -26.1052
  41   2.0000      -0.933700       -25.4073
  42   2.0000      -0.898504       -24.4495
  43   2.0000      -0.867450       -23.6045
  44   2.0000      -0.841129       -22.8883
  45   2.0000      -0.832581       -22.6557
  46   2.0000      -0.824305       -22.4305
  47   2.0000      -0.793639       -21.5960
  48   2.0000      -0.770941       -20.9784
  49   2.0000      -0.752884       -20.4870
  50   2.0000      -0.733265       -19.9532
  51   2.0000      -0.701078       -19.0773
  52   2.0000      -0.695155       -18.9161
  53   2.0000      -0.692720       -18.8499
  54   2.0000      -0.679329       -18.4855
  55   2.0000      -0.666641       -18.1402
  56   2.0000      -0.664007       -18.0685
  57   2.0000      -0.655752       -17.8439
  58   2.0000      -0.649583       -17.6760
  59   2.0000      -0.645612       -17.5680
  60   2.0000      -0.642446       -17.4818
  61   2.0000      -0.634258       -17.2590
  62   2.0000      -0.626268       -17.0416
  63   2.0000      -0.623913       -16.9775
  64   2.0000      -0.603080       -16.4106
  65   2.0000      -0.588993       -16.0273
  66   2.0000      -0.587840       -15.9959
  67   2.0000      -0.577520       -15.7151
  68   2.0000      -0.572465       -15.5776
  69   2.0000      -0.566023       -15.4023
  70   2.0000      -0.561355       -15.2752
  71   2.0000      -0.558044       -15.1851
  72   2.0000      -0.554164       -15.0796
  73   2.0000      -0.537199       -14.6179
  74   2.0000      -0.535575       -14.5737
  75   2.0000      -0.532664       -14.4945
  76   2.0000      -0.526677       -14.3316
  77   2.0000      -0.518492       -14.1089
  78   2.0000      -0.506227       -13.7751
  79   2.0000      -0.498774       -13.5723
  80   2.0000      -0.497530       -13.5385
  81   2.0000      -0.490052       -13.3350
  82   2.0000      -0.483251       -13.1499
  83   2.0000      -0.458470       -12.4756
  84   2.0000      -0.442496       -12.0409
  85   2.0000      -0.387096       -10.5334
  86   2.0000      -0.360776        -9.8172
  87   2.0000      -0.344602        -9.3771
  88   2.0000      -0.337889        -9.1944
  89   2.0000      -0.305713        -8.3189
  90   2.0000      -0.295813        -8.0495
  91   0.0000       0.017167         0.4671
  92   0.0000       0.093136         2.5344
  93   0.0000       0.114992         3.1291
  94   0.0000       0.119210         3.2439
  95   0.0000       0.133620         3.6360

E(0)                                       ...  -1068.380557855
E(0)                                       ...  -1068.380557855
E(CORR)(strong-pairs)                      ...     -4.301605916
E(CORR)(weak-pairs)                        ...     -0.009757960
E(CORR)(corrected)                         ...     -4.311363876
E(TOT)                                     ...  -1072.691921731

MULLIKEN ATOMIC CHARGES
-----------------------
   0 C :    0.243263
   1 C :   -0.356975
   2 C :    0.072499
   3 C :    0.171976
   4 C :   -0.271575
   5 C :   -0.271988
   6 C :    0.233950
   7 C :    0.117989
   8 C :    0.133386
   9 C :   -0.339576
  10 H :    0.185875
  11 C :   -0.101564
  12 C :   -0.292802
  13 C :    0.184988
  14 H :    0.200697
  15 H :    0.193720
  16 H :    0.181649
  17 H :    0.183435
  18 H :    0.182698
  19 N :    0.049896
  20 C :   -0.394046
  21 H :    0.191761
  22 H :    0.192652
  23 H :    0.188843
  24 C :    0.131538
  25 C :   -0.265142
  26 C :   -0.283363
  27 C :   -0.194353
  28 C :   -0.188979
  29 C :   -0.139390
  30 H :    0.170343
  31 H :    0.171313
  32 H :    0.168896
  33 H :    0.168736
  34 H :    0.172561
  35 O :   -0.250979
  36 C :   -0.306619
  37 H :    0.165656
  38 H :    0.165052
  39 H :    0.175554
  40 N :   -0.025520
  41 C :   -0.378874
  42 H :    0.167343
  43 H :    0.182470
  44 H :    0.167132
  45 C :   -0.373230
  46 H :    0.180498
  47 H :    0.169556
  48 H :    0.169048
Sum of atomic charges:    1.0000000

LOEWDIN ATOMIC CHARGES
----------------------
   0 C :   -0.167258
   1 C :   -0.123797
   2 C :   -0.096592
   3 C :   -0.062997
   4 C :   -0.067029
   5 C :   -0.102962
   6 C :    0.030314
   7 C :   -0.033026
   8 C :   -0.092780
   9 C :   -0.137623
  10 H :    0.166233
  11 C :   -0.109168
  12 C :   -0.143360
  13 C :   -0.201964
  14 H :    0.167612
  15 H :    0.176392
  16 H :    0.168631
  17 H :    0.167552
  18 H :    0.167606
  19 N :    0.308743
  20 C :   -0.236341
  21 H :    0.139850
  22 H :    0.136525
  23 H :    0.139506
  24 C :   -0.108950
  25 C :   -0.104565
  26 C :   -0.101434
  27 C :   -0.146424
  28 C :   -0.145789
  29 C :   -0.147150
  30 H :    0.157522
  31 H :    0.157776
  32 H :    0.163336
  33 H :    0.163047
  34 H :    0.156395
  35 O :    0.283161
  36 C :   -0.309551
  37 H :    0.121196
  38 H :    0.121023
  39 H :    0.124141
  40 N :    0.193446
  41 C :   -0.275067
  42 H :    0.127827
  43 H :    0.133280
  44 H :    0.127946
  45 C :   -0.274409
  46 H :    0.133435
  47 H :    0.128043
  48 H :    0.127697

  Mayer bond orders larger than 0.100000
B(  0-C ,  1-C ) :   1.2143 B(  0-C ,  5-C ) :   1.0046 B(  0-C , 40-N ) :   1.3404
B(  1-C ,  2-C ) :   1.2886 B(  1-C , 14-H ) :   0.8887 B(  2-C ,  3-C ) :   1.1742
B(  2-C , 19-N ) :   1.2044 B(  3-C ,  4-C ) :   1.0491 B(  3-C ,  6-C ) :   1.3044
B(  4-C ,  5-C ) :   1.5664 B(  4-C , 15-H ) :   0.9207 B(  5-C , 16-H ) :   0.9224
B(  6-C ,  7-C ) :   1.0975 B(  6-C , 24-C ) :   0.7191 B(  7-C ,  8-C ) :   1.1699
B(  7-C , 13-C ) :   1.0550 B(  8-C ,  9-C ) :   1.1769 B(  8-C , 19-N ) :   1.1808
B(  9-C , 10-H ) :   0.9327 B(  9-C , 11-C ) :   1.3851 B( 11-C , 12-C ) :   1.1926
B( 11-C , 17-H ) :   0.9195 B( 12-C , 13-C ) :   1.3371 B( 12-C , 18-H ) :   0.9326
B( 13-C , 35-O ) :   1.1601 B( 19-N , 20-C ) :   0.8398 B( 20-C , 21-H ) :   0.9084
B( 20-C , 22-H ) :   0.9092 B( 20-C , 23-H ) :   0.9068 B( 24-C , 25-C ) :   1.2786
B( 24-C , 26-C ) :   1.3120 B( 25-C , 27-C ) :   1.3356 B( 25-C , 32-H ) :   0.9388
B( 26-C , 28-C ) :   1.3412 B( 26-C , 33-H ) :   0.9395 B( 27-C , 29-C ) :   1.2876
B( 27-C , 30-H ) :   0.9324 B( 28-C , 29-C ) :   1.2834 B( 28-C , 31-H ) :   0.9324
B( 29-C , 34-H ) :   0.9295 B( 35-O , 36-C ) :   0.8394 B( 36-C , 37-H ) :   0.9163
B( 36-C , 38-H ) :   0.9166 B( 36-C , 39-H ) :   0.9206 B( 40-N , 41-C ) :   0.8552
B( 40-N , 45-C ) :   0.8520 B( 41-C , 42-H ) :   0.9142 B( 41-C , 43-H ) :   0.9156
B( 41-C , 44-H ) :   0.9151 B( 45-C , 46-H ) :   0.9145 B( 45-C , 47-H ) :   0.9169
B( 45-C , 48-H ) :   0.9161

-----------------------------------------------------------------------------
         ABSORPTION SPECTRUM VIA TRANSITION ELECTRIC DIPOLE MOMENTS
-----------------------------------------------------------------------------
State   Energy  Wavelength   fosc         T2         TX        TY        TZ
        (cm-1)    (nm)                  (au**2)     (au)      (au)      (au)
-----------------------------------------------------------------------------
   1   19513.9    512.5   0.275232131   4.64335   1.70860   1.30990   0.07709
   2   22761.6    439.3   0.315646387   4.56534   2.13053   0.13019   0.07614
   3   30508.0    327.8   0.059015596   0.63684   0.69853   0.38386   0.03896
   4   29457.1    339.5   0.041946662   0.46880   0.64094   0.23425   0.05543
   5   33006.5    303.0   0.001881282   0.01876   0.06425   0.03108   0.05906
   6   36067.1    277.3   0.036608826   0.33416   0.52630   0.23075   0.01725
   7   36748.6    272.1   0.808563262   7.24351   2.67681   0.27295   0.05164
   8   37651.3    265.6   0.027244413   0.23822   0.29448   0.38660   0.00167
   9   41012.1    243.8   0.342795663   2.75169   0.52573   1.56777   0.11163
  10   41640.5    240.2   0.007887120   0.06236   0.17502   0.15359   0.03123
  11   45949.7    217.6   0.232659568   1.66692   0.59491   1.12606   0.01467
  12   46478.1    215.2   0.229991963   1.62907   1.11135   0.55356   0.00891
  13   49426.0    202.3   0.119537086   0.79620   0.26631   0.83417   0.13399
  14   50131.9    199.5   0.168594632   1.10715   0.39262   0.95647   0.08262
  15   49945.7    200.2   0.034539252   0.22766   0.04992   0.14800   0.18032
  16   50327.6    198.7   0.042946465   0.28093   0.10478   0.22392   0.26069
  17   49704.7    201.2   0.032668908   0.21638   0.02040   0.05531   0.43265
  18   49750.1    201.0   0.078125135   0.51698   0.65809   0.22608   0.16028
  19   52889.8    189.1   0.048350061   0.30095   0.04617   0.52785   0.13246
  20   61049.5    163.8   0.014466145   0.07801   0.12048   0.12626   0.17535

FINAL SINGLE POINT ENERGY     -1072.603009940147

DIPOLE MOMENT
-------------
                                X             Y             Z
Electronic contribution:     10.23415       1.09703       0.45781
Nuclear contribution   :    -12.63152       0.46724      -0.50410
                        -----------------------------------------
Total Dipole Moment    :     -2.39736       1.56427      -0.04629
                        -----------------------------------------
Magnitude (a.u.)       :      2.86294
Magnitude (Debye)      :      7.27702

Rotational constants in cm-1:     0.010162     0.005301     0.003642
Rotational constants in MHz :   304.643415   158.912869   109.175082

                             ****ORCA TERMINATED NORMALLY****
TOTAL RUN TIME: 0 days 18 hours 35 minutes 43 seconds 409 msec
