                         Program Version 5.0.2 -  RELEASE  -
|  1> %maxcore 3200
|  2> %pal
|  3>  nprocs= 8
|  4> end
|  5> ! RI-wB2PLYP def2-TZVP def2/J def2-TZVP/C RIJCOSX CPCM TightSCF
|  6> %TDDFT DCORR 1
|  7>    NROOTS   30
|  8>
|  9>    TDA      FALSE
| 10> END
| 11>
| 12> %CPCM
| 13>    SMD          TRUE
| 14>    SMDsolvent   "ACETONITRILE"
| 15> END
| 16>
| 17>
| 18> * xyz 1 1
| 19> C                  -3.52189000   -0.52501000   -0.05008700
| 20> C                  -2.90087400    0.72989200    0.01676100
| 21> C                  -1.51934600    0.84488300    0.08802500
| 22> C                  -0.68841000   -0.31903600    0.04796800
| 23> C                  -1.34967100   -1.57914000    0.02689900
| 24> C                  -2.69765000   -1.69089300   -0.01917500
| 25> C                   0.70136100   -0.20537400    0.04004800
| 26> C                   1.29126100    1.07949500   -0.01169900
| 27> C                   0.44605700    2.22994900    0.07301100
| 28> C                   0.99140500    3.51785500   -0.00013100
| 29> H                   0.35649700    4.38755400    0.00881700
| 30> C                   2.34835600    3.67686100   -0.13387100
| 31> C                   3.21173200    2.58960400   -0.20917700
| 32> C                   2.70124100    1.30852400   -0.16632100
| 33> H                  -3.51054600    1.61539600   -0.01689900
| 34> H                  -0.74778900   -2.47656800    0.03877300
| 35> H                  -3.14974400   -2.67107200   -0.03973600
| 36> H                   2.75628500    4.67734800   -0.20064000
| 37> H                   4.27212500    2.75167000   -0.32506300
| 38> N                  -0.91226800    2.06891200    0.22154400
| 39> C                  -1.73695500    3.23562800    0.51809200
| 40> H                  -1.17652900    3.93035400    1.13248800
| 41> H                  -2.06346500    3.73798800   -0.39237700
| 42> H                  -2.60518900    2.92266000    1.08586300
| 43> C                   1.49472700   -1.45902700    0.09499600
| 44> C                   1.66751900   -2.24348600   -1.04172100
| 45> C                   2.03202800   -1.88512000    1.30659500
| 46> C                   2.38910600   -3.42548200   -0.97133300
| 47> C                   2.74520000   -3.07163300    1.37535800
| 48> C                   2.93047900   -3.84285400    0.23619400
| 49> H                   2.52369200   -4.02427700   -1.86344500
| 50> H                   3.15671600   -3.39460100    2.32346900
| 51> H                   1.24184700   -1.91901000   -1.98372700
| 52> H                   1.89485700   -1.27870500    2.19395500
| 53> H                   3.49035800   -4.76783200    0.29053700
| 54> O                   3.47015400    0.22073600   -0.29071000
| 55> C                   4.87155600    0.39021200   -0.45657100
| 56> H                   5.09947600    0.94873800   -1.36633100
| 57> H                   5.31488900    0.89671700    0.40244900
| 58> H                   5.28245100   -0.61239200   -0.53606400
| 59> N                  -4.86123200   -0.63897200   -0.13997700
| 60> C                  -5.69336200    0.54654000   -0.16347700
| 61> H                  -5.46776300    1.17398500   -1.02855700
| 62> H                  -6.73440500    0.24922500   -0.21756900
| 63> H                  -5.55183400    1.14735500    0.73735400
| 64> C                  -5.49772500   -1.94080700   -0.22465500
| 65> H                  -6.56977300   -1.80043600   -0.30515000
| 66> H                  -5.15827400   -2.49575300   -1.10060700
| 67> H                  -5.29749100   -2.54329800    0.66281000
| 68> *
| 69>
| 70>
| 71>                          ****END OF INPUT****

CARTESIAN COORDINATES (ANGSTROEM)
---------------------------------
  C     -3.521890   -0.525010   -0.050087
  C     -2.900874    0.729892    0.016761
  C     -1.519346    0.844883    0.088025
  C     -0.688410   -0.319036    0.047968
  C     -1.349671   -1.579140    0.026899
  C     -2.697650   -1.690893   -0.019175
  C      0.701361   -0.205374    0.040048
  C      1.291261    1.079495   -0.011699
  C      0.446057    2.229949    0.073011
  C      0.991405    3.517855   -0.000131
  H      0.356497    4.387554    0.008817
  C      2.348356    3.676861   -0.133871
  C      3.211732    2.589604   -0.209177
  C      2.701241    1.308524   -0.166321
  H     -3.510546    1.615396   -0.016899
  H     -0.747789   -2.476568    0.038773
  H     -3.149744   -2.671072   -0.039736
  H      2.756285    4.677348   -0.200640
  H      4.272125    2.751670   -0.325063
  N     -0.912268    2.068912    0.221544
  C     -1.736955    3.235628    0.518092
  H     -1.176529    3.930354    1.132488
  H     -2.063465    3.737988   -0.392377
  H     -2.605189    2.922660    1.085863
  C      1.494727   -1.459027    0.094996
  C      1.667519   -2.243486   -1.041721
  C      2.032028   -1.885120    1.306595
  C      2.389106   -3.425482   -0.971333
  C      2.745200   -3.071633    1.375358
  C      2.930479   -3.842854    0.236194
  H      2.523692   -4.024277   -1.863445
  H      3.156716   -3.394601    2.323469
  H      1.241847   -1.919010   -1.983727
  H      1.894857   -1.278705    2.193955
  H      3.490358   -4.767832    0.290537
  O      3.470154    0.220736   -0.290710
  C      4.871556    0.390212   -0.456571
  H      5.099476    0.948738   -1.366331
  H      5.314889    0.896717    0.402449
  H      5.282451   -0.612392   -0.536064
  N     -4.861232   -0.638972   -0.139977
  C     -5.693362    0.546540   -0.163477
  H     -5.467763    1.173985   -1.028557
  H     -6.734405    0.249225   -0.217569
  H     -5.551834    1.147355    0.737354
  C     -5.497725   -1.940807   -0.224655
  H     -6.569773   -1.800436   -0.305150
  H     -5.158274   -2.495753   -1.100607
  H     -5.297491   -2.543298    0.662810

 Total Charge           Charge          ....    1
 Multiplicity           Mult            ....    1
 Number of Electrons    NEL             ....  182
 Basis Dimension        Dim             ....  944

ORBITAL ENERGIES
----------------

  NO   OCC          E(Eh)            E(eV)
   0   2.0000     -19.839065      -539.8484
   1   2.0000     -14.992741      -407.9732
   2   2.0000     -14.947739      -406.7487
   3   2.0000     -10.782787      -293.4146
   4   2.0000     -10.774492      -293.1888
   5   2.0000     -10.773717      -293.1678
   6   2.0000     -10.765174      -292.9353
   7   2.0000     -10.760447      -292.8066
   8   2.0000     -10.730218      -291.9841
   9   2.0000     -10.725449      -291.8543
  10   2.0000     -10.718633      -291.6688
  11   2.0000     -10.717977      -291.6510
  12   2.0000     -10.713624      -291.5325
  13   2.0000     -10.713443      -291.5276
  14   2.0000     -10.709890      -291.4309
  15   2.0000     -10.707529      -291.3667
  16   2.0000     -10.707318      -291.3609
  17   2.0000     -10.697339      -291.0894
  18   2.0000     -10.692559      -290.9593
  19   2.0000     -10.692459      -290.9566
  20   2.0000     -10.690748      -290.9100
  21   2.0000     -10.690653      -290.9075
  22   2.0000     -10.690475      -290.9026
  23   2.0000     -10.689104      -290.8653
  24   2.0000     -10.688160      -290.8396
  25   2.0000     -10.686303      -290.7891
  26   2.0000      -1.313814       -35.7507
  27   2.0000      -1.231970       -33.5236
  28   2.0000      -1.187996       -32.3270
  29   2.0000      -1.100010       -29.9328
  30   2.0000      -1.085130       -29.5279
  31   2.0000      -1.068064       -29.0635
  32   2.0000      -1.028211       -27.9791
  33   2.0000      -0.982038       -26.7226
  34   2.0000      -0.966077       -26.2883
  35   2.0000      -0.959321       -26.1044
  36   2.0000      -0.949417       -25.8349
  37   2.0000      -0.945571       -25.7303
  38   2.0000      -0.916079       -24.9278
  39   2.0000      -0.901426       -24.5291
  40   2.0000      -0.896131       -24.3850
  41   2.0000      -0.873592       -23.7716
  42   2.0000      -0.841748       -22.9051
  43   2.0000      -0.813735       -22.1429
  44   2.0000      -0.790744       -21.5172
  45   2.0000      -0.780419       -21.2363
  46   2.0000      -0.773446       -21.0465
  47   2.0000      -0.746810       -20.3217
  48   2.0000      -0.731088       -19.8939
  49   2.0000      -0.715148       -19.4602
  50   2.0000      -0.698784       -19.0149
  51   2.0000      -0.668502       -18.1909
  52   2.0000      -0.663358       -18.0509
  53   2.0000      -0.660351       -17.9691
  54   2.0000      -0.646683       -17.5971
  55   2.0000      -0.639075       -17.3901
  56   2.0000      -0.634254       -17.2589
  57   2.0000      -0.626609       -17.0509
  58   2.0000      -0.619901       -16.8684
  59   2.0000      -0.617425       -16.8010
  60   2.0000      -0.611947       -16.6519
  61   2.0000      -0.605565       -16.4783
  62   2.0000      -0.597415       -16.2565
  63   2.0000      -0.596579       -16.2337
  64   2.0000      -0.575409       -15.6577
  65   2.0000      -0.562715       -15.3122
  66   2.0000      -0.561508       -15.2794
  67   2.0000      -0.552463       -15.0333
  68   2.0000      -0.548570       -14.9274
  69   2.0000      -0.543877       -14.7997
  70   2.0000      -0.541119       -14.7246
  71   2.0000      -0.538994       -14.6668
  72   2.0000      -0.532791       -14.4980
  73   2.0000      -0.522009       -14.2046
  74   2.0000      -0.514834       -14.0094
  75   2.0000      -0.512648       -13.9499
  76   2.0000      -0.508391       -13.8340
  77   2.0000      -0.503203       -13.6929
  78   2.0000      -0.485473       -13.2104
  79   2.0000      -0.483643       -13.1606
  80   2.0000      -0.476143       -12.9565
  81   2.0000      -0.470084       -12.7916
  82   2.0000      -0.464503       -12.6398
  83   2.0000      -0.451365       -12.2823
  84   2.0000      -0.438143       -11.9225
  85   2.0000      -0.389813       -10.6074
  86   2.0000      -0.368571       -10.0293
  87   2.0000      -0.355679        -9.6785
  88   2.0000      -0.347543        -9.4571
  89   2.0000      -0.313740        -8.5373
  90   2.0000      -0.301871        -8.2143
  91   0.0000      -0.020284        -0.5520
  92   0.0000       0.053924         1.4674
  93   0.0000       0.077636         2.1126
  94   0.0000       0.081338         2.2133
  95   0.0000       0.092181         2.5084

MULLIKEN ATOMIC CHARGES
-----------------------
   0 C :    0.263527
   1 C :   -0.357402
   2 C :    0.107137
   3 C :    0.115659
   4 C :   -0.248827
   5 C :   -0.289748
   6 C :    0.234252
   7 C :    0.040608
   8 C :    0.192780
   9 C :   -0.344371
  10 H :    0.202145
  11 C :   -0.114524
  12 C :   -0.327175
  13 C :    0.286175
  14 H :    0.227966
  15 H :    0.212147
  16 H :    0.196882
  17 H :    0.194106
  18 H :    0.196343
  19 N :   -0.023589
  20 C :   -0.375859
  21 H :    0.188798
  22 H :    0.191365
  23 H :    0.186090
  24 C :    0.034413
  25 C :   -0.239138
  26 C :   -0.226228
  27 C :   -0.203688
  28 C :   -0.208594
  29 C :   -0.145446
  30 H :    0.180101
  31 H :    0.179689
  32 H :    0.183689
  33 H :    0.182309
  34 H :    0.181850
  35 O :   -0.305273
  36 C :   -0.282548
  37 H :    0.165910
  38 H :    0.165396
  39 H :    0.172365
  40 N :   -0.088722
  41 C :   -0.359652
  42 H :    0.164150
  43 H :    0.177394
  44 H :    0.164485
  45 C :   -0.354629
  46 H :    0.174082
  47 H :    0.167112
  48 H :    0.166485
Sum of atomic charges:    1.0000000

LOEWDIN ATOMIC CHARGES
----------------------
   0 C :   -0.149361
   1 C :   -0.131631
   2 C :   -0.081936
   3 C :   -0.073286
   4 C :   -0.056283
   5 C :   -0.111391
   6 C :    0.052436
   7 C :   -0.040181
   8 C :   -0.078012
   9 C :   -0.145016
  10 H :    0.165079
  11 C :   -0.094699
  12 C :   -0.149782
  13 C :   -0.182639
  14 H :    0.166288
  15 H :    0.175646
  16 H :    0.167335
  17 H :    0.167298
  18 H :    0.166052
  19 N :    0.288610
  20 C :   -0.231960
  21 H :    0.137343
  22 H :    0.133724
  23 H :    0.137520
  24 C :   -0.106138
  25 C :   -0.102633
  26 C :   -0.098899
  27 C :   -0.144238
  28 C :   -0.143661
  29 C :   -0.145797
  30 H :    0.156459
  31 H :    0.156460
  32 H :    0.162660
  33 H :    0.162448
  34 H :    0.155208
  35 O :    0.256841
  36 C :   -0.297979
  37 H :    0.119999
  38 H :    0.119806
  39 H :    0.122602
  40 N :    0.174436
  41 C :   -0.270754
  42 H :    0.125097
  43 H :    0.130872
  44 H :    0.125302
  45 C :   -0.270409
  46 H :    0.131025
  47 H :    0.125234
  48 H :    0.124904

  Mayer bond orders larger than 0.100000
B(  0-C ,  1-C ) :   1.3514 B(  0-C ,  5-C ) :   1.0975 B(  0-C , 40-N ) :   1.3742
B(  1-C ,  2-C ) :   1.4310 B(  1-C , 14-H ) :   0.8945 B(  2-C ,  3-C ) :   1.2383
B(  2-C , 19-N ) :   1.2384 B(  3-C ,  4-C ) :   1.1136 B(  3-C ,  6-C ) :   1.3580
B(  4-C ,  5-C ) :   1.7659 B(  4-C , 15-H ) :   0.9459 B(  5-C , 16-H ) :   0.9531
B(  6-C ,  7-C ) :   1.1562 B(  6-C , 24-C ) :   0.8048 B(  7-C ,  8-C ) :   1.2646
B(  7-C , 13-C ) :   1.1599 B(  8-C ,  9-C ) :   1.2599 B(  8-C , 19-N ) :   1.2277
B(  9-C , 10-H ) :   0.9642 B(  9-C , 11-C ) :   1.5237 B( 11-C , 12-C ) :   1.3095
B( 11-C , 17-H ) :   0.9623 B( 12-C , 13-C ) :   1.4535 B( 12-C , 18-H ) :   0.9661
B( 13-C , 35-O ) :   1.1713 B( 19-N , 20-C ) :   0.8974 B( 20-C , 21-H ) :   0.9603
B( 20-C , 22-H ) :   0.9599 B( 20-C , 23-H ) :   0.9598 B( 24-C , 25-C ) :   1.3650
B( 24-C , 26-C ) :   1.3960 B( 25-C , 27-C ) :   1.4384 B( 25-C , 32-H ) :   0.9785
B( 26-C , 28-C ) :   1.4504 B( 26-C , 33-H ) :   0.9756 B( 27-C , 29-C ) :   1.3996
B( 27-C , 30-H ) :   0.9749 B( 28-C , 29-C ) :   1.3907 B( 28-C , 31-H ) :   0.9759
B( 29-C , 34-H ) :   0.9709 B( 35-O , 36-C ) :   0.8819 B( 36-C , 37-H ) :   0.9680
B( 36-C , 38-H ) :   0.9679 B( 36-C , 39-H ) :   0.9720 B( 40-N , 41-C ) :   0.9159
B( 40-N , 45-C ) :   0.9114 B( 41-C , 42-H ) :   0.9663 B( 41-C , 43-H ) :   0.9664
B( 41-C , 44-H ) :   0.9676 B( 45-C , 46-H ) :   0.9663 B( 45-C , 47-H ) :   0.9689
B( 45-C , 48-H ) :   0.9679

MP2 TOTAL ENERGY:    -1073.131236523 Eh

-----------------------------------------------------------------------------
         ABSORPTION SPECTRUM VIA TRANSITION ELECTRIC DIPOLE MOMENTS
-----------------------------------------------------------------------------
State   Energy    Wavelength  fosc         T2        TX        TY        TZ
        (cm-1)      (nm)                 (au**2)    (au)      (au)      (au)
-----------------------------------------------------------------------------
   1   24888.4    401.8   0.642647516   8.50063   2.48713   1.52053   0.05303
   2   26869.1    372.2   0.300595747   3.68303   1.89815  -0.26492  -0.09931
   3   34890.3    286.6   0.084144236   0.79395  -0.79695  -0.39100   0.07704
   4   35742.0    279.8   0.061471647   0.56620  -0.65100   0.36402  -0.09942
   5   40495.6    246.9   0.826325661   6.71767  -2.58432  -0.18751  -0.06161
   6   40488.2    247.0   0.092813111   0.75467  -0.54647   0.67514  -0.01530
   7   40963.1    244.1   0.029411464   0.23637   0.29052  -0.37610  -0.10257
   8   42895.9    233.1   0.125219616   0.96102   0.38319   0.90149   0.03884
   9   44121.8    226.6   0.462123819   3.44811  -0.76582  -1.68747   0.11866
  10   48985.8    204.1   0.006244122   0.04196  -0.17754  -0.04686   0.09081
  11   46893.3    213.2   0.213037741   1.49562  -0.21159   1.20204  -0.07718
  12   49201.1    203.2   0.092171481   0.61673  -0.61486   0.48821  -0.01827
  13   50163.9    199.3   0.166034161   1.08964   0.96470   0.30430   0.25769
  14   50354.4    198.6   0.177424832   1.15998   0.54760   0.85027  -0.37035
  15   52875.6    189.1   0.373419295   2.32497   0.45085   0.15272   1.44858
  16   53415.6    187.2   0.759308095   4.67978  -1.00898   1.88803   0.31159
  17   53927.7    185.4   0.066015590   0.40300  -0.00068  -0.08712   0.62882
  18   52957.1    188.8   0.138371541   0.86020  -0.23813   0.36138  -0.82030
  19   52786.4    189.4   0.001516267   0.00946   0.06487  -0.04786  -0.05438
  20   54069.1    184.9   0.149303157   0.90907  -0.52314   0.78792  -0.12072
  21   55020.1    181.8   0.130093668   0.77841  -0.49057   0.69470   0.23483
  22   57588.9    173.6   0.007506938   0.04291  -0.19646   0.05309  -0.03872
  23   55535.5    180.1   0.013481849   0.07992  -0.25608   0.10187  -0.06298
  24   55926.8    178.8   0.018376310   0.10817  -0.25246   0.13732   0.15992
  25   55891.3    178.9   0.049270378   0.29021   0.53742  -0.03121   0.02057
  26   56742.7    176.2   0.007406353   0.04297   0.08366   0.06746   0.17726
  27   56858.8    175.9   0.021517535   0.12459   0.17803   0.25238   0.17088
  28   58746.7    170.2   0.012416306   0.06958   0.25356  -0.00414  -0.07259
  29   57537.0    173.8   0.019613637   0.11222   0.22536  -0.12956   0.21131
  30   60449.0    165.4   0.023795755   0.12959  -0.07405   0.13641   0.32481

FINAL SINGLE POINT ENERGY     -1071.758469768276

DIPOLE MOMENT
-------------
                                X             Y             Z
Electronic contribution:     10.52112       1.11077       0.45941
Nuclear contribution   :    -12.63152       0.46724      -0.50410
                        -----------------------------------------
Total Dipole Moment    :     -2.11040       1.57801      -0.04470
                        -----------------------------------------
Magnitude (a.u.)       :      2.63550
Magnitude (Debye)      :      6.69892

Rotational constants in cm-1:     0.010162     0.005301     0.003642
Rotational constants in MHz :   304.643415   158.912869   109.175082

                             ****ORCA TERMINATED NORMALLY****
TOTAL RUN TIME: 0 days 1 hours 9 minutes 56 seconds 32 msec
