 Gaussian 09, Revision E.01,

 ----------------------------------------------------------------------
 #p m062x/def2TZVP opt freq=noraman nosymm int=ultrafine scrf=(SMD,solv
 ent=Acetonitrile)
 ----------------------------------------------------------------------

 -----
 Title
 -----
 Symbolic Z-matrix:
 Charge =  1 Multiplicity = 1

 SCF Done:  E(RM062X) =  -940.863207609     A.U. after   14 cycles
 SCF Done:  E(RM062X) =  -940.866490731     A.U. after   11 cycles
 SCF Done:  E(RM062X) =  -940.866641301     A.U. after   11 cycles
 SCF Done:  E(RM062X) =  -940.866827386     A.U. after   10 cycles
 SCF Done:  E(RM062X) =  -940.866836988     A.U. after   10 cycles
 SCF Done:  E(RM062X) =  -940.866845340     A.U. after    9 cycles
 SCF Done:  E(RM062X) =  -940.866848591     A.U. after    8 cycles
 SCF Done:  E(RM062X) =  -940.866850103     A.U. after    8 cycles
 SCF Done:  E(RM062X) =  -940.866851444     A.U. after    8 cycles
 SCF Done:  E(RM062X) =  -940.866851642     A.U. after    7 cycles
 SCF Done:  E(RM062X) =  -940.866851743     A.U. after    6 cycles
 SCF Done:  E(RM062X) =  -940.866851773     A.U. after    5 cycles
 SCF Done:  E(RM062X) =  -940.866851793     A.U. after    5 cycles
 Optimization completed.
    -- Stationary point found.
 Normal termination of Gaussian 09 at Tue Feb 23 10:35:03 2021.

 --------------------------------------------------------------------
 #P Geom=AllCheck Guess=TCheck SCRF=Check GenChk RM062X/def2TZVP Freq
 --------------------------------------------------------------------

 Structure from the checkpoint file:  "cp.chk"
 -----
 Title
 -----
 Charge =  1 Multiplicity = 1

 SCF Done:  E(RM062X) =  -940.866851793     A.U. after    1 cycles

  Exact polarizability: 463.726  22.605 489.777  -0.810  -1.031 247.022
 Approx polarizability: 379.995   9.889 400.736  -0.505  -0.576 232.731

                      1                      2                      3
                      A                      A                      A
 Frequencies --     22.7316                46.1927                60.3504
 Red. masses --      4.3864                 3.7564                 4.8800
 Frc consts  --      0.0013                 0.0047                 0.0105
 IR Inten    --      0.0038                 0.0207                 0.1029

                      4                      5                      6
                      A                      A                      A
 Frequencies --     66.7868                82.8787               108.2187
 Red. masses --      3.5124                 4.0623                 3.2329
 Frc consts  --      0.0092                 0.0164                 0.0223
 IR Inten    --      1.5361                 5.7569                 2.7556

                      7                      8                      9
                      A                      A                      A
 Frequencies --    145.7817               149.6305               173.4840
 Red. masses --      1.3560                 3.4547                 3.9171
 Frc consts  --      0.0170                 0.0456                 0.0695
 IR Inten    --      0.6162                 0.4005                 1.7248

                     10                     11                     12
                      A                      A                      A
 Frequencies --    183.6345               223.6737               228.4975
 Red. masses --      3.2105                 4.6212                 5.1376
 Frc consts  --      0.0638                 0.1362                 0.1580
 IR Inten    --      2.3141                 1.0559                 1.1653

                     13                     14                     15
                      A                      A                      A
 Frequencies --    274.2226               284.9927               316.8769
 Red. masses --      4.1453                 2.2588                 1.5364
 Frc consts  --      0.1837                 0.1081                 0.0909
 IR Inten    --      0.5772                 0.6313                 0.1291

                     16                     17                     18
                      A                      A                      A
 Frequencies --    335.5620               359.8594               396.6269
 Red. masses --      3.8370                 4.9860                 4.8089
 Frc consts  --      0.2546                 0.3804                 0.4457
 IR Inten    --      2.9258                 6.6744                 2.4279

                     19                     20                     21
                      A                      A                      A
 Frequencies --    408.5690               416.5892               446.1121
 Red. masses --      2.9736                 6.1982                 2.8381
 Frc consts  --      0.2925                 0.6338                 0.3328
 IR Inten    --      0.1469                 6.5871                 1.9292

                     22                     23                     24
                      A                      A                      A
 Frequencies --    461.5260               498.0059               503.2452
 Red. masses --      2.8688                 4.0487                 5.0516
 Frc consts  --      0.3600                 0.5916                 0.7538
 IR Inten    --      3.2383                 2.0376                 5.0277

                     25                     26                     27
                      A                      A                      A
 Frequencies --    521.7060               554.5344               558.2647
 Red. masses --      3.6461                 4.0275                 4.5187
 Frc consts  --      0.5847                 0.7297                 0.8298
 IR Inten    --      1.9094                 5.8629                10.8965

                     28                     29                     30
                      A                      A                      A
 Frequencies --    606.4461               625.6916               632.3761
 Red. masses --      5.6205                 6.1803                 4.6204
 Frc consts  --      1.2179                 1.4255                 1.0886
 IR Inten    --     42.5782                 0.1655                23.3978

                     31                     32                     33
                      A                      A                      A
 Frequencies --    654.8149               662.7004               679.6993
 Red. masses --      4.8721                 4.5698                 5.2875
 Frc consts  --      1.2309                 1.1825                 1.4392
 IR Inten    --     14.4992                 2.3704                53.4074

                     34                     35                     36
                      A                      A                      A
 Frequencies --    700.2925               724.8669               757.6768
 Red. masses --      3.5426                 1.5567                 5.6774
 Frc consts  --      1.0236                 0.4819                 1.9203
 IR Inten    --     28.6639               105.6607                41.0769

                     37                     38                     39
                      A                      A                      A
 Frequencies --    769.7798               784.9581               791.7497
 Red. masses --      2.2181                 1.5425                 2.1877
 Frc consts  --      0.7744                 0.5600                 0.8080
 IR Inten    --     23.6367                68.3453                55.7719

                     40                     41                     42
                      A                      A                      A
 Frequencies --    806.8879               837.9719               850.0034
 Red. masses --      1.7880                 4.4948                 3.7608
 Frc consts  --      0.6859                 1.8596                 1.6009
 IR Inten    --    110.2343                 8.8211                27.0984

                     43                     44                     45
                      A                      A                      A
 Frequencies --    882.2382               894.6457               901.0622
 Red. masses --      1.2528                 1.9064                 1.4612
 Frc consts  --      0.5745                 0.8990                 0.6990
 IR Inten    --      0.0123                 3.2153                 3.2189

                     46                     47                     48
                      A                      A                      A
 Frequencies --    922.8471               939.2711               963.0533
 Red. masses --      3.4486                 5.5776                 1.8427
 Frc consts  --      1.7304                 2.8992                 1.0070
 IR Inten    --      5.0008                19.6108                 9.2384

                     49                     50                     51
                      A                      A                      A
 Frequencies --    984.8020              1013.4920              1018.3368
 Red. masses --      4.3732                 1.3409                 1.3792
 Frc consts  --      2.4989                 0.8115                 0.8427
 IR Inten    --      5.4957                 0.9326                 0.0406

                     52                     53                     54
                      A                      A                      A
 Frequencies --   1019.1046              1033.9609              1039.3915
 Red. masses --      6.0317                 1.3389                 1.3288
 Frc consts  --      3.6909                 0.8433                 0.8458
 IR Inten    --      3.5161                 2.4566                 0.3724

                     55                     56                     57
                      A                      A                      A
 Frequencies --   1044.0081              1060.1241              1069.4882
 Red. masses --      1.3651                 2.1123                 2.1664
 Frc consts  --      0.8766                 1.3987                 1.4600
 IR Inten    --      0.5087                11.1826                 8.0073

                     58                     59                     60
                      A                      A                      A
 Frequencies --   1080.2900              1106.7219              1123.1949
 Red. masses --      6.5717                 1.5038                 2.1836
 Frc consts  --      4.5186                 1.0853                 1.6231
 IR Inten    --     26.9256                14.1007               135.4560

                     61                     62                     63
                      A                      A                      A
 Frequencies --   1143.1405              1147.7295              1160.3189
 Red. masses --      1.4274                 2.3669                 1.7498
 Frc consts  --      1.0990                 1.8370                 1.3880
 IR Inten    --     43.1783                52.4121                35.7015

                     64                     65                     66
                      A                      A                      A
 Frequencies --   1166.2021              1182.7307              1189.3420
 Red. masses --      1.1315                 1.2770                 1.1982
 Frc consts  --      0.9067                 1.0525                 0.9986
 IR Inten    --      0.0740                 2.0860                 8.6351

                     67                     68                     69
                      A                      A                      A
 Frequencies --   1193.5501              1205.1302              1218.5859
 Red. masses --      1.1183                 1.6133                 1.7825
 Frc consts  --      0.9386                 1.3805                 1.5595
 IR Inten    --      0.4238               129.7450                59.5888

                     70                     71                     72
                      A                      A                      A
 Frequencies --   1222.8437              1236.1396              1286.7882
 Red. masses --      1.6592                 1.4837                 2.3435
 Frc consts  --      1.4618                 1.3358                 2.2863
 IR Inten    --      7.4210                 4.3469               558.9468

                     73                     74                     75
                      A                      A                      A
 Frequencies --   1296.8536              1309.1364              1314.0697
 Red. masses --      5.2404                 2.4237                 2.1372
 Frc consts  --      5.1927                 2.4474                 2.1744
 IR Inten    --      0.5181               163.8465                 1.1041

                     76                     77                     78
                      A                      A                      A
 Frequencies --   1343.8846              1348.8278              1398.6927
 Red. masses --      3.3376                 1.3716                 7.2038
 Frc consts  --      3.5515                 1.4702                 8.3034
 IR Inten    --    154.5482                 0.1233               280.8591

                     79                     80                     81
                      A                      A                      A
 Frequencies --   1409.4277              1428.5732              1438.1247
 Red. masses --      2.7412                 3.1227                 2.6961
 Frc consts  --      3.2084                 3.7548                 3.2854
 IR Inten    --     48.0165                21.6102                82.3214

                     82                     83                     84
                      A                      A                      A
 Frequencies --   1453.7870              1464.2730              1481.7760
 Red. masses --      1.3282                 1.5323                 2.2878
 Frc consts  --      1.6539                 1.9358                 2.9596
 IR Inten    --    121.8487                 9.9727                12.0802

                     85                     86                     87
                      A                      A                      A
 Frequencies --   1482.6539              1486.0496              1495.8685
 Red. masses --      1.4080                 1.4227                 1.0425
 Frc consts  --      1.8236                 1.8511                 1.3743
 IR Inten    --     37.7216                 6.9515                15.5709

                     88                     89                     90
                      A                      A                      A
 Frequencies --   1505.5438              1514.7120              1529.9461
 Red. masses --      1.1418                 2.1873                 1.6892
 Frc consts  --      1.5248                 2.9568                 2.3296
 IR Inten    --     16.4478               263.7174                53.6822

                     91                     92                     93
                      A                      A                      A
 Frequencies --   1539.2274              1556.9684              1576.3126
 Red. masses --      1.7037                 2.1559                 5.8563
 Frc consts  --      2.3782                 3.0791                 8.5736
 IR Inten    --      8.3878                19.0883               492.4099

                     94                     95                     96
                      A                      A                      A
 Frequencies --   1621.2774              1641.8667              1648.1971
 Red. masses --      6.0550                 7.6069                 6.1405
 Frc consts  --      9.3773                12.0818                 9.8282
 IR Inten    --    258.6034               486.1622                 2.5634

                     97                     98                     99
                      A                      A                      A
 Frequencies --   1671.0444              1676.3855              1693.8699
 Red. masses --      6.1372                 5.9316                 6.0617
 Frc consts  --     10.0970                 9.8213                10.2473
 IR Inten    --      5.4996               612.3999                39.7936

                    100                    101                    102
                      A                      A                      A
 Frequencies --   3062.5807              3106.9487              3138.5743
 Red. masses --      1.0327                 1.0421                 1.1079
 Frc consts  --      5.7070                 5.9271                 6.4300
 IR Inten    --     47.8245                12.2141                20.1723

                    103                    104                    105
                      A                      A                      A
 Frequencies --   3186.9466              3201.1043              3203.1891
 Red. masses --      1.1039                 1.0871                 1.0996
 Frc consts  --      6.6061                 6.5634                 6.6474
 IR Inten    --      9.9038                 0.4290                 2.0124

                    106                    107                    108
                      A                      A                      A
 Frequencies --   3204.4788              3211.1940              3219.3733
 Red. masses --      1.0892                 1.0921                 1.0955
 Frc consts  --      6.5895                 6.6350                 6.6897
 IR Inten    --      0.1555                 2.8666                12.0870

                    109                    110                    111
                      A                      A                      A
 Frequencies --   3219.9041              3220.7688              3227.2025
 Red. masses --      1.0900                 1.0917                 1.0991
 Frc consts  --      6.6585                 6.6723                 6.7445
 IR Inten    --      3.6213                 3.9702                 8.7201

                    112                    113                    114
                      A                      A                      A
 Frequencies --   3232.1180              3235.9155              3247.2208
 Red. masses --      1.0925                 1.1024                 1.0961
 Frc consts  --      6.7243                 6.8015                 6.8094
 IR Inten    --      0.6856                 1.1445                 4.6025

                    115                    116                    117
                      A                      A                      A
 Frequencies --   3263.9239              3278.9678              3291.8680
 Red. masses --      1.0924                 1.0925                 1.0926
 Frc consts  --      6.8565                 6.9205                 6.9757
 IR Inten    --      4.1044                 0.7637                 2.1665

 - Thermochemistry -
 -------------------
 Temperature   298.150 Kelvin.  Pressure   1.00000 Atm.
 Atom     1 has atomic number  6 and mass  12.00000

 Molecular mass:   300.13884 amu.
 Principal axes and moments of inertia in atomic units:
                           1         2         3
     Eigenvalues --  5176.795736513.17530**********
           X            0.99992   0.01266   0.00078
           Y           -0.01266   0.99988   0.00918
           Z           -0.00066  -0.00919   0.99996
 This molecule is an asymmetric top.
 Rotational symmetry number  1.
 Warning -- assumption of classical behavior for rotation
           may cause significant error
 Rotational temperatures (Kelvin)      0.01673     0.01330     0.00787
 Rotational constants (GHZ):           0.34862     0.27709     0.16388
 Zero-point vibrational energy     892669.2 (Joules/Mol)
                                  213.35305 (Kcal/Mol)
 Warning -- explicit consideration of  28 degrees of freedom as
           vibrations may cause significant error
 Vibrational temperatures:     32.71    66.46    86.83    96.09   119.24
          (Kelvin)            155.70   209.75   215.28   249.60   264.21
                              321.82   328.76   394.54   410.04   455.91
                              482.80   517.76   570.66   587.84   599.38
                              641.86   664.03   716.52   724.06   750.62
                              797.85   803.22   872.54   900.23   909.85
                              942.13   953.48   977.93  1007.56  1042.92
                             1090.13  1107.54  1129.38  1139.15  1160.93
                             1205.65  1222.96  1269.34  1287.19  1296.43
                             1327.77  1351.40  1385.62  1416.91  1458.19
                             1465.16  1466.26  1487.64  1495.45  1502.09
                             1525.28  1538.75  1554.29  1592.32  1616.02
                             1644.72  1651.32  1669.44  1677.90  1701.68
                             1711.20  1717.25  1733.91  1753.27  1759.40
                             1778.53  1851.40  1865.88  1883.55  1890.65
                             1933.55  1940.66  2012.40  2027.85  2055.40
                             2069.14  2091.67  2106.76  2131.94  2133.21
                             2138.09  2152.22  2166.14  2179.33  2201.25
                             2214.60  2240.13  2267.96  2332.65  2362.28
                             2371.39  2404.26  2411.94  2437.10  4406.37
                             4470.20  4515.70  4585.30  4605.67  4608.67
                             4610.52  4620.19  4631.95  4632.72  4633.96
                             4643.22  4650.29  4655.75  4672.02  4696.05
                             4717.70  4736.26

 Zero-point correction=                           0.340000 (Hartree/Particle)
 Thermal correction to Energy=                    0.358300
 Thermal correction to Enthalpy=                  0.359244
 Thermal correction to Gibbs Free Energy=         0.293013
 Sum of electronic and zero-point Energies=           -940.526852
 Sum of electronic and thermal Energies=              -940.508552
 Sum of electronic and thermal Enthalpies=            -940.507608
 Sum of electronic and thermal Free Energies=         -940.573839

                     E (Thermal)             CV                S
                      KCal/Mol        Cal/Mol-Kelvin    Cal/Mol-Kelvin
 Total                  224.837             73.528            139.395
 Electronic               0.000              0.000              0.000
 Translational            0.889              2.981             42.994
 Rotational               0.889              2.981             34.273
 Vibrational            223.059             67.566             62.128
 Vibration     1          0.593              1.985              6.380
 Vibration     2          0.595              1.979              4.974
 Vibration     3          0.597              1.973              4.446
 Vibration     4          0.598              1.970              4.246
 Vibration     5          0.600              1.961              3.822
 Vibration     6          0.606              1.943              3.301
 Vibration     7          0.617              1.907              2.727
 Vibration     8          0.618              1.903              2.677
 Vibration     9          0.627              1.875              2.397
 Vibration    10          0.631              1.862              2.291
 Vibration    11          0.649              1.805              1.929
 Vibration    12          0.651              1.798              1.891
 Vibration    13          0.677              1.721              1.569
 Vibration    14          0.683              1.702              1.504
 Vibration    15          0.704              1.641              1.326
 Vibration    16          0.717              1.604              1.233
 Vibration    17          0.734              1.555              1.123
 Vibration    18          0.763              1.477              0.975
 Vibration    19          0.773              1.452              0.932
 Vibration    20          0.780              1.434              0.904
 Vibration    21          0.805              1.369              0.808
 Vibration    22          0.819              1.335              0.762
 Vibration    23          0.853              1.254              0.663
 Vibration    24          0.859              1.243              0.650
 Vibration    25          0.877              1.202              0.606
 Vibration    26          0.910              1.130              0.535
 Vibration    27          0.914              1.122              0.527
 Vibration    28          0.965              1.018              0.439

 Optimization completed.
    -- Stationary point found.
 Normal termination of Gaussian 09 at Tue Feb 23 15:18:33 2021.
 Gaussian 09:  ES64L-G09RevE.01 30-Nov-2015

 ----------------------------------------------------------------------
 #p m062x chkbasis geom=allcheck Guess=Read int=ultrafine scrf=(SMD,sol
 vent=Acetonitrile) td=(NStates=30)
 ----------------------------------------------------------------------

 Structure from the checkpoint file:  "cp.chk"
 -----
 Title
 -----
 Charge =  1 Multiplicity = 1

                         Standard orientation:
 ---------------------------------------------------------------------
 Center     Atomic      Atomic             Coordinates (Angstroms)
 Number     Number       Type             X           Y           Z
 ---------------------------------------------------------------------
      1          6           0       -3.137174   -3.010599   -0.165286
      2          6           0       -3.400314   -1.672818   -0.086375
      3          6           0       -2.333014   -0.747961    0.008643
      4          6           0       -0.995844   -1.224556   -0.017650
      5          6           0       -0.773560   -2.629951   -0.077745
      6          6           0       -1.815049   -3.502962   -0.144314
      7          6           0        0.077455   -0.309471    0.013500
      8          6           0       -0.189148    1.063688    0.000462
      9          6           0       -1.554412    1.505247    0.017492
     10          6           0       -1.858128    2.879286   -0.068680
     11          1           0       -2.877069    3.221589   -0.126232
     12          6           0       -0.840720    3.787808   -0.131748
     13          6           0        0.509844    3.410582   -0.097872
     14          6           0        0.843034    2.082592   -0.035423
     15          1           0       -4.423387   -1.337348   -0.135868
     16          1           0        0.242402   -2.997179   -0.079459
     17          1           0       -1.634580   -4.568033   -0.196157
     18          1           0       -1.082492    4.839941   -0.215053
     19          1           0        1.273051    4.172261   -0.135659
     20          7           0       -2.562034    0.592252    0.109866
     21          6           0       -3.933982    1.073397    0.331735
     22          1           0       -3.902204    1.945009    0.975480
     23          1           0       -4.409057    1.320926   -0.617046
     24          1           0       -4.499278    0.308362    0.847121
     25          6           0        1.452964   -0.881729    0.037431
     26          6           0        2.103756   -1.178334   -1.154859
     27          6           0        2.057089   -1.175559    1.254059
     28          6           0        3.369625   -1.746765   -1.127514
     29          6           0        3.323799   -1.744135    1.276536
     30          6           0        3.983749   -2.026987    0.087280
     31          1           0        3.875945   -1.972640   -2.057608
     32          1           0        3.793921   -1.967853    2.225925
     33          1           0        1.621994   -0.957374   -2.099909
     34          1           0        1.539805   -0.953360    2.179793
     35          1           0        4.971337   -2.470125    0.106513
     36          8           0        2.101825    1.648923   -0.012329
     37          6           0        3.157959    2.601225   -0.063415
     38          1           0        3.111084    3.181769   -0.986446
     39          1           0        3.119070    3.268945    0.799251
     40          1           0        4.075529    2.019711   -0.038877
     41          1           0       -3.964017   -3.703727   -0.253728
 ---------------------------------------------------------------------

 SCF Done:  E(RM062X) =  -940.866827715     A.U. after    6 cycles

 Excitation energies and oscillator strengths:

 Excited State   1:      Singlet-A      3.0232 eV  410.10 nm  f=0.1630  <S**2>=0.000
      79 -> 80         0.70005
 This state for optimization and/or second-order correction.
 Total Energy, E(TD-HF/TD-KS) =  -940.755725371
 Copying the excited state density for this state as the 1-particle RhoCI density.

 Excited State   2:      Singlet-A      3.8119 eV  325.26 nm  f=0.0035  <S**2>=0.000
      78 -> 80         0.69266

 Excited State   3:      Singlet-A      3.9769 eV  311.76 nm  f=0.2323  <S**2>=0.000
      75 -> 80         0.12488
      76 -> 80         0.47141
      77 -> 80         0.46298
      79 -> 81         0.18392

 Excited State   4:      Singlet-A      4.1513 eV  298.66 nm  f=0.0075  <S**2>=0.000
      75 -> 80         0.58605
      76 -> 80        -0.23250
      79 -> 81         0.28074

 Excited State   5:      Singlet-A      4.3839 eV  282.82 nm  f=0.0012  <S**2>=0.000
      75 -> 80        -0.10687
      76 -> 80        -0.45278
      77 -> 80         0.52219

 Excited State   6:      Singlet-A      4.9580 eV  250.07 nm  f=1.1516  <S**2>=0.000
      75 -> 80        -0.33205
      79 -> 81         0.59694

 Excited State   7:      Singlet-A      5.4577 eV  227.17 nm  f=0.0014  <S**2>=0.000
      76 -> 83        -0.20176
      77 -> 83         0.37422
      78 -> 81        -0.30775
      78 -> 82         0.28930
      78 -> 84        -0.34740

 Excited State   8:      Singlet-A      5.6744 eV  218.50 nm  f=0.1258  <S**2>=0.000
      72 -> 80        -0.16934
      73 -> 80         0.15428
      74 -> 80         0.40829
      75 -> 81         0.12359
      75 -> 82         0.12347
      76 -> 81        -0.34433
      77 -> 81        -0.24193

 Excited State   9:      Singlet-A      5.7717 eV  214.81 nm  f=0.0080  <S**2>=0.000
      69 -> 80         0.16868
      72 -> 80         0.52795
      73 -> 80        -0.27182
      74 -> 80         0.15292
      76 -> 81        -0.12109

 Excited State  10:      Singlet-A      5.7843 eV  214.35 nm  f=0.2537  <S**2>=0.000
      73 -> 80        -0.17034
      74 -> 80         0.50468
      75 -> 81        -0.11253
      75 -> 82        -0.11385
      76 -> 81         0.28082
      77 -> 81         0.20229
      78 -> 83        -0.13146

 Excited State  11:      Singlet-A      5.8761 eV  211.00 nm  f=0.0965  <S**2>=0.000
      75 -> 85        -0.10984
      79 -> 82         0.60214
      79 -> 84         0.25365

 Excited State  12:      Singlet-A      6.0396 eV  205.29 nm  f=0.0167  <S**2>=0.000
      71 -> 80         0.15365
      76 -> 83        -0.10520
      77 -> 83         0.18131
      78 -> 81         0.58909
      78 -> 82         0.15425
      79 -> 83         0.12753

 Excited State  13:      Singlet-A      6.0973 eV  203.34 nm  f=0.0226  <S**2>=0.000
      72 -> 80         0.12807
      73 -> 80         0.21076
      75 -> 81         0.40517
      76 -> 82         0.11170
      77 -> 81         0.18538
      79 -> 82         0.11265
      79 -> 84        -0.19868
      79 -> 85         0.33049

 Excited State  14:      Singlet-A      6.1395 eV  201.94 nm  f=0.0044  <S**2>=0.000
      67 -> 80         0.21560
      69 -> 80        -0.12449
      71 -> 80         0.56821
      78 -> 81        -0.15723

 Excited State  15:      Singlet-A      6.1594 eV  201.29 nm  f=0.0365  <S**2>=0.000
      76 -> 81        -0.20435
      76 -> 82         0.10847
      76 -> 84        -0.11002
      77 -> 81         0.36273
      77 -> 82        -0.19881
      77 -> 84         0.22377
      78 -> 83         0.41029
      79 -> 84         0.12574

 Excited State  16:      Singlet-A      6.2378 eV  198.76 nm  f=0.0063  <S**2>=0.000
      79 -> 83         0.67150

 Excited State  17:      Singlet-A      6.2793 eV  197.45 nm  f=0.6620  <S**2>=0.000
      72 -> 80        -0.15021
      73 -> 80        -0.30150
      75 -> 81        -0.14697
      76 -> 81        -0.10514
      77 -> 81        -0.17720
      78 -> 83         0.23173
      79 -> 82         0.17065
      79 -> 84        -0.30100
      79 -> 85         0.33961

 Excited State  18:      Singlet-A      6.4442 eV  192.40 nm  f=0.0508  <S**2>=0.000
      72 -> 80         0.21110
      73 -> 80         0.44421
      75 -> 81        -0.34132
      77 -> 82        -0.11835
      78 -> 83         0.10500
      79 -> 84        -0.21423

 Excited State  19:      Singlet-A      6.4985 eV  190.79 nm  f=0.0994  <S**2>=0.000
      76 -> 81         0.25508
      76 -> 82         0.10137
      77 -> 81        -0.34038
      78 -> 83         0.22772
      79 -> 82        -0.14251
      79 -> 84         0.37082
      79 -> 85         0.25038

 Excited State  20:      Singlet-A      6.5605 eV  188.99 nm  f=0.0884  <S**2>=0.000
      75 -> 81        -0.24645
      76 -> 81        -0.29883
      77 -> 81         0.16179
      78 -> 83        -0.25267
      79 -> 84         0.26242
      79 -> 85         0.36451

 Excited State  21:      Singlet-A      6.6209 eV  187.26 nm  f=0.0672  <S**2>=0.000
      66 -> 80         0.19630
      67 -> 80         0.15354
      68 -> 80         0.15239
      69 -> 80         0.43630
      71 -> 80         0.11175
      76 -> 83        -0.10096
      77 -> 83         0.22464
      78 -> 82        -0.27110

 Excited State  22:      Singlet-A      6.7584 eV  183.45 nm  f=0.0069  <S**2>=0.000
      63 -> 80         0.10996
      67 -> 80         0.56831
      71 -> 80        -0.19931
      78 -> 84        -0.15699

 Excited State  23:      Singlet-A      6.8013 eV  182.30 nm  f=0.2381  <S**2>=0.000
      66 -> 80         0.16814
      69 -> 80         0.16545
      74 -> 81        -0.13214
      75 -> 81         0.15856
      75 -> 82        -0.11836
      76 -> 82        -0.21235
      76 -> 85        -0.13561
      77 -> 82        -0.26898
      77 -> 83        -0.21855
      77 -> 85        -0.11272
      78 -> 82         0.33166

 Excited State  24:      Singlet-A      6.8289 eV  181.56 nm  f=0.2653  <S**2>=0.000
      66 -> 80         0.19948
      69 -> 80         0.16122
      70 -> 80         0.14665
      74 -> 81         0.11337
      75 -> 81        -0.10580
      76 -> 82         0.18862
      76 -> 85         0.11296
      77 -> 82         0.30539
      77 -> 83        -0.25253
      78 -> 82         0.27794

 Excited State  25:      Singlet-A      6.8681 eV  180.52 nm  f=0.0639  <S**2>=0.000
      70 -> 80         0.55083
      75 -> 82        -0.10716
      76 -> 81        -0.11430
      76 -> 82        -0.22008
      77 -> 82         0.11365
      77 -> 84        -0.20828

 Excited State  26:      Singlet-A      6.9426 eV  178.58 nm  f=0.2801  <S**2>=0.000
      68 -> 80         0.16422
      70 -> 80         0.34931
      75 -> 82         0.22324
      76 -> 82         0.15014
      77 -> 82        -0.28248
      77 -> 84         0.26616
      78 -> 83        -0.26355

 Excited State  27:      Singlet-A      7.0558 eV  175.72 nm  f=0.0671  <S**2>=0.000
      66 -> 80        -0.12727
      67 -> 80         0.11205
      68 -> 80         0.37799
      75 -> 82         0.12925
      76 -> 82        -0.20335
      76 -> 84         0.11378
      77 -> 83         0.11497
      78 -> 82         0.20431
      78 -> 84         0.28570

 Excited State  28:      Singlet-A      7.0601 eV  175.61 nm  f=0.0774  <S**2>=0.000
      66 -> 80        -0.11543
      68 -> 80        -0.26723
      69 -> 80         0.16962
      76 -> 82         0.17646
      77 -> 83         0.15705
      78 -> 82         0.24578
      78 -> 84         0.40589

 Excited State  29:      Singlet-A      7.1161 eV  174.23 nm  f=0.0026  <S**2>=0.000
      76 -> 83        -0.24357
      77 -> 83        -0.10158
      79 -> 86         0.49753
      79 -> 87         0.26181
      79 -> 88         0.12622
      79 -> 89         0.11356
      79 -> 91         0.14372

 Excited State  30:      Singlet-A      7.1635 eV  173.08 nm  f=0.0351  <S**2>=0.000
      66 -> 80         0.40805
      68 -> 80        -0.11824
      69 -> 80        -0.17558
      72 -> 80         0.12804
      76 -> 83         0.26376
      77 -> 83         0.24545
      78 -> 84         0.11518
      79 -> 87         0.13297

 The electronic state is 1-A.
 Alpha  occ. eigenvalues --  -19.67483 -14.85210 -10.63669 -10.63244 -10.62875
 Alpha  occ. eigenvalues --  -10.61328 -10.59268 -10.58599 -10.58480 -10.58003
 Alpha  occ. eigenvalues --  -10.56967 -10.56701 -10.56403 -10.56369 -10.56166
 Alpha  occ. eigenvalues --  -10.55519 -10.55269 -10.54925 -10.54706 -10.54697
 Alpha  occ. eigenvalues --  -10.54505 -10.54487 -10.54307  -1.21894  -1.14149
 Alpha  occ. eigenvalues --   -1.00198  -0.99109  -0.96953  -0.93571  -0.88978
 Alpha  occ. eigenvalues --   -0.87533  -0.86856  -0.85568  -0.84984  -0.81892
 Alpha  occ. eigenvalues --   -0.80856  -0.76787  -0.75739  -0.71483  -0.69590
 Alpha  occ. eigenvalues --   -0.69441  -0.66933  -0.65587  -0.65302  -0.62477
 Alpha  occ. eigenvalues --   -0.59596  -0.58532  -0.57930  -0.57684  -0.57091
 Alpha  occ. eigenvalues --   -0.56156  -0.54953  -0.54516  -0.53098  -0.53034
 Alpha  occ. eigenvalues --   -0.52141  -0.51370  -0.50088  -0.49215  -0.48656
 Alpha  occ. eigenvalues --   -0.48296  -0.47693  -0.46730  -0.46507  -0.44830
 Alpha  occ. eigenvalues --   -0.44243  -0.43789  -0.42998  -0.42655  -0.41086
 Alpha  occ. eigenvalues --   -0.40789  -0.40156  -0.39587  -0.38292  -0.32935
 Alpha  occ. eigenvalues --   -0.32162  -0.31486  -0.30869  -0.27845
 Alpha virt. eigenvalues --   -0.08872  -0.02180   0.00902   0.01333   0.02026
 Alpha virt. eigenvalues --    0.03706   0.06646   0.06750   0.08073   0.08483
 Alpha virt. eigenvalues --    0.09061   0.09649   0.10624   0.10906   0.11443

 Mulliken charges:
               1
     1  C   -0.141250
     2  C   -0.234366
     3  C    0.120498
     4  C    0.147792
     5  C   -0.230580
     6  C   -0.185437
     7  C    0.147159
     8  C    0.151492
     9  C    0.143650
    10  C   -0.278570
    11  H    0.220731
    12  C   -0.146598
    13  C   -0.260830
    14  C    0.212671
    15  H    0.215648
    16  H    0.219861
    17  H    0.193833
    18  H    0.196725
    19  H    0.208686
    20  N   -0.008717
    21  C   -0.408428
    22  H    0.199086
    23  H    0.225271
    24  H    0.197753
    25  C   -0.061332
    26  C   -0.195594
    27  C   -0.185795
    28  C   -0.178944
    29  C   -0.182333
    30  C   -0.164119
    31  H    0.184739
    32  H    0.184839
    33  H    0.191023
    34  H    0.189484
    35  H    0.185653
    36  O   -0.276585
    37  C   -0.332225
    38  H    0.180989
    39  H    0.180771
    40  H    0.177350
    41  H    0.196001
 Sum of Mulliken charges =   1.00000

 Dipole moment (field-independent basis, Debye):
    X=             -6.0606    Y=              3.2877    Z=              0.0217  Tot=              6.8950
 Quadrupole moment (field-independent basis, Debye-Ang):
   XX=            -72.0854   YY=            -89.5783   ZZ=           -129.3138
   XY=              3.1258   XZ=             -1.2754   YZ=              0.2674

 Normal termination of Gaussian 09 at Tue Feb 23 18:26:32 2021.
