 Gaussian 09, Revision E.01,

 ----------------------------------------------------------------------
 #p m06l/def2TZVP opt freq=noraman nosymm int=ultrafine scrf=(SMD,solve
 nt=Acetonitrile)
 ----------------------------------------------------------------------

 -----
 Title
 -----
 Symbolic Z-matrix:
 Charge =  1 Multiplicity = 1

 SCF Done:  E(RM06L) =  -941.123736156     A.U. after   16 cycles
 SCF Done:  E(RM06L) =  -941.127214017     A.U. after   13 cycles
 SCF Done:  E(RM06L) =  -941.127311649     A.U. after   12 cycles
 SCF Done:  E(RM06L) =  -941.127346904     A.U. after   11 cycles
 SCF Done:  E(RM06L) =  -941.127350353     A.U. after   11 cycles
 SCF Done:  E(RM06L) =  -941.127354529     A.U. after    9 cycles
 SCF Done:  E(RM06L) =  -941.127355356     A.U. after   10 cycles
 SCF Done:  E(RM06L) =  -941.127356395     A.U. after   10 cycles
 SCF Done:  E(RM06L) =  -941.127356910     A.U. after   10 cycles
 SCF Done:  E(RM06L) =  -941.127357260     A.U. after    9 cycles
 SCF Done:  E(RM06L) =  -941.127357582     A.U. after    9 cycles
 SCF Done:  E(RM06L) =  -941.127357741     A.U. after    9 cycles
 SCF Done:  E(RM06L) =  -941.127357788     A.U. after    7 cycles
 SCF Done:  E(RM06L) =  -941.127357856     A.U. after    9 cycles
 SCF Done:  E(RM06L) =  -941.127357926     A.U. after    8 cycles
 SCF Done:  E(RM06L) =  -941.127357989     A.U. after    9 cycles
 SCF Done:  E(RM06L) =  -941.127358015     A.U. after    7 cycles
 SCF Done:  E(RM06L) =  -941.127358022     A.U. after    6 cycles
 Optimization completed.
    -- Stationary point found.
 Normal termination of Gaussian 09 at Wed Feb 17 10:45:46 2021.

 -------------------------------------------------------------------
 #P Geom=AllCheck Guess=TCheck SCRF=Check GenChk RM06L/def2TZVP Freq
 -------------------------------------------------------------------

 Structure from the checkpoint file:  "cp.chk"
 -----
 Title
 -----
 Charge =  1 Multiplicity = 1

 SCF Done:  E(RM06L) =  -941.127358022     A.U. after    1 cycles

  Exact polarizability: 486.042  30.016 515.587  -0.354   2.233 247.112
 Approx polarizability: 618.835  36.880 651.043  -0.835   3.759 303.573

                      1                      2                      3
                      A                      A                      A
 Frequencies --     12.4171                40.8496                49.1343
 Red. masses --      4.3389                 3.7770                 4.7029
 Frc consts  --      0.0004                 0.0037                 0.0067
 IR Inten    --      0.0270                 0.0709                 0.1420

                      4                      5                      6
                      A                      A                      A
 Frequencies --     59.3949                81.5359               109.4239
 Red. masses --      3.6735                 3.9856                 3.1591
 Frc consts  --      0.0076                 0.0156                 0.0223
 IR Inten    --      0.7477                 4.4394                 2.2838

                      7                      8                      9
                      A                      A                      A
 Frequencies --    142.0657               147.5707               170.9155
 Red. masses --      1.3568                 3.2052                 4.0173
 Frc consts  --      0.0161                 0.0411                 0.0691
 IR Inten    --      0.4668                 0.3569                 1.7525

                     10                     11                     12
                      A                      A                      A
 Frequencies --    176.8692               223.7155               228.0818
 Red. masses --      3.1853                 4.3616                 5.3117
 Frc consts  --      0.0587                 0.1286                 0.1628
 IR Inten    --      1.6742                 1.1538                 1.2727

                     13                     14                     15
                      A                      A                      A
 Frequencies --    271.9344               281.5244               309.7574
 Red. masses --      4.1603                 2.0199                 1.6876
 Frc consts  --      0.1813                 0.0943                 0.0954
 IR Inten    --      0.3114                 0.4422                 0.1637

                     16                     17                     18
                      A                      A                      A
 Frequencies --    334.6519               359.7791               393.7930
 Red. masses --      3.7987                 4.9870                 4.8005
 Frc consts  --      0.2507                 0.3803                 0.4386
 IR Inten    --      3.3387                 6.8378                 2.0177

                     19                     20                     21
                      A                      A                      A
 Frequencies --    406.0176               416.5211               443.1068
 Red. masses --      2.9718                 6.3638                 2.7172
 Frc consts  --      0.2886                 0.6505                 0.3143
 IR Inten    --      0.1662                 6.5923                 1.1326

                     22                     23                     24
                      A                      A                      A
 Frequencies --    460.2681               499.5634               504.3907
 Red. masses --      3.1247                 4.4390                 4.6355
 Frc consts  --      0.3900                 0.6527                 0.6948
 IR Inten    --      3.3347                 2.4822                 4.0436

                     25                     26                     27
                      A                      A                      A
 Frequencies --    519.9206               549.3339               556.5738
 Red. masses --      3.6133                 3.4389                 5.6308
 Frc consts  --      0.5755                 0.6114                 1.0277
 IR Inten    --      2.1082                 7.0158                 5.3347

                     28                     29                     30
                      A                      A                      A
 Frequencies --    608.2303               626.8050               632.2221
 Red. masses --      5.4656                 6.1383                 4.4310
 Frc consts  --      1.1913                 1.4209                 1.0435
 IR Inten    --     34.0061                 0.1041                20.1577

                     31                     32                     33
                      A                      A                      A
 Frequencies --    651.1621               658.7494               678.1962
 Red. masses --      4.5473                 4.8604                 5.2722
 Frc consts  --      1.1360                 1.2427                 1.4287
 IR Inten    --      9.1676                 4.9864                47.8123

                     34                     35                     36
                      A                      A                      A
 Frequencies --    694.9895               719.5377               756.9881
 Red. masses --      3.3975                 1.4844                 5.3341
 Frc consts  --      0.9669                 0.4528                 1.8009
 IR Inten    --     27.3955                89.7055                31.6296

                     37                     38                     39
                      A                      A                      A
 Frequencies --    764.9263               774.0737               781.6598
 Red. masses --      1.8595                 1.5814                 2.4387
 Frc consts  --      0.6410                 0.5583                 0.8779
 IR Inten    --     46.1271                43.5174                34.3113

                     40                     41                     42
                      A                      A                      A
 Frequencies --    796.9682               832.7108               845.2022
 Red. masses --      2.1188                 4.4713                 3.7253
 Frc consts  --      0.7929                 1.8267                 1.5679
 IR Inten    --     93.4135                 8.8380                 7.2446

                     43                     44                     45
                      A                      A                      A
 Frequencies --    863.7933               873.1077               883.9229
 Red. masses --      1.2545                 1.4658                 2.0363
 Frc consts  --      0.5515                 0.6584                 0.9374
 IR Inten    --      0.0806                 3.9124                 2.4296

                     46                     47                     48
                      A                      A                      A
 Frequencies --    918.5119               937.8636               950.9014
 Red. masses --      1.9819                 5.0791                 2.9991
 Frc consts  --      0.9852                 2.6322                 1.5978
 IR Inten    --      5.3638                16.6575                 8.1347

                     49                     50                     51
                      A                      A                      A
 Frequencies --    970.5566               990.2488               995.3115
 Red. masses --      4.6517                 1.3479                 1.3760
 Frc consts  --      2.5817                 0.7787                 0.8032
 IR Inten    --     16.2025                 1.1051                 0.1266

                     52                     53                     54
                      A                      A                      A
 Frequencies --   1005.9077              1016.8787              1019.1784
 Red. masses --      1.3258                 1.3120                 5.7693
 Frc consts  --      0.7904                 0.7993                 3.5308
 IR Inten    --      2.2650                 0.8356                 3.1734

                     55                     56                     57
                      A                      A                      A
 Frequencies --   1022.3493              1055.2579              1057.7525
 Red. masses --      1.3386                 3.7923                 2.9303
 Frc consts  --      0.8243                 2.4881                 1.9316
 IR Inten    --      0.4269                38.8562                49.8089

                     58                     59                     60
                      A                      A                      A
 Frequencies --   1074.1729              1103.6547              1118.2755
 Red. masses --      2.1908                 1.5413                 2.6042
 Frc consts  --      1.4894                 1.1061                 1.9187
 IR Inten    --     11.1855                13.3349               206.3820

                     61                     62                     63
                      A                      A                      A
 Frequencies --   1127.6693              1138.7682              1159.5796
 Red. masses --      1.3715                 2.1753                 1.5808
 Frc consts  --      1.0276                 1.6620                 1.2524
 IR Inten    --      8.3778                15.7057                 8.8820

                     64                     65                     66
                      A                      A                      A
 Frequencies --   1163.3961              1170.6360              1185.2983
 Red. masses --      1.2815                 1.0768                 1.2608
 Frc consts  --      1.0220                 0.8695                 1.0436
 IR Inten    --      2.0666                 0.0013                11.3405

                     67                     68                     69
                      A                      A                      A
 Frequencies --   1195.1098              1198.0189              1204.2104
 Red. masses --      1.1266                 1.2981                 1.4909
 Frc consts  --      0.9481                 1.0977                 1.2738
 IR Inten    --      0.3421                75.0230                53.5583

                     70                     71                     72
                      A                      A                      A
 Frequencies --   1216.1909              1232.0206              1285.4025
 Red. masses --      2.1622                 1.5213                 2.5318
 Frc consts  --      1.8843                 1.3605                 2.4647
 IR Inten    --      3.6421                 5.7786               530.4597

                     73                     74                     75
                      A                      A                      A
 Frequencies --   1304.4270              1329.8009              1330.5161
 Red. masses --      1.7373                 3.5020                 1.9157
 Frc consts  --      1.7417                 3.6487                 1.9981
 IR Inten    --     38.6245               161.3337                 0.0571

                     76                     77                     78
                      A                      A                      A
 Frequencies --   1341.9728              1362.6813              1397.3762
 Red. masses --      3.8717                 2.8544                 4.6386
 Frc consts  --      4.1081                 3.1228                 5.3366
 IR Inten    --      2.5464                 0.0090               115.3604

                     79                     80                     81
                      A                      A                      A
 Frequencies --   1406.1246              1416.5759              1438.8199
 Red. masses --      4.1593                 2.8704                 3.0413
 Frc consts  --      4.8452                 3.3937                 3.7095
 IR Inten    --     73.5308                13.3205                45.2362

                     82                     83                     84
                      A                      A                      A
 Frequencies --   1445.7515              1458.2838              1469.5542
 Red. masses --      1.3107                 1.6201                 1.3967
 Frc consts  --      1.6142                 2.0299                 1.7771
 IR Inten    --    136.4919                 2.4133                35.4457

                     85                     86                     87
                      A                      A                      A
 Frequencies --   1472.7601              1475.7508              1479.2748
 Red. masses --      2.2484                 1.2839                 1.0790
 Frc consts  --      2.8734                 1.6474                 1.3911
 IR Inten    --      6.1126                29.2303                16.0519

                     88                     89                     90
                      A                      A                      A
 Frequencies --   1485.5764              1505.5448              1514.0257
 Red. masses --      1.2619                 2.2177                 1.3354
 Frc consts  --      1.6408                 2.9617                 1.8036
 IR Inten    --     60.5355               282.0528                46.5664

                     91                     92                     93
                      A                      A                      A
 Frequencies --   1526.8591              1544.9717              1555.5254
 Red. masses --      2.0748                 2.4117                 4.5090
 Frc consts  --      2.8498                 3.3917                 6.4282
 IR Inten    --      7.2693                76.1402               484.9974

                     94                     95                     96
                      A                      A                      A
 Frequencies --   1601.8111              1618.7564              1623.7484
 Red. masses --      5.5791                 6.8316                 5.7369
 Frc consts  --      8.4340                10.5471                 8.9118
 IR Inten    --     97.4445               361.6985                 2.3711

                     97                     98                     99
                      A                      A                      A
 Frequencies --   1647.4900              1649.8040              1668.3963
 Red. masses --      5.6643                 5.9044                 5.9952
 Frc consts  --      9.0583                 9.4688                 9.8323
 IR Inten    --    579.8796                 6.0115                47.3340

                    100                    101                    102
                      A                      A                      A
 Frequencies --   3041.4210              3089.9324              3135.3436
 Red. masses --      1.0324                 1.0405                 1.1081
 Frc consts  --      5.6268                 5.8529                 6.4183
 IR Inten    --     75.2693                21.2157                22.1642

                    103                    104                    105
                      A                      A                      A
 Frequencies --   3179.8060              3183.7921              3186.1453
 Red. masses --      1.0853                 1.0875                 1.1048
 Frc consts  --      6.4656                 6.4951                 6.6078
 IR Inten    --      1.5450                 0.6668                 7.8526

                    106                    107                    108
                      A                      A                      A
 Frequencies --   3192.0000              3192.2883              3198.5589
 Red. masses --      1.0912                 1.1017                 1.0881
 Frc consts  --      6.5504                 6.6146                 6.5590
 IR Inten    --      5.9905                 3.8678                 5.9123

                    109                    110                    111
                      A                      A                      A
 Frequencies --   3198.8456              3200.5140              3208.3803
 Red. masses --      1.0954                 1.0905                 1.0989
 Frc consts  --      6.6039                 6.5816                 6.6646
 IR Inten    --     34.0299                 9.3717                18.9963

                    112                    113                    114
                      A                      A                      A
 Frequencies --   3211.0618              3223.7982              3231.7247
 Red. masses --      1.0910                 1.0960                 1.1025
 Frc consts  --      6.6279                 6.7109                 6.7840
 IR Inten    --      4.1761                12.1169                 0.7394

                    115                    116                    117
                      A                      A                      A
 Frequencies --   3243.4753              3257.4250              3269.4162
 Red. masses --      1.0917                 1.0915                 1.0916
 Frc consts  --      6.7665                 6.8238                 6.8747
 IR Inten    --      2.5483                 1.1810                 0.0992

 - Thermochemistry -
 -------------------
 Temperature   298.150 Kelvin.  Pressure   1.00000 Atm.
 Atom     1 has atomic number  6 and mass  12.00000

 Molecular mass:   300.13884 amu.
 Principal axes and moments of inertia in atomic units:
                           1         2         3
     Eigenvalues --  5169.352976517.83174**********
           X            0.99996   0.00919  -0.00041
           Y           -0.00919   0.99995   0.00461
           Z            0.00045  -0.00461   0.99999
 This molecule is an asymmetric top.
 Rotational symmetry number  1.
 Warning -- assumption of classical behavior for rotation
           may cause significant error
 Rotational temperatures (Kelvin)      0.01676     0.01329     0.00787
 Rotational constants (GHZ):           0.34912     0.27689     0.16389
 Zero-point vibrational energy     886562.0 (Joules/Mol)
                                  211.89339 (Kcal/Mol)
 Warning -- explicit consideration of  28 degrees of freedom as
           vibrations may cause significant error
 Vibrational temperatures:     17.87    58.77    70.69    85.46   117.31
          (Kelvin)            157.44   204.40   212.32   245.91   254.48
                              321.88   328.16   391.25   405.05   445.67
                              481.49   517.64   566.58   584.17   599.28
                              637.53   662.22   718.76   725.70   748.05
                              790.37   800.78   875.11   901.83   909.63
                              936.88   947.79   975.77   999.93  1035.25
                             1089.14  1100.56  1113.72  1124.63  1146.66
                             1198.08  1216.06  1242.80  1256.21  1271.77
                             1321.53  1349.37  1368.13  1396.41  1424.75
                             1432.03  1447.28  1463.06  1466.37  1470.93
                             1518.28  1521.87  1545.49  1587.91  1608.95
                             1622.46  1638.43  1668.37  1673.87  1684.28
                             1705.38  1719.49  1723.68  1732.59  1749.83
                             1772.60  1849.41  1876.78  1913.28  1914.31
                             1930.80  1960.59  2010.51  2023.10  2038.13
                             2070.14  2080.11  2098.14  2114.36  2118.97
                             2123.27  2128.34  2137.41  2166.14  2178.34
                             2196.81  2222.87  2238.05  2304.65  2329.03
                             2336.21  2370.37  2373.70  2400.45  4375.92
                             4445.72  4511.05  4575.03  4580.76  4584.15
                             4592.57  4592.99  4602.01  4602.42  4604.82
                             4616.14  4620.00  4638.32  4649.73  4666.63
                             4686.70  4703.95

 Zero-point correction=                           0.337674 (Hartree/Particle)
 Thermal correction to Energy=                    0.356168
 Thermal correction to Enthalpy=                  0.357112
 Thermal correction to Gibbs Free Energy=         0.289661
 Sum of electronic and zero-point Energies=           -940.789684
 Sum of electronic and thermal Energies=              -940.771190
 Sum of electronic and thermal Enthalpies=            -940.770246
 Sum of electronic and thermal Free Energies=         -940.837697

                     E (Thermal)             CV                S
                      KCal/Mol        Cal/Mol-Kelvin    Cal/Mol-Kelvin
 Total                  223.499             74.094            141.963
 Electronic               0.000              0.000              0.000
 Translational            0.889              2.981             42.994
 Rotational               0.889              2.981             34.272
 Vibrational            221.722             68.132             64.697
 Vibration     1          0.593              1.987              7.581
 Vibration     2          0.594              1.981              5.217
 Vibration     3          0.595              1.978              4.852
 Vibration     4          0.597              1.974              4.477
 Vibration     5          0.600              1.962              3.854
 Vibration     6          0.606              1.942              3.279
 Vibration     7          0.616              1.911              2.776
 Vibration     8          0.617              1.905              2.703
 Vibration     9          0.626              1.878              2.425
 Vibration    10          0.628              1.871              2.361
 Vibration    11          0.649              1.805              1.929
 Vibration    12          0.651              1.798              1.894
 Vibration    13          0.675              1.725              1.584
 Vibration    14          0.681              1.708              1.524
 Vibration    15          0.699              1.655              1.364
 Vibration    16          0.716              1.606              1.238
 Vibration    17          0.734              1.555              1.123
 Vibration    18          0.761              1.483              0.986
 Vibration    19          0.771              1.457              0.941
 Vibration    20          0.780              1.434              0.904
 Vibration    21          0.803              1.376              0.817
 Vibration    22          0.818              1.338              0.765
 Vibration    23          0.855              1.251              0.659
 Vibration    24          0.860              1.240              0.647
 Vibration    25          0.875              1.206              0.610
 Vibration    26          0.905              1.141              0.546
 Vibration    27          0.912              1.125              0.531
 Vibration    28          0.967              1.014              0.436

 Optimization completed.
    -- Stationary point found.
 Normal termination of Gaussian 09 at Wed Feb 17 13:56:25 2021.
 Gaussian 09:  ES64L-G09RevE.01 30-Nov-2015

 ----------------------------------------------------------------------
 #p m06l chkbasis geom=allcheck Guess=Read int=ultrafine scrf=(SMD,solv
 ent=Acetonitrile) td=(NStates=30)
 ----------------------------------------------------------------------

 Structure from the checkpoint file:  "cp.chk"
 -----
 Title
 -----
 Charge =  1 Multiplicity = 1

                         Standard orientation:
 ---------------------------------------------------------------------
 Center     Atomic      Atomic             Coordinates (Angstroms)
 Number     Number       Type             X           Y           Z
 ---------------------------------------------------------------------
      1          6           0       -3.147692   -3.005623   -0.160493
      2          6           0       -3.403827   -1.662852   -0.083856
      3          6           0       -2.341619   -0.744166    0.005008
      4          6           0       -1.001478   -1.223639   -0.021942
      5          6           0       -0.788930   -2.623565   -0.079625
      6          6           0       -1.834064   -3.497594   -0.143435
      7          6           0        0.077418   -0.314610    0.009146
      8          6           0       -0.183551    1.060345   -0.002732
      9          6           0       -1.547950    1.513828    0.020870
     10          6           0       -1.842263    2.881587   -0.047652
     11          1           0       -2.861027    3.226397   -0.087874
     12          6           0       -0.820969    3.792981   -0.108946
     13          6           0        0.518125    3.409101   -0.095345
     14          6           0        0.846119    2.074117   -0.046648
     15          1           0       -4.425445   -1.321961   -0.123798
     16          1           0        0.226728   -2.992081   -0.081952
     17          1           0       -1.653073   -4.562521   -0.193129
     18          1           0       -1.061719    4.846168   -0.176182
     19          1           0        1.291153    4.160705   -0.136330
     20          7           0       -2.564943    0.600438    0.108665
     21          6           0       -3.928316    1.090036    0.319495
     22          1           0       -3.903164    1.944150    0.986084
     23          1           0       -4.390384    1.376035   -0.624074
     24          1           0       -4.520084    0.321791    0.797089
     25          6           0        1.445355   -0.889511    0.040483
     26          6           0        2.094529   -1.226435   -1.143562
     27          6           0        2.064183   -1.144184    1.260354
     28          6           0        3.361385   -1.787613   -1.105904
     29          6           0        3.330467   -1.707942    1.292491
     30          6           0        3.984250   -2.027103    0.110941
     31          1           0        3.861397   -2.041502   -2.032148
     32          1           0        3.805887   -1.900097    2.246143
     33          1           0        1.607368   -1.038163   -2.092705
     34          1           0        1.554572   -0.892029    2.182410
     35          1           0        4.973390   -2.466062    0.138293
     36          8           0        2.104311    1.635011   -0.048756
     37          6           0        3.162041    2.586012   -0.110676
     38          1           0        3.107595    3.177095   -1.026182
     39          1           0        3.147033    3.249557    0.755440
     40          1           0        4.079347    2.004459   -0.107151
     41          1           0       -3.978726   -3.694115   -0.242368
 ---------------------------------------------------------------------

 SCF Done:  E(RM06L) =  -941.127345639     A.U. after    6 cycles

 Excitation energies and oscillator strengths:

 Excited State   1:      Singlet-A      2.4534 eV  505.35 nm  f=0.0905  <S**2>=0.000
      79 -> 80         0.69840
 This state for optimization and/or second-order correction.
 Total Energy, E(TD-HF/TD-KS) =  -941.037183134
 Copying the excited state density for this state as the 1-particle RhoCI density.

 Excited State   2:      Singlet-A      2.7758 eV  446.66 nm  f=0.0003  <S**2>=0.000
      78 -> 80         0.70700

 Excited State   3:      Singlet-A      3.0180 eV  410.82 nm  f=0.0052  <S**2>=0.000
      76 -> 80         0.15536
      77 -> 80         0.68603

 Excited State   4:      Singlet-A      3.3727 eV  367.61 nm  f=0.0378  <S**2>=0.000
      76 -> 80         0.67007
      77 -> 80        -0.14408

 Excited State   5:      Singlet-A      3.7531 eV  330.35 nm  f=0.0775  <S**2>=0.000
      75 -> 80         0.59193
      79 -> 81         0.36602

 Excited State   6:      Singlet-A      4.3321 eV  286.20 nm  f=0.6778  <S**2>=0.000
      75 -> 80        -0.31529
      76 -> 81         0.16742
      79 -> 81         0.55887
      79 -> 84         0.15915

 Excited State   7:      Singlet-A      4.5266 eV  273.90 nm  f=0.0029  <S**2>=0.000
      78 -> 81         0.70287

 Excited State   8:      Singlet-A      4.6203 eV  268.35 nm  f=0.0308  <S**2>=0.000
      73 -> 80        -0.12973
      79 -> 82         0.58761
      79 -> 83        -0.26953
      79 -> 84        -0.16989

 Excited State   9:      Singlet-A      4.6494 eV  266.67 nm  f=0.0087  <S**2>=0.000
      79 -> 82         0.22188
      79 -> 83         0.65050
      79 -> 84        -0.11618

 Excited State  10:      Singlet-A      4.7233 eV  262.49 nm  f=0.0362  <S**2>=0.000
      70 -> 80         0.16439
      74 -> 80         0.56651
      77 -> 81        -0.28491
      79 -> 84        -0.19290

 Excited State  11:      Singlet-A      4.7735 eV  259.74 nm  f=0.0228  <S**2>=0.000
      73 -> 80         0.14221
      74 -> 80         0.21372
      76 -> 81         0.19318
      77 -> 81         0.59134
      79 -> 84        -0.15511

 Excited State  12:      Singlet-A      4.8521 eV  255.53 nm  f=0.0301  <S**2>=0.000
      72 -> 80         0.51691
      74 -> 80        -0.13337
      76 -> 81         0.12279
      79 -> 82        -0.12069
      79 -> 84        -0.38127
      79 -> 85        -0.11386

 Excited State  13:      Singlet-A      4.8576 eV  255.24 nm  f=0.0165  <S**2>=0.000
      71 -> 80         0.10436
      72 -> 80         0.44797
      73 -> 80         0.24506
      74 -> 80         0.15837
      76 -> 81        -0.16030
      79 -> 82         0.16634
      79 -> 84         0.34851

 Excited State  14:      Singlet-A      4.8836 eV  253.88 nm  f=0.0869  <S**2>=0.000
      70 -> 80        -0.10536
      71 -> 80         0.32396
      72 -> 80        -0.17590
      73 -> 80         0.49856
      77 -> 81        -0.12993
      79 -> 84        -0.18999
      79 -> 85        -0.11997

 Excited State  15:      Singlet-A      4.9402 eV  250.97 nm  f=0.0337  <S**2>=0.000
      71 -> 80         0.61469
      73 -> 80        -0.29330

 Excited State  16:      Singlet-A      5.1396 eV  241.23 nm  f=0.3959  <S**2>=0.000
      70 -> 80        -0.44137
      75 -> 80         0.12800
      76 -> 81         0.45006
      79 -> 84         0.15233

 Excited State  17:      Singlet-A      5.1610 eV  240.23 nm  f=0.0015  <S**2>=0.000
      77 -> 83         0.13961
      78 -> 82         0.67809
      78 -> 84         0.11682

 Excited State  18:      Singlet-A      5.2738 eV  235.09 nm  f=0.1701  <S**2>=0.000
      70 -> 80         0.44255
      73 -> 80         0.10106
      74 -> 80        -0.14038
      75 -> 81         0.20495
      75 -> 82         0.17581
      76 -> 81         0.34761
      79 -> 86        -0.14718

 Excited State  19:      Singlet-A      5.3771 eV  230.58 nm  f=0.0001  <S**2>=0.000
      77 -> 82         0.13953
      77 -> 83        -0.42148
      78 -> 84         0.54109

 Excited State  20:      Singlet-A      5.4170 eV  228.88 nm  f=0.0063  <S**2>=0.000
      76 -> 82         0.16578
      77 -> 82         0.60978
      77 -> 83         0.11949
      77 -> 84         0.23552

 Excited State  21:      Singlet-A      5.4912 eV  225.79 nm  f=0.0145  <S**2>=0.000
      68 -> 80        -0.34194
      69 -> 80         0.54709
      79 -> 85         0.23404

 Excited State  22:      Singlet-A      5.5168 eV  224.74 nm  f=0.0382  <S**2>=0.000
      68 -> 80         0.42243
      76 -> 82         0.15522
      76 -> 85        -0.13052
      79 -> 84        -0.12242
      79 -> 85         0.46197

 Excited State  23:      Singlet-A      5.5987 eV  221.45 nm  f=0.0005  <S**2>=0.000
      76 -> 82        -0.14783
      76 -> 83         0.64962
      77 -> 83        -0.19187

 Excited State  24:      Singlet-A      5.6200 eV  220.61 nm  f=0.0149  <S**2>=0.000
      68 -> 80        -0.25057
      69 -> 80        -0.19669
      75 -> 82         0.10901
      76 -> 82         0.42183
      76 -> 83         0.16055
      76 -> 84        -0.33891
      77 -> 82        -0.12247
      77 -> 84         0.15803

 Excited State  25:      Singlet-A      5.6477 eV  219.53 nm  f=0.1145  <S**2>=0.000
      68 -> 80         0.10378
      70 -> 80        -0.11231
      75 -> 81         0.48655
      75 -> 82        -0.23659
      76 -> 84        -0.28966
      77 -> 84         0.15094
      79 -> 86        -0.12359

 Excited State  26:      Singlet-A      5.6949 eV  217.71 nm  f=0.1112  <S**2>=0.000
      68 -> 80         0.32252
      69 -> 80         0.33843
      74 -> 80        -0.10977
      75 -> 81        -0.23837
      76 -> 84        -0.26157
      77 -> 84         0.14650
      78 -> 83         0.13122
      79 -> 85        -0.18654
      79 -> 86         0.12544

 Excited State  27:      Singlet-A      5.7331 eV  216.26 nm  f=0.0027  <S**2>=0.000
      67 -> 80         0.69606

 Excited State  28:      Singlet-A      5.7728 eV  214.77 nm  f=0.0019  <S**2>=0.000
      78 -> 85         0.68087

 Excited State  29:      Singlet-A      5.8481 eV  212.01 nm  f=0.0022  <S**2>=0.000
      66 -> 80         0.70165

 Excited State  30:      Singlet-A      5.8802 eV  210.85 nm  f=0.0142  <S**2>=0.000
      75 -> 81         0.10755
      75 -> 82         0.37676
      76 -> 82        -0.20776
      76 -> 84        -0.26494
      78 -> 83        -0.19203
      79 -> 86         0.36143

 The electronic state is 1-A.
 Alpha  occ. eigenvalues --  -19.01926 -14.27144 -10.13982 -10.13228 -10.13023
 Alpha  occ. eigenvalues --  -10.11381 -10.10088 -10.09806 -10.09077 -10.09063
 Alpha  occ. eigenvalues --  -10.07446 -10.07302 -10.07158 -10.06963 -10.06802
 Alpha  occ. eigenvalues --  -10.06313 -10.05885 -10.05714 -10.05444 -10.05444
 Alpha  occ. eigenvalues --  -10.05295 -10.05288 -10.05100  -1.06704  -0.98716
 Alpha  occ. eigenvalues --   -0.85778  -0.84693  -0.82720  -0.79597  -0.75323
 Alpha  occ. eigenvalues --   -0.74183  -0.73410  -0.72325  -0.71745  -0.68811
 Alpha  occ. eigenvalues --   -0.67975  -0.64432  -0.63107  -0.59466  -0.57618
 Alpha  occ. eigenvalues --   -0.57564  -0.55348  -0.53894  -0.53785  -0.50906
 Alpha  occ. eigenvalues --   -0.48393  -0.47641  -0.46691  -0.46192  -0.45829
 Alpha  occ. eigenvalues --   -0.44328  -0.44249  -0.43926  -0.42665  -0.42249
 Alpha  occ. eigenvalues --   -0.41577  -0.41036  -0.39750  -0.38778  -0.38421
 Alpha  occ. eigenvalues --   -0.38123  -0.37558  -0.36670  -0.36476  -0.34761
 Alpha  occ. eigenvalues --   -0.34484  -0.34069  -0.33267  -0.33056  -0.31718
 Alpha  occ. eigenvalues --   -0.31090  -0.30814  -0.30265  -0.29484  -0.25642
 Alpha  occ. eigenvalues --   -0.24453  -0.24015  -0.23211  -0.20892
 Alpha virt. eigenvalues --   -0.12999  -0.06604  -0.04295  -0.03828  -0.03446
 Alpha virt. eigenvalues --   -0.01937   0.00546   0.04731   0.05293   0.05943
 Alpha virt. eigenvalues --    0.06277   0.06654   0.07932   0.08473   0.08845

 Mulliken charges:
               1
     1  C    0.041950
     2  C   -0.279689
     3  C    0.306147
     4  C   -0.002709
     5  C   -0.044921
     6  C   -0.167965
     7  C    0.542981
     8  C   -0.027291
     9  C    0.361824
    10  C   -0.362987
    11  H    0.120052
    12  C    0.032359
    13  C   -0.299451
    14  C    0.511988
    15  H    0.120268
    16  H    0.152625
    17  H    0.097000
    18  H    0.107028
    19  H    0.112925
    20  N   -0.271062
    21  C   -0.107963
    22  H    0.116503
    23  H    0.131171
    24  H    0.119421
    25  C    0.144226
    26  C   -0.315246
    27  C   -0.307220
    28  C   -0.092619
    29  C   -0.084074
    30  C   -0.068952
    31  H    0.090805
    32  H    0.091255
    33  H    0.102218
    34  H    0.096430
    35  H    0.095929
    36  O   -0.442796
    37  C   -0.020766
    38  H    0.098287
    39  H    0.098094
    40  H    0.096976
    41  H    0.107249
 Sum of Mulliken charges =   1.00000

 Dipole moment (field-independent basis, Debye):
    X=             -5.6098    Y=              3.2856    Z=              0.0260  Tot=              6.5012
 Quadrupole moment (field-independent basis, Debye-Ang):
   XX=            -75.0046   YY=            -91.5840   ZZ=           -127.4143
   XY=              4.1330   XZ=             -1.3184   YZ=              0.4530

 Normal termination of Gaussian 09 at Wed Feb 17 16:58:16 2021.
