                         Program Version 5.0.2 -  RELEASE  -
|  1> %maxcore 20000
|  2> %pal
|  3>  nprocs= 4
|  4> end
|  5> ! RI-wPBEPP86   def2-TZVP def2/J def2-TZVP/C RIJCOSX CPCM TightSCF
|  6> %TDDFT
|  7>    NROOTS   30
|  8>    dcorr 1
|  9>    TDA      FALSE
| 10> END
| 11>
| 12> %CPCM
| 13>    SMD          TRUE
| 14>    SMDsolvent   "ACETONITRILE"
| 15> END
| 16>
| 17>
| 18> * xyz 1 1
| 19> C                  -3.14769200   -3.00562300   -0.16049300
| 20> C                  -3.40382700   -1.66285200   -0.08385600
| 21> C                  -2.34161900   -0.74416600    0.00500800
| 22> C                  -1.00147800   -1.22363900   -0.02194200
| 23> C                  -0.78893000   -2.62356500   -0.07962500
| 24> C                  -1.83406400   -3.49759400   -0.14343500
| 25> C                   0.07741800   -0.31461000    0.00914600
| 26> C                  -0.18355100    1.06034500   -0.00273200
| 27> C                  -1.54795000    1.51382800    0.02087000
| 28> C                  -1.84226300    2.88158700   -0.04765200
| 29> H                  -2.86102700    3.22639700   -0.08787400
| 30> C                  -0.82096900    3.79298100   -0.10894600
| 31> C                   0.51812500    3.40910100   -0.09534500
| 32> C                   0.84611900    2.07411700   -0.04664800
| 33> H                  -4.42544500   -1.32196100   -0.12379800
| 34> H                   0.22672800   -2.99208100   -0.08195200
| 35> H                  -1.65307300   -4.56252100   -0.19312900
| 36> H                  -1.06171900    4.84616800   -0.17618200
| 37> H                   1.29115300    4.16070500   -0.13633000
| 38> N                  -2.56494300    0.60043800    0.10866500
| 39> C                  -3.92831600    1.09003600    0.31949500
| 40> H                  -3.90316400    1.94415000    0.98608400
| 41> H                  -4.39038400    1.37603500   -0.62407400
| 42> H                  -4.52008400    0.32179100    0.79708900
| 43> C                   1.44535500   -0.88951100    0.04048300
| 44> C                   2.09452900   -1.22643500   -1.14356200
| 45> C                   2.06418300   -1.14418400    1.26035400
| 46> C                   3.36138500   -1.78761300   -1.10590400
| 47> C                   3.33046700   -1.70794200    1.29249100
| 48> C                   3.98425000   -2.02710300    0.11094100
| 49> H                   3.86139700   -2.04150200   -2.03214800
| 50> H                   3.80588700   -1.90009700    2.24614300
| 51> H                   1.60736800   -1.03816300   -2.09270500
| 52> H                   1.55457200   -0.89202900    2.18241000
| 53> H                   4.97339000   -2.46606200    0.13829300
| 54> O                   2.10431100    1.63501100   -0.04875600
| 55> C                   3.16204100    2.58601200   -0.11067600
| 56> H                   3.10759500    3.17709500   -1.02618200
| 57> H                   3.14703300    3.24955700    0.75544000
| 58> H                   4.07934700    2.00445900   -0.10715100
| 59> H                  -3.97872600   -3.69411500   -0.24236800
| 60> *
| 61>
| 62>
| 63>                          ****END OF INPUT****

CARTESIAN COORDINATES (ANGSTROEM)
---------------------------------
  C     -3.147692   -3.005623   -0.160493
  C     -3.403827   -1.662852   -0.083856
  C     -2.341619   -0.744166    0.005008
  C     -1.001478   -1.223639   -0.021942
  C     -0.788930   -2.623565   -0.079625
  C     -1.834064   -3.497594   -0.143435
  C      0.077418   -0.314610    0.009146
  C     -0.183551    1.060345   -0.002732
  C     -1.547950    1.513828    0.020870
  C     -1.842263    2.881587   -0.047652
  H     -2.861027    3.226397   -0.087874
  C     -0.820969    3.792981   -0.108946
  C      0.518125    3.409101   -0.095345
  C      0.846119    2.074117   -0.046648
  H     -4.425445   -1.321961   -0.123798
  H      0.226728   -2.992081   -0.081952
  H     -1.653073   -4.562521   -0.193129
  H     -1.061719    4.846168   -0.176182
  H      1.291153    4.160705   -0.136330
  N     -2.564943    0.600438    0.108665
  C     -3.928316    1.090036    0.319495
  H     -3.903164    1.944150    0.986084
  H     -4.390384    1.376035   -0.624074
  H     -4.520084    0.321791    0.797089
  C      1.445355   -0.889511    0.040483
  C      2.094529   -1.226435   -1.143562
  C      2.064183   -1.144184    1.260354
  C      3.361385   -1.787613   -1.105904
  C      3.330467   -1.707942    1.292491
  C      3.984250   -2.027103    0.110941
  H      3.861397   -2.041502   -2.032148
  H      3.805887   -1.900097    2.246143
  H      1.607368   -1.038163   -2.092705
  H      1.554572   -0.892029    2.182410
  H      4.973390   -2.466062    0.138293
  O      2.104311    1.635011   -0.048756
  C      3.162041    2.586012   -0.110676
  H      3.107595    3.177095   -1.026182
  H      3.147033    3.249557    0.755440
  H      4.079347    2.004459   -0.107151
  H     -3.978726   -3.694115   -0.242368

 Total Charge           Charge          ....    1
 Multiplicity           Mult            ....    1
 Number of Electrons    NEL             ....  158
 Basis Dimension        Dim             ....  821

ORBITAL ENERGIES
----------------

  NO   OCC          E(Eh)            E(eV)
   0   2.0000     -20.106843      -547.1350
   1   2.0000     -15.231962      -414.4828
   2   2.0000     -10.970724      -298.5286
   3   2.0000     -10.965431      -298.3846
   4   2.0000     -10.960566      -298.2522
   5   2.0000     -10.952061      -298.0207
   6   2.0000     -10.917972      -297.0931
   7   2.0000     -10.910041      -296.8773
   8   2.0000     -10.909767      -296.8699
   9   2.0000     -10.901425      -296.6429
  10   2.0000     -10.900715      -296.6235
  11   2.0000     -10.896797      -296.5169
  12   2.0000     -10.893206      -296.4192
  13   2.0000     -10.892695      -296.4053
  14   2.0000     -10.884623      -296.1856
  15   2.0000     -10.878970      -296.0318
  16   2.0000     -10.874900      -295.9211
  17   2.0000     -10.874286      -295.9044
  18   2.0000     -10.874211      -295.9023
  19   2.0000     -10.872590      -295.8582
  20   2.0000     -10.871726      -295.8347
  21   2.0000     -10.871410      -295.8261
  22   2.0000     -10.869827      -295.7830
  23   2.0000      -1.359334       -36.9894
  24   2.0000      -1.276228       -34.7279
  25   2.0000      -1.134806       -30.8796
  26   2.0000      -1.121826       -30.5264
  27   2.0000      -1.100294       -29.9405
  28   2.0000      -1.063096       -28.9283
  29   2.0000      -1.008714       -27.4485
  30   2.0000      -0.995668       -27.0935
  31   2.0000      -0.985954       -26.8292
  32   2.0000      -0.973387       -26.4872
  33   2.0000      -0.969947       -26.3936
  34   2.0000      -0.929726       -25.2991
  35   2.0000      -0.917459       -24.9653
  36   2.0000      -0.876981       -23.8639
  37   2.0000      -0.861290       -23.4369
  38   2.0000      -0.817944       -22.2574
  39   2.0000      -0.797739       -21.7076
  40   2.0000      -0.795446       -21.6452
  41   2.0000      -0.767000       -20.8711
  42   2.0000      -0.749843       -20.4043
  43   2.0000      -0.747099       -20.3296
  44   2.0000      -0.712819       -19.3968
  45   2.0000      -0.681893       -18.5552
  46   2.0000      -0.671481       -18.2719
  47   2.0000      -0.662140       -18.0177
  48   2.0000      -0.658648       -17.9227
  49   2.0000      -0.651607       -17.7311
  50   2.0000      -0.639262       -17.3952
  51   2.0000      -0.633993       -17.2518
  52   2.0000      -0.629418       -17.1273
  53   2.0000      -0.617020       -16.7900
  54   2.0000      -0.611359       -16.6359
  55   2.0000      -0.602863       -16.4047
  56   2.0000      -0.596088       -16.2204
  57   2.0000      -0.581267       -15.8171
  58   2.0000      -0.570526       -15.5248
  59   2.0000      -0.563554       -15.3351
  60   2.0000      -0.553639       -15.0653
  61   2.0000      -0.550995       -14.9933
  62   2.0000      -0.543518       -14.7899
  63   2.0000      -0.530145       -14.4260
  64   2.0000      -0.517648       -14.0859
  65   2.0000      -0.514492       -14.0000
  66   2.0000      -0.513086       -13.9618
  67   2.0000      -0.502422       -13.6716
  68   2.0000      -0.492076       -13.3901
  69   2.0000      -0.483398       -13.1539
  70   2.0000      -0.479317       -13.0429
  71   2.0000      -0.476559       -12.9678
  72   2.0000      -0.455270       -12.3885
  73   2.0000      -0.435155       -11.8412
  74   2.0000      -0.371027       -10.0962
  75   2.0000      -0.363448        -9.8899
  76   2.0000      -0.355176        -9.6648
  77   2.0000      -0.351927        -9.5764
  78   2.0000      -0.317692        -8.6448
  79   0.0000      -0.038750        -1.0544
  80   0.0000       0.036226         0.9858
  81   0.0000       0.069356         1.8873
  82   0.0000       0.070975         1.9313
  83   0.0000       0.083001         2.2586

MULLIKEN ATOMIC CHARGES
-----------------------
   0 C :   -0.080240
   1 C :   -0.342254
   2 C :    0.184007
   3 C :    0.101887
   4 C :   -0.222311
   5 C :   -0.221821
   6 C :    0.294906
   7 C :    0.063965
   8 C :    0.233578
   9 C :   -0.397777
  10 H :    0.213709
  11 C :   -0.084783
  12 C :   -0.346709
  13 C :    0.271734
  14 H :    0.207094
  15 H :    0.221259
  16 H :    0.194501
  17 H :    0.201751
  18 H :    0.208283
  19 N :    0.015813
  20 C :   -0.376771
  21 H :    0.196204
  22 H :    0.203547
  23 H :    0.197182
  24 C :    0.061925
  25 C :   -0.253343
  26 C :   -0.250746
  27 C :   -0.211222
  28 C :   -0.212384
  29 C :   -0.150306
  30 H :    0.187129
  31 H :    0.187221
  32 H :    0.191216
  33 H :    0.190711
  34 H :    0.188765
  35 O :   -0.293393
  36 C :   -0.296937
  37 H :    0.172185
  38 H :    0.171892
  39 H :    0.180272
  40 H :    0.200260
Sum of atomic charges:    1.0000000

LOEWDIN ATOMIC CHARGES
----------------------
   0 C :   -0.083455
   1 C :   -0.113102
   2 C :   -0.072328
   3 C :   -0.061462
   4 C :   -0.061237
   5 C :   -0.135113
   6 C :    0.068281
   7 C :   -0.024926
   8 C :   -0.063798
   9 C :   -0.142419
  10 H :    0.169460
  11 C :   -0.077051
  12 C :   -0.143454
  13 C :   -0.176551
  14 H :    0.169380
  15 H :    0.175609
  16 H :    0.163802
  17 H :    0.172125
  18 H :    0.169888
  19 N :    0.300273
  20 C :   -0.219947
  21 H :    0.140302
  22 H :    0.138351
  23 H :    0.139314
  24 C :   -0.111091
  25 C :   -0.100134
  26 C :   -0.099365
  27 C :   -0.143325
  28 C :   -0.143151
  29 C :   -0.145169
  30 H :    0.158929
  31 H :    0.158922
  32 H :    0.165383
  33 H :    0.165249
  34 H :    0.157630
  35 O :    0.257195
  36 C :   -0.289823
  37 H :    0.121821
  38 H :    0.121765
  39 H :    0.124209
  40 H :    0.169012

  Mayer bond orders larger than 0.100000
B(  0-C ,  1-C ) :   1.5524 B(  0-C ,  5-C ) :   1.2369 B(  0-C , 40-H ) :   0.9645
B(  1-C ,  2-C ) :   1.2216 B(  1-C , 14-H ) :   0.9615 B(  2-C ,  3-C ) :   1.2988
B(  2-C , 19-N ) :   1.2604 B(  3-C ,  4-C ) :   1.1698 B(  3-C ,  6-C ) :   1.2340
B(  4-C ,  5-C ) :   1.5996 B(  4-C , 15-H ) :   0.9438 B(  5-C , 16-H ) :   0.9745
B(  6-C ,  7-C ) :   1.2842 B(  6-C , 24-C ) :   0.7522 B(  7-C ,  8-C ) :   1.2288
B(  7-C , 13-C ) :   1.1092 B(  8-C ,  9-C ) :   1.2347 B(  8-C , 19-N ) :   1.2740
B(  9-C , 10-H ) :   0.9645 B(  9-C , 11-C ) :   1.5386 B( 11-C , 12-C ) :   1.2871
B( 11-C , 17-H ) :   0.9577 B( 12-C , 13-C ) :   1.4798 B( 12-C , 18-H ) :   0.9627
B( 13-C , 35-O ) :   1.1873 B( 19-N , 20-C ) :   0.8770 B( 20-C , 21-H ) :   0.9536
B( 20-C , 22-H ) :   0.9554 B( 20-C , 23-H ) :   0.9501 B( 24-C , 25-C ) :   1.4129
B( 24-C , 26-C ) :   1.4230 B( 25-C , 27-C ) :   1.4388 B( 25-C , 32-H ) :   0.9756
B( 26-C , 28-C ) :   1.4394 B( 26-C , 33-H ) :   0.9769 B( 27-C , 29-C ) :   1.3902
B( 27-C , 30-H ) :   0.9757 B( 28-C , 29-C ) :   1.3915 B( 28-C , 31-H ) :   0.9758
B( 29-C , 34-H ) :   0.9727 B( 35-O , 36-C ) :   0.8785 B( 36-C , 37-H ) :   0.9653
B( 36-C , 38-H ) :   0.9648 B( 36-C , 39-H ) :   0.9672

MP2 TOTAL ENERGY:     -940.486955563 Eh

-----------------------------------------------------------------------------
         ABSORPTION SPECTRUM VIA TRANSITION ELECTRIC DIPOLE MOMENTS
-----------------------------------------------------------------------------
State   Energy    Wavelength  fosc         T2        TX        TY        TZ
        (cm-1)      (nm)                 (au**2)    (au)      (au)      (au)
-----------------------------------------------------------------------------
   1   22280.6    448.8   0.200485238   2.96231   1.67980   0.37398  -0.02675
   2   30280.1    330.2   0.319672510   3.47555   0.32445   1.83571   0.02159
   3   31503.3    317.4   0.072934385   0.76217   0.04538  -0.87183   0.00494
   4   30509.6    327.8   0.000903700   0.00975   0.06086  -0.06051   0.04884
   5   34548.0    289.5   0.014490290   0.13808  -0.04009  -0.36879  -0.02164
   6   38713.1    258.3   1.175806927   9.99893   0.77904   3.06462   0.01001
   7   41696.0    239.8   0.000954610   0.00754   0.05440   0.06403   0.02186
   8   49095.3    203.7   0.091394657   0.61285  -0.77390   0.11747  -0.01165
   9   47812.0    209.2   0.119596282   0.82349  -0.81047   0.40714  -0.02949
  10   44020.3    227.2   0.181957282   1.36079   1.01838   0.56872   0.01564
  11   47548.5    210.3   0.019442304   0.13461  -0.08280  -0.35720   0.01285
  12   46843.3    213.5   0.011175088   0.07854  -0.06232  -0.25873  -0.08782
  13   49615.7    201.5   0.844919719   5.60624  -2.23884   0.62749  -0.44730
  14   49661.1    201.4   0.387005674   2.56553   1.16253  -0.38476  -1.03247
  15   50558.7    197.8   0.287236020   1.87033   0.41064  -0.08607   1.30165
  16   53603.3    186.6   0.284450332   1.74699  -0.95463   0.91409  -0.01107
  17   49784.3    200.9   0.004574243   0.03025   0.06147   0.08466   0.13894
  18   49694.9    201.2   0.128692913   0.85255  -0.85046   0.35515   0.05601
  19   52885.3    189.1   0.126206776   0.78564   0.15580  -0.86218   0.13419
  20   50285.0    198.9   0.056992423   0.37313   0.25194  -0.21074  -0.51501
  21   50841.3    196.7   0.024240636   0.15697   0.00761   0.13369   0.37287
  22   57861.5    172.8   0.002545313   0.01448   0.02974   0.01694   0.11537
  23   52936.8    188.9   0.037581237   0.23372  -0.10065  -0.46258  -0.09802
  24   55062.1    181.6   0.033401484   0.19970   0.20009   0.05574  -0.39568
  25   56456.1    177.1   0.179734319   1.04808  -1.01874  -0.09905  -0.02094
  26   54956.2    182.0   0.005527555   0.03311  -0.13716   0.07493  -0.09320
  27   53301.1    187.6   0.027372742   0.16907  -0.37836  -0.16079  -0.00737
  28   56760.4    176.2   0.056734323   0.32906   0.21625  -0.52976   0.04062
  29   62196.6    160.8   0.017525832   0.09277  -0.00702  -0.01167  -0.30427
  30   57170.7    174.9   0.005566004   0.03205  -0.15399   0.08166   0.04085

FINAL SINGLE POINT ENERGY      -938.469350234276

DIPOLE MOMENT
-------------
                                X             Y             Z
Electronic contribution:     -3.07493      -2.09236      -0.18114
Nuclear contribution   :      0.87379       3.40696       0.18037
                        -----------------------------------------
Total Dipole Moment    :     -2.20113       1.31460      -0.00077
                        -----------------------------------------
Magnitude (a.u.)       :      2.56382
Magnitude (Debye)      :      6.51671

Rotational constants in cm-1:     0.011636     0.009229     0.005463
Rotational constants in MHz :   348.841277   276.680661   163.762894

                             ****ORCA TERMINATED NORMALLY****
TOTAL RUN TIME: 0 days 11 hours 28 minutes 53 seconds 901 msec
