 Gaussian 09, Revision E.01,

 ----------------------------------------------------------------------
 #p B97D3/def2TZVP opt freq=noraman nosymm int=ultrafine scrf=(SMD,solv
 ent=Acetonitrile)
 ----------------------------------------------------------------------

 -----
 Title
 -----
 Symbolic Z-matrix:
 Charge =  1 Multiplicity = 1

 SCF Done:  E(RB97D3) =  -940.650669110     A.U. after   14 cycles
 SCF Done:  E(RB97D3) =  -940.651398986     A.U. after   10 cycles
 SCF Done:  E(RB97D3) =  -940.651481595     A.U. after   10 cycles
 SCF Done:  E(RB97D3) =  -940.651545155     A.U. after    9 cycles
 SCF Done:  E(RB97D3) =  -940.651548339     A.U. after    8 cycles
 SCF Done:  E(RB97D3) =  -940.651551253     A.U. after    8 cycles
 SCF Done:  E(RB97D3) =  -940.651552422     A.U. after    8 cycles
 SCF Done:  E(RB97D3) =  -940.651554119     A.U. after    8 cycles
 SCF Done:  E(RB97D3) =  -940.651554853     A.U. after    7 cycles
 SCF Done:  E(RB97D3) =  -940.651555111     A.U. after    8 cycles
 SCF Done:  E(RB97D3) =  -940.651555175     A.U. after    6 cycles
 SCF Done:  E(RB97D3) =  -940.651555206     A.U. after    6 cycles
 Optimization completed.
    -- Stationary point found.
 Normal termination of Gaussian 09 at Tue Mar 30 01:44:49 2021.

 --------------------------------------------------------------------
 #P Geom=AllCheck Guess=TCheck SCRF=Check GenChk RB97D3/def2TZVP Freq
 --------------------------------------------------------------------

 Structure from the checkpoint file:  "cp.chk"
 -----
 Title
 -----
 Charge =  1 Multiplicity = 1

 SCF Done:  E(RB97D3) =  -940.651555206     A.U. after    1 cycles

  Exact polarizability: 507.566  32.931 541.720  -0.640  -1.520 254.074
 Approx polarizability: 679.470  42.677 714.561  -1.085  -1.893 329.600

                      1                      2                      3
                      A                      A                      A
 Frequencies --     19.9816                44.7358                61.2355
 Red. masses --      4.4338                 3.7288                 4.6586
 Frc consts  --      0.0010                 0.0044                 0.0103
 IR Inten    --      0.0039                 0.0264                 0.3109

                      4                      5                      6
                      A                      A                      A
 Frequencies --     63.1553                76.1859               101.3522
 Red. masses --      3.5523                 4.0680                 3.4946
 Frc consts  --      0.0083                 0.0139                 0.0212
 IR Inten    --      2.0969                 5.6265                 1.8117

                      7                      8                      9
                      A                      A                      A
 Frequencies --    140.3547               145.7651               164.9213
 Red. masses --      3.5811                 1.3453                 3.6135
 Frc consts  --      0.0416                 0.0168                 0.0579
 IR Inten    --      0.5421                 0.3828                 1.7571

                     10                     11                     12
                      A                      A                      A
 Frequencies --    174.9273               218.6280               224.2198
 Red. masses --      2.8719                 4.1298                 5.3769
 Frc consts  --      0.0518                 0.1163                 0.1593
 IR Inten    --      1.7186                 1.0741                 1.3963

                     13                     14                     15
                      A                      A                      A
 Frequencies --    261.5145               265.9315               292.6482
 Red. masses --      1.5361                 3.9544                 2.5222
 Frc consts  --      0.0619                 0.1648                 0.1273
 IR Inten    --      0.3782                 0.3471                 0.2800

                     16                     17                     18
                      A                      A                      A
 Frequencies --    321.0452               349.0280               382.2819
 Red. masses --      3.8598                 5.0909                 4.8277
 Frc consts  --      0.2344                 0.3654                 0.4157
 IR Inten    --      3.4651                 7.0495                 1.7121

                     19                     20                     21
                      A                      A                      A
 Frequencies --    395.8685               406.3781               421.7661
 Red. masses --      3.0257                 6.0706                 2.5833
 Frc consts  --      0.2794                 0.5907                 0.2707
 IR Inten    --      0.1862                 7.0330                 0.3797

                     22                     23                     24
                      A                      A                      A
 Frequencies --    441.9202               485.1418               491.5450
 Red. masses --      3.2869                 3.8165                 5.5507
 Frc consts  --      0.3782                 0.5292                 0.7902
 IR Inten    --      3.9262                 2.0057                 5.3659

                     25                     26                     27
                      A                      A                      A
 Frequencies --    503.9768               533.0255               545.8497
 Red. masses --      3.7781                 3.4062                 6.0061
 Frc consts  --      0.5654                 0.5702                 1.0544
 IR Inten    --      2.0142                 9.2028                 4.0128

                     28                     29                     30
                      A                      A                      A
 Frequencies --    596.2363               616.8743               621.3810
 Red. masses --      5.4684                 5.9454                 4.6719
 Frc consts  --      1.1454                 1.3330                 1.0628
 IR Inten    --     35.9033                 0.9119                19.7324

                     31                     32                     33
                      A                      A                      A
 Frequencies --    630.0902               645.6737               664.4370
 Red. masses --      4.6223                 4.9430                 5.4989
 Frc consts  --      1.0812                 1.2141                 1.4303
 IR Inten    --      5.6303                12.2044                48.5574

                     34                     35                     36
                      A                      A                      A
 Frequencies --    672.1078               696.3194               740.1575
 Red. masses --      3.6399                 1.5116                 2.1228
 Frc consts  --      0.9688                 0.4318                 0.6852
 IR Inten    --     28.7018               102.6250                41.3992

                     37                     38                     39
                      A                      A                      A
 Frequencies --    743.1945               749.5458               757.1193
 Red. masses --      4.3381                 1.5912                 2.4501
 Frc consts  --      1.4117                 0.5267                 0.8275
 IR Inten    --     21.6002                59.0457                40.5292

                     40                     41                     42
                      A                      A                      A
 Frequencies --    772.1135               810.1836               815.3150
 Red. masses --      1.8542                 4.6310                 3.6307
 Frc consts  --      0.6513                 1.7910                 1.4220
 IR Inten    --    100.0554                 9.0902                10.3625

                     43                     44                     45
                      A                      A                      A
 Frequencies --    835.5057               853.1336               855.6304
 Red. masses --      1.2518                 1.4519                 2.0874
 Frc consts  --      0.5148                 0.6226                 0.9004
 IR Inten    --      0.0184                 2.4434                 1.5981

                     46                     47                     48
                      A                      A                      A
 Frequencies --    892.4620               915.2875               926.2511
 Red. masses --      1.8720                 4.6680                 3.4971
 Frc consts  --      0.8785                 2.3041                 1.7677
 IR Inten    --      6.3887                 6.0257                10.9508

                     49                     50                     51
                      A                      A                      A
 Frequencies --    938.9615               949.6963               956.0373
 Red. masses --      5.2191                 1.3645                 1.3467
 Frc consts  --      2.7111                 0.7251                 0.7252
 IR Inten    --     31.5232                 0.1397                 0.7518

                     52                     53                     54
                      A                      A                      A
 Frequencies --    969.1415               972.4682               981.3214
 Red. masses --      1.3167                 1.2788                 1.3308
 Frc consts  --      0.7286                 0.7125                 0.7551
 IR Inten    --      2.0091                 0.3937                 0.3257

                     55                     56                     57
                      A                      A                      A
 Frequencies --    998.6408              1015.1045              1030.8563
 Red. masses --      6.2835                 7.6725                 2.1556
 Frc consts  --      3.6921                 4.6581                 1.3496
 IR Inten    --      3.6943                83.3442                14.9477

                     58                     59                     60
                      A                      A                      A
 Frequencies --   1044.9820              1078.8099              1087.1421
 Red. masses --      2.2386                 1.5848                 2.9988
 Frc consts  --      1.4403                 1.0867                 2.0882
 IR Inten    --     12.0034                14.7695               207.8918

                     61                     62                     63
                      A                      A                      A
 Frequencies --   1110.1236              1113.2386              1132.8714
 Red. masses --      1.7059                 1.6218                 1.6547
 Frc consts  --      1.2386                 1.1842                 1.2512
 IR Inten    --     15.7791                 1.2326                12.5462

                     64                     65                     66
                      A                      A                      A
 Frequencies --   1142.0838              1152.1367              1162.2410
 Red. masses --      1.2691                 1.0735                 1.4767
 Frc consts  --      0.9753                 0.8396                 1.1752
 IR Inten    --      1.2280                 0.0022                31.4621

                     67                     68                     69
                      A                      A                      A
 Frequencies --   1172.4486              1173.9862              1183.7904
 Red. masses --      1.1408                 1.3315                 1.4776
 Frc consts  --      0.9239                 1.0812                 1.2200
 IR Inten    --      1.3001               102.3703                 3.4200

                     70                     71                     72
                      A                      A                      A
 Frequencies --   1191.5400              1205.7869              1253.0125
 Red. masses --      1.9173                 1.3827                 2.4715
 Frc consts  --      1.6038                 1.1844                 2.2862
 IR Inten    --     13.6374                 0.6347               501.7318

                     73                     74                     75
                      A                      A                      A
 Frequencies --   1277.5724              1293.7204              1304.2118
 Red. masses --      1.8438                 3.8600                 2.5105
 Frc consts  --      1.7731                 3.8065                 2.5160
 IR Inten    --     52.4337               116.1599                 0.0201

                     76                     77                     78
                      A                      A                      A
 Frequencies --   1307.9480              1331.3379              1350.4108
 Red. masses --      3.7668                 2.1383                 8.2318
 Frc consts  --      3.7967                 2.2330                 8.8445
 IR Inten    --      0.7068                 0.0442               167.8034

                     79                     80                     81
                      A                      A                      A
 Frequencies --   1364.9370              1379.9967              1397.1798
 Red. masses --      3.5134                 3.2784                 3.3289
 Frc consts  --      3.8566                 3.6785                 3.8288
 IR Inten    --     28.3381                15.3161                30.4036

                     82                     83                     84
                      A                      A                      A
 Frequencies --   1420.0030              1426.5847              1439.2465
 Red. masses --      1.2566                 1.8712                 2.1886
 Frc consts  --      1.4929                 2.2437                 2.6710
 IR Inten    --    137.7424                15.5969                 9.4837

                     85                     86                     87
                      A                      A                      A
 Frequencies --   1439.8441              1450.4727              1455.9297
 Red. masses --      1.3824                 1.2515                 1.0445
 Frc consts  --      1.6886                 1.5513                 1.3045
 IR Inten    --    105.3729                 3.0547                13.7827

                     88                     89                     90
                      A                      A                      A
 Frequencies --   1463.2866              1471.1240              1481.4852
 Red. masses --      1.1615                 1.8712                 1.4521
 Frc consts  --      1.4653                 2.3859                 1.8778
 IR Inten    --      1.9674               286.3333                60.9114

                     91                     92                     93
                      A                      A                      A
 Frequencies --   1490.2985              1503.3273              1510.0114
 Red. masses --      1.9752                 2.2586                 3.0567
 Frc consts  --      2.5847                 3.0075                 4.1064
 IR Inten    --     12.2869               171.4772               327.8558

                     94                     95                     96
                      A                      A                      A
 Frequencies --   1553.4677              1568.1612              1576.0551
 Red. masses --      5.4372                 6.3337                 5.5127
 Frc consts  --      7.7309                 9.1767                 8.0678
 IR Inten    --     97.4731               329.7165                 1.5024

                     97                     98                     99
                      A                      A                      A
 Frequencies --   1596.3911              1598.6629              1616.4995
 Red. masses --      5.2512                 5.6690                 5.7108
 Frc consts  --      7.8848                 8.5364                 8.7921
 IR Inten    --    478.3861                 1.6616                46.2683

                    100                    101                    102
                      A                      A                      A
 Frequencies --   2986.3410              3032.7803              3060.8846
 Red. masses --      1.0314                 1.0418                 1.1079
 Frc consts  --      5.4192                 5.6455                 6.1156
 IR Inten    --     76.1917                26.5756                32.4229

                    103                    104                    105
                      A                      A                      A
 Frequencies --   3110.8068              3120.7642              3123.6628
 Red. masses --      1.1032                 1.0851                 1.0982
 Frc consts  --      6.2902                 6.2263                 6.3136
 IR Inten    --     17.4058                 0.2258                 7.3668

                    106                    107                    108
                      A                      A                      A
 Frequencies --   3127.0835              3135.2697              3141.1236
 Red. masses --      1.0871                 1.0911                 1.0882
 Frc consts  --      6.2634                 6.3193                 6.3257
 IR Inten    --      1.9739                18.5264                 7.7062

                    109                    110                    111
                      A                      A                      A
 Frequencies --   3141.2660              3142.9951              3147.9426
 Red. masses --      1.0945                 1.0902                 1.0981
 Frc consts  --      6.3629                 6.3453                 6.4115
 IR Inten    --     42.8889                14.0554                18.4597

                    112                    113                    114
                      A                      A                      A
 Frequencies --   3153.8149              3158.4778              3176.4154
 Red. masses --      1.0927                 1.1016                 1.0929
 Frc consts  --      6.4038                 6.4751                 6.4971
 IR Inten    --     16.6337                 2.0751                 9.6738

                    115                    116                    117
                      A                      A                      A
 Frequencies --   3188.2278              3197.1270              3213.7356
 Red. masses --      1.0912                 1.0916                 1.0912
 Frc consts  --      6.5350                 6.5742                 6.6400
 IR Inten    --      2.9164                 2.4496                 0.6943

 - Thermochemistry -
 -------------------
 Temperature   298.150 Kelvin.  Pressure   1.00000 Atm.
 Atom     1 has atomic number  6 and mass  12.00000

 Molecular mass:   300.13884 amu.
 Principal axes and moments of inertia in atomic units:
                           1         2         3
     Eigenvalues --  5231.796766581.14776**********
           X            0.99995   0.00979   0.00074
           Y           -0.00980   0.99991   0.00908
           Z           -0.00065  -0.00908   0.99996
 This molecule is an asymmetric top.
 Rotational symmetry number  1.
 Warning -- assumption of classical behavior for rotation
           may cause significant error
 Rotational temperatures (Kelvin)      0.01656     0.01316     0.00778
 Rotational constants (GHZ):           0.34496     0.27423     0.16215
 Zero-point vibrational energy     866010.8 (Joules/Mol)
                                  206.98156 (Kcal/Mol)
 Warning -- explicit consideration of  29 degrees of freedom as
           vibrations may cause significant error
 Vibrational temperatures:     28.75    64.36    88.10    90.87   109.61
          (Kelvin)            145.82   201.94   209.72   237.28   251.68
                              314.56   322.60   376.26   382.62   421.05
                              461.91   502.17   550.02   569.57   584.69
                              606.83   635.82   698.01   707.22   725.11
                              766.90   785.35   857.85   887.54   894.03
                              906.56   928.98   955.98   967.01  1001.85
                             1064.92  1069.29  1078.43  1089.32  1110.90
                             1165.67  1173.05  1202.10  1227.47  1231.06
                             1284.05  1316.89  1332.67  1350.95  1366.40
                             1375.52  1394.38  1399.16  1411.90  1436.82
                             1460.51  1483.17  1503.49  1552.16  1564.15
                             1597.22  1601.70  1629.95  1643.20  1657.67
                             1672.20  1686.89  1689.10  1703.21  1714.36
                             1734.86  1802.80  1838.14  1861.37  1876.47
                             1881.84  1915.50  1942.94  1963.84  1985.51
                             2010.23  2043.07  2052.53  2070.75  2071.61
                             2086.90  2094.76  2105.34  2116.62  2131.52
                             2144.20  2162.95  2172.57  2235.09  2256.23
                             2267.59  2296.85  2300.12  2325.78  4296.67
                             4363.49  4403.92  4475.75  4490.08  4494.25
                             4499.17  4510.95  4519.37  4519.58  4522.06
                             4529.18  4537.63  4544.34  4570.15  4587.14
                             4599.95  4623.84

 Zero-point correction=                           0.329846 (Hartree/Particle)
 Thermal correction to Energy=                    0.348781
 Thermal correction to Enthalpy=                  0.349725
 Thermal correction to Gibbs Free Energy=         0.282138
 Sum of electronic and zero-point Energies=           -940.321709
 Sum of electronic and thermal Energies=              -940.302774
 Sum of electronic and thermal Enthalpies=            -940.301830
 Sum of electronic and thermal Free Energies=         -940.369418

                     E (Thermal)             CV                S
                      KCal/Mol        Cal/Mol-Kelvin    Cal/Mol-Kelvin
 Total                  218.864             76.223            142.251
 Electronic               0.000              0.000              0.000
 Translational            0.889              2.981             42.994
 Rotational               0.889              2.981             34.304
 Vibrational            217.086             70.261             64.952
 Vibration     1          0.593              1.986              6.636
 Vibration     2          0.595              1.980              5.038
 Vibration     3          0.597              1.973              4.417
 Vibration     4          0.597              1.972              4.356
 Vibration     5          0.599              1.965              3.987
 Vibration     6          0.604              1.948              3.428
 Vibration     7          0.615              1.913              2.799
 Vibration     8          0.617              1.907              2.727
 Vibration     9          0.623              1.886              2.493
 Vibration    10          0.627              1.873              2.382
 Vibration    11          0.646              1.813              1.970
 Vibration    12          0.649              1.804              1.925
 Vibration    13          0.669              1.743              1.652
 Vibration    14          0.672              1.736              1.623
 Vibration    15          0.688              1.687              1.459
 Vibration    16          0.707              1.633              1.305
 Vibration    17          0.726              1.577              1.171
 Vibration    18          0.752              1.508              1.030
 Vibration    19          0.763              1.479              0.978
 Vibration    20          0.771              1.456              0.940
 Vibration    21          0.784              1.423              0.886
 Vibration    22          0.802              1.379              0.821
 Vibration    23          0.841              1.283              0.696
 Vibration    24          0.847              1.269              0.680
 Vibration    25          0.859              1.241              0.648
 Vibration    26          0.888              1.177              0.580
 Vibration    27          0.901              1.149              0.553
 Vibration    28          0.954              1.040              0.456
 Vibration    29          0.977              0.996              0.422

 Normal termination of Gaussian 09 at Tue Mar 30 04:08:08 2021.
 Gaussian 09:  ES64L-G09RevE.01 30-Nov-2015

 ----------------------------------------------------------------------
 #p B97D3 chkbasis geom=allcheck Guess=Read int=ultrafine scrf=(SMD,sol
 vent=Acetonitrile) td=(NStates=30)
 ----------------------------------------------------------------------

 Structure from the checkpoint file:  "cp.chk"
 -----
 Title
 -----
 Charge =  1 Multiplicity = 1

                         Standard orientation:
 ---------------------------------------------------------------------
 Center     Atomic      Atomic             Coordinates (Angstroms)
 Number     Number       Type             X           Y           Z
 ---------------------------------------------------------------------
      1          6           0       -3.155812   -3.026658   -0.159404
      2          6           0       -3.418630   -1.675357   -0.083523
      3          6           0       -2.352889   -0.748662    0.007204
      4          6           0       -1.003150   -1.228365   -0.017900
      5          6           0       -0.782393   -2.634349   -0.077086
      6          6           0       -1.832325   -3.516832   -0.141211
      7          6           0        0.078201   -0.311767    0.014017
      8          6           0       -0.185047    1.069218    0.002821
      9          6           0       -1.560438    1.522357    0.014634
     10          6           0       -1.857713    2.895869   -0.072880
     11          1           0       -2.879205    3.242374   -0.127807
     12          6           0       -0.830649    3.814704   -0.133362
     13          6           0        0.516976    3.431548   -0.096716
     14          6           0        0.851491    2.089914   -0.030467
     15          1           0       -4.445581   -1.339090   -0.127175
     16          1           0        0.237601   -2.998984   -0.080513
     17          1           0       -1.647515   -4.585684   -0.191625
     18          1           0       -1.073061    4.870884   -0.215316
     19          1           0        1.288216    4.190423   -0.132285
     20          7           0       -2.580289    0.602027    0.108050
     21          6           0       -3.956476    1.088139    0.325285
     22          1           0       -3.925392    1.966460    0.966789
     23          1           0       -4.431629    1.334336   -0.628330
     24          1           0       -4.527392    0.321258    0.840515
     25          6           0        1.452369   -0.887463    0.036415
     26          6           0        2.107443   -1.188250   -1.162501
     27          6           0        2.063454   -1.188533    1.257837
     28          6           0        3.378268   -1.762053   -1.137490
     29          6           0        3.334759   -1.762652    1.278311
     30          6           0        3.997113   -2.046901    0.082016
     31          1           0        3.883982   -1.988934   -2.072856
     32          1           0        3.806324   -1.990125    2.231194
     33          1           0        1.622759   -0.964591   -2.109083
     34          1           0        1.545308   -0.965955    2.186838
     35          1           0        4.987900   -2.493808    0.099736
     36          8           0        2.117179    1.652469   -0.001763
     37          6           0        3.196113    2.604250   -0.059566
     38          1           0        3.154275    3.181977   -0.989541
     39          1           0        3.166685    3.276849    0.804962
     40          1           0        4.104656    2.000930   -0.033730
     41          1           0       -3.987336   -3.721197   -0.242626
 ---------------------------------------------------------------------

 SCF Done:  E(RB97D3) =  -940.651538844     A.U. after    6 cycles

 Excitation energies and oscillator strengths:

 Excited State   1:      Singlet-A      2.2538 eV  550.12 nm  f=0.0761  <S**2>=0.000
      79 -> 80         0.69714
 This state for optimization and/or second-order correction.
 Total Energy, E(TD-HF/TD-KS) =  -940.568713935
 Copying the excited state density for this state as the 1-particle RhoCI density.

 Excited State   2:      Singlet-A      2.5248 eV  491.07 nm  f=0.0001  <S**2>=0.000
      78 -> 80         0.70654

 Excited State   3:      Singlet-A      2.7406 eV  452.39 nm  f=0.0048  <S**2>=0.000
      76 -> 80         0.12604
      77 -> 80         0.69159

 Excited State   4:      Singlet-A      3.1453 eV  394.19 nm  f=0.0299  <S**2>=0.000
      76 -> 80         0.67295
      77 -> 80        -0.11586

 Excited State   5:      Singlet-A      3.5412 eV  350.12 nm  f=0.0535  <S**2>=0.000
      75 -> 80         0.57494
      79 -> 81         0.39268

 Excited State   6:      Singlet-A      4.0500 eV  306.14 nm  f=0.6191  <S**2>=0.000
      75 -> 80        -0.33855
      76 -> 81         0.18112
      79 -> 81         0.53263
      79 -> 84         0.17234

 Excited State   7:      Singlet-A      4.1725 eV  297.15 nm  f=0.0111  <S**2>=0.000
      78 -> 81         0.69917

 Excited State   8:      Singlet-A      4.2927 eV  288.82 nm  f=0.0317  <S**2>=0.000
      73 -> 80        -0.13935
      74 -> 80        -0.10577
      77 -> 81         0.14900
      79 -> 82         0.61641
      79 -> 84        -0.18473

 Excited State   9:      Singlet-A      4.3014 eV  288.24 nm  f=0.0004  <S**2>=0.000
      79 -> 83         0.70451

 Excited State  10:      Singlet-A      4.3869 eV  282.63 nm  f=0.0048  <S**2>=0.000
      73 -> 80         0.13557
      76 -> 81         0.11447
      77 -> 81         0.66017
      79 -> 82        -0.12832

 Excited State  11:      Singlet-A      4.4704 eV  277.35 nm  f=0.0307  <S**2>=0.000
      70 -> 80         0.16072
      74 -> 80         0.53397
      76 -> 81         0.16288
      79 -> 84        -0.34180
      79 -> 85        -0.16460

 Excited State  12:      Singlet-A      4.5264 eV  273.91 nm  f=0.0005  <S**2>=0.000
      72 -> 80         0.67122
      73 -> 80        -0.13406
      79 -> 84        -0.13386

 Excited State  13:      Singlet-A      4.5494 eV  272.53 nm  f=0.0384  <S**2>=0.000
      70 -> 80         0.10980
      72 -> 80         0.20937
      73 -> 80         0.25964
      74 -> 80         0.29616
      76 -> 81        -0.16416
      76 -> 82         0.10637
      79 -> 82         0.19223
      79 -> 84         0.42104
      79 -> 85         0.12761

 Excited State  14:      Singlet-A      4.5819 eV  270.59 nm  f=0.1239  <S**2>=0.000
      70 -> 80        -0.15667
      71 -> 80         0.18029
      73 -> 80         0.53836
      74 -> 80        -0.13693
      77 -> 81        -0.10411
      79 -> 81         0.11443
      79 -> 84        -0.21882
      79 -> 85        -0.14699

 Excited State  15:      Singlet-A      4.6658 eV  265.73 nm  f=0.0124  <S**2>=0.000
      71 -> 80         0.67701
      73 -> 80        -0.15456

 Excited State  16:      Singlet-A      4.7813 eV  259.31 nm  f=0.0009  <S**2>=0.000
      78 -> 82         0.68162
      78 -> 84         0.15699

 Excited State  17:      Singlet-A      4.8463 eV  255.83 nm  f=0.4419  <S**2>=0.000
      70 -> 80        -0.39767
      75 -> 80         0.14192
      76 -> 81         0.49104
      79 -> 81        -0.10665
      79 -> 84         0.13508

 Excited State  18:      Singlet-A      4.9563 eV  250.15 nm  f=0.1314  <S**2>=0.000
      70 -> 80         0.47357
      74 -> 80        -0.15077
      75 -> 81         0.20671
      75 -> 82         0.15543
      76 -> 81         0.29831
      77 -> 82         0.15973
      79 -> 86        -0.16720

 Excited State  19:      Singlet-A      5.0031 eV  247.81 nm  f=0.0057  <S**2>=0.000
      76 -> 82         0.14779
      77 -> 82         0.62797
      77 -> 84         0.21416

 Excited State  20:      Singlet-A      5.1155 eV  242.37 nm  f=0.0000  <S**2>=0.000
      77 -> 83        -0.45851
      78 -> 84         0.52124

 Excited State  21:      Singlet-A      5.1466 eV  240.90 nm  f=0.0589  <S**2>=0.000
      69 -> 80         0.31287
      76 -> 82         0.16037
      76 -> 85        -0.18395
      77 -> 85         0.12505
      79 -> 82        -0.11825
      79 -> 84        -0.16959
      79 -> 85         0.48601

 Excited State  22:      Singlet-A      5.2168 eV  237.66 nm  f=0.0044  <S**2>=0.000
      68 -> 80         0.60046
      69 -> 80        -0.31194
      76 -> 82         0.13221
      79 -> 85         0.10968

 Excited State  23:      Singlet-A      5.2235 eV  237.36 nm  f=0.0004  <S**2>=0.000
      76 -> 83         0.66913
      77 -> 83        -0.12357
      78 -> 84        -0.15096

 Excited State  24:      Singlet-A      5.2800 eV  234.82 nm  f=0.0403  <S**2>=0.000
      68 -> 80         0.24215
      69 -> 80         0.22398
      76 -> 82        -0.39327
      76 -> 84         0.40702
      77 -> 84        -0.16411
      79 -> 86         0.10845

 Excited State  25:      Singlet-A      5.3239 eV  232.88 nm  f=0.0278  <S**2>=0.000
      68 -> 80         0.18663
      69 -> 80         0.27331
      75 -> 81         0.35808
      75 -> 82        -0.23319
      76 -> 84        -0.24285
      77 -> 84         0.14650
      78 -> 85        -0.25676
      79 -> 86        -0.10304

 Excited State  26:      Singlet-A      5.3298 eV  232.62 nm  f=0.0136  <S**2>=0.000
      75 -> 81         0.19397
      75 -> 82        -0.12096
      76 -> 83        -0.10862
      77 -> 83        -0.14287
      78 -> 85         0.61840

 Excited State  27:      Singlet-A      5.3647 eV  231.11 nm  f=0.1113  <S**2>=0.000
      68 -> 80         0.17272
      69 -> 80         0.33226
      70 -> 80         0.11593
      74 -> 80        -0.12958
      75 -> 81        -0.31112
      75 -> 82         0.16213
      76 -> 84        -0.25962
      77 -> 84         0.12433
      79 -> 85        -0.12623
      79 -> 86         0.18794

 Excited State  28:      Singlet-A      5.4493 eV  227.52 nm  f=0.0018  <S**2>=0.000
      67 -> 80         0.69992

 Excited State  29:      Singlet-A      5.4935 eV  225.69 nm  f=0.0004  <S**2>=0.000
      66 -> 80         0.67642
      77 -> 85         0.15619

 Excited State  30:      Singlet-A      5.5226 eV  224.50 nm  f=0.0084  <S**2>=0.000
      66 -> 80        -0.16382
      76 -> 84        -0.23381
      76 -> 85         0.18646
      77 -> 84        -0.21795
      77 -> 85         0.53322
      78 -> 83        -0.10251

 The electronic state is 1-A.
 Alpha  occ. eigenvalues --  -18.80259 -14.09152  -9.99244  -9.98521  -9.98296
 Alpha  occ. eigenvalues --   -9.96655  -9.95320  -9.95142  -9.94529  -9.94172
 Alpha  occ. eigenvalues --   -9.92822  -9.92709  -9.92491  -9.92355  -9.92295
 Alpha  occ. eigenvalues --   -9.91767  -9.91409  -9.91236  -9.90844  -9.90840
 Alpha  occ. eigenvalues --   -9.90681  -9.90673  -9.90539  -1.00376  -0.93905
 Alpha  occ. eigenvalues --   -0.81562  -0.80600  -0.78627  -0.75759  -0.71926
 Alpha  occ. eigenvalues --   -0.70654  -0.70041  -0.68852  -0.68208  -0.65770
 Alpha  occ. eigenvalues --   -0.64990  -0.61572  -0.60671  -0.56924  -0.55190
 Alpha  occ. eigenvalues --   -0.55155  -0.53033  -0.52121  -0.51712  -0.49137
 Alpha  occ. eigenvalues --   -0.46785  -0.46053  -0.45201  -0.44638  -0.44174
 Alpha  occ. eigenvalues --   -0.42844  -0.42638  -0.42461  -0.41196  -0.40951
 Alpha  occ. eigenvalues --   -0.40298  -0.39790  -0.38484  -0.37677  -0.37228
 Alpha  occ. eigenvalues --   -0.36930  -0.36445  -0.35662  -0.35279  -0.33771
 Alpha  occ. eigenvalues --   -0.33401  -0.33185  -0.32391  -0.32021  -0.30887
 Alpha  occ. eigenvalues --   -0.30279  -0.29816  -0.29278  -0.28635  -0.24976
 Alpha  occ. eigenvalues --   -0.23771  -0.23226  -0.22506  -0.20347
 Alpha virt. eigenvalues --   -0.13253  -0.07234  -0.05037  -0.04553  -0.04066
 Alpha virt. eigenvalues --   -0.02914  -0.00561   0.02725   0.03232   0.04017
 Alpha virt. eigenvalues --    0.04526   0.04677   0.05840   0.06332   0.07019

 Mulliken charges:
               1
     1  C   -0.072812
     2  C   -0.235999
     3  C    0.068258
     4  C    0.115939
     5  C   -0.172233
     6  C   -0.155243
     7  C    0.278422
     8  C    0.116716
     9  C    0.097835
    10  C   -0.272688
    11  H    0.150032
    12  C   -0.096600
    13  C   -0.255839
    14  C    0.186553
    15  H    0.147872
    16  H    0.160118
    17  H    0.143842
    18  H    0.151780
    19  H    0.152920
    20  N    0.150976
    21  C   -0.295636
    22  H    0.170322
    23  H    0.165758
    24  H    0.171276
    25  C    0.221904
    26  C   -0.237648
    27  C   -0.240060
    28  C   -0.161329
    29  C   -0.162319
    30  C   -0.105469
    31  H    0.132607
    32  H    0.132617
    33  H    0.128992
    34  H    0.129348
    35  H    0.135327
    36  O   -0.218948
    37  C   -0.235265
    38  H    0.149048
    39  H    0.149356
    40  H    0.158474
    41  H    0.151798
 Sum of Mulliken charges =   1.00000

 Dipole moment (field-independent basis, Debye):
    X=             -5.5893    Y=              3.4777    Z=              0.0193  Tot=              6.5829
 Quadrupole moment (field-independent basis, Debye-Ang):
   XX=            -72.9545   YY=            -90.4353   ZZ=           -128.4054
   XY=              4.1666   XZ=             -1.3122   YZ=              0.2334

 Normal termination of Gaussian 09 at Tue Mar 30 05:54:03 2021.
