                         Program Version 5.0.2 -  RELEASE  -
|  1> %maxcore 20000
|  2> %pal
|  3>  nprocs= 4
|  4> end
|  5> ! RI-B2GP-PLYP   def2-TZVP def2/J def2-TZVP/C RIJCOSX CPCM TightSCF
|  6> %TDDFT
|  7>    NROOTS   30
|  8>    dcorr 4
|  9>    TDA      FALSE
| 10> END
| 11>
| 12> %CPCM
| 13>    SMD          TRUE
| 14>    SMDsolvent   "ACETONITRILE"
| 15> END
| 16>
| 17>
| 18> * xyz 1 1
| 19> C                  -3.14769200   -3.00562300   -0.16049300
| 20> C                  -3.40382700   -1.66285200   -0.08385600
| 21> C                  -2.34161900   -0.74416600    0.00500800
| 22> C                  -1.00147800   -1.22363900   -0.02194200
| 23> C                  -0.78893000   -2.62356500   -0.07962500
| 24> C                  -1.83406400   -3.49759400   -0.14343500
| 25> C                   0.07741800   -0.31461000    0.00914600
| 26> C                  -0.18355100    1.06034500   -0.00273200
| 27> C                  -1.54795000    1.51382800    0.02087000
| 28> C                  -1.84226300    2.88158700   -0.04765200
| 29> H                  -2.86102700    3.22639700   -0.08787400
| 30> C                  -0.82096900    3.79298100   -0.10894600
| 31> C                   0.51812500    3.40910100   -0.09534500
| 32> C                   0.84611900    2.07411700   -0.04664800
| 33> H                  -4.42544500   -1.32196100   -0.12379800
| 34> H                   0.22672800   -2.99208100   -0.08195200
| 35> H                  -1.65307300   -4.56252100   -0.19312900
| 36> H                  -1.06171900    4.84616800   -0.17618200
| 37> H                   1.29115300    4.16070500   -0.13633000
| 38> N                  -2.56494300    0.60043800    0.10866500
| 39> C                  -3.92831600    1.09003600    0.31949500
| 40> H                  -3.90316400    1.94415000    0.98608400
| 41> H                  -4.39038400    1.37603500   -0.62407400
| 42> H                  -4.52008400    0.32179100    0.79708900
| 43> C                   1.44535500   -0.88951100    0.04048300
| 44> C                   2.09452900   -1.22643500   -1.14356200
| 45> C                   2.06418300   -1.14418400    1.26035400
| 46> C                   3.36138500   -1.78761300   -1.10590400
| 47> C                   3.33046700   -1.70794200    1.29249100
| 48> C                   3.98425000   -2.02710300    0.11094100
| 49> H                   3.86139700   -2.04150200   -2.03214800
| 50> H                   3.80588700   -1.90009700    2.24614300
| 51> H                   1.60736800   -1.03816300   -2.09270500
| 52> H                   1.55457200   -0.89202900    2.18241000
| 53> H                   4.97339000   -2.46606200    0.13829300
| 54> O                   2.10431100    1.63501100   -0.04875600
| 55> C                   3.16204100    2.58601200   -0.11067600
| 56> H                   3.10759500    3.17709500   -1.02618200
| 57> H                   3.14703300    3.24955700    0.75544000
| 58> H                   4.07934700    2.00445900   -0.10715100
| 59> H                  -3.97872600   -3.69411500   -0.24236800
| 60> *
| 61>
| 62>
| 63>                          ****END OF INPUT****

CARTESIAN COORDINATES (ANGSTROEM)
---------------------------------
  C     -3.147692   -3.005623   -0.160493
  C     -3.403827   -1.662852   -0.083856
  C     -2.341619   -0.744166    0.005008
  C     -1.001478   -1.223639   -0.021942
  C     -0.788930   -2.623565   -0.079625
  C     -1.834064   -3.497594   -0.143435
  C      0.077418   -0.314610    0.009146
  C     -0.183551    1.060345   -0.002732
  C     -1.547950    1.513828    0.020870
  C     -1.842263    2.881587   -0.047652
  H     -2.861027    3.226397   -0.087874
  C     -0.820969    3.792981   -0.108946
  C      0.518125    3.409101   -0.095345
  C      0.846119    2.074117   -0.046648
  H     -4.425445   -1.321961   -0.123798
  H      0.226728   -2.992081   -0.081952
  H     -1.653073   -4.562521   -0.193129
  H     -1.061719    4.846168   -0.176182
  H      1.291153    4.160705   -0.136330
  N     -2.564943    0.600438    0.108665
  C     -3.928316    1.090036    0.319495
  H     -3.903164    1.944150    0.986084
  H     -4.390384    1.376035   -0.624074
  H     -4.520084    0.321791    0.797089
  C      1.445355   -0.889511    0.040483
  C      2.094529   -1.226435   -1.143562
  C      2.064183   -1.144184    1.260354
  C      3.361385   -1.787613   -1.105904
  C      3.330467   -1.707942    1.292491
  C      3.984250   -2.027103    0.110941
  H      3.861397   -2.041502   -2.032148
  H      3.805887   -1.900097    2.246143
  H      1.607368   -1.038163   -2.092705
  H      1.554572   -0.892029    2.182410
  H      4.973390   -2.466062    0.138293
  O      2.104311    1.635011   -0.048756
  C      3.162041    2.586012   -0.110676
  H      3.107595    3.177095   -1.026182
  H      3.147033    3.249557    0.755440
  H      4.079347    2.004459   -0.107151
  H     -3.978726   -3.694115   -0.242368

 Total Charge           Charge          ....    1
 Multiplicity           Mult            ....    1
 Number of Electrons    NEL             ....  158
 Basis Dimension        Dim             ....  821

ORBITAL ENERGIES
----------------

  NO   OCC          E(Eh)            E(eV)
   0   2.0000     -19.986169      -543.8513
   1   2.0000     -15.123064      -411.5195
   2   2.0000     -10.877689      -295.9970
   3   2.0000     -10.871450      -295.8272
   4   2.0000     -10.867210      -295.7118
   5   2.0000     -10.856686      -295.4254
   6   2.0000     -10.825530      -294.5777
   7   2.0000     -10.822695      -294.5005
   8   2.0000     -10.817799      -294.3673
   9   2.0000     -10.812616      -294.2262
  10   2.0000     -10.809064      -294.1296
  11   2.0000     -10.805048      -294.0203
  12   2.0000     -10.800640      -293.9004
  13   2.0000     -10.800127      -293.8864
  14   2.0000     -10.793663      -293.7105
  15   2.0000     -10.788428      -293.5681
  16   2.0000     -10.784217      -293.4535
  17   2.0000     -10.782656      -293.4110
  18   2.0000     -10.782575      -293.4088
  19   2.0000     -10.782140      -293.3969
  20   2.0000     -10.780587      -293.3547
  21   2.0000     -10.780291      -293.3466
  22   2.0000     -10.778742      -293.3045
  23   2.0000      -1.291897       -35.1543
  24   2.0000      -1.209244       -32.9052
  25   2.0000      -1.069544       -29.1038
  26   2.0000      -1.057027       -28.7632
  27   2.0000      -1.035905       -28.1884
  28   2.0000      -0.999592       -27.2003
  29   2.0000      -0.947026       -25.7699
  30   2.0000      -0.934243       -25.4220
  31   2.0000      -0.924625       -25.1603
  32   2.0000      -0.912829       -24.8393
  33   2.0000      -0.909049       -24.7365
  34   2.0000      -0.870506       -23.6877
  35   2.0000      -0.858869       -23.3710
  36   2.0000      -0.818854       -22.2822
  37   2.0000      -0.803354       -21.8604
  38   2.0000      -0.761134       -20.7115
  39   2.0000      -0.741612       -20.1803
  40   2.0000      -0.739687       -20.1279
  41   2.0000      -0.711875       -19.3711
  42   2.0000      -0.695226       -18.9181
  43   2.0000      -0.691920       -18.8281
  44   2.0000      -0.658450       -17.9173
  45   2.0000      -0.629053       -17.1174
  46   2.0000      -0.619614       -16.8606
  47   2.0000      -0.610246       -16.6057
  48   2.0000      -0.606678       -16.5086
  49   2.0000      -0.597601       -16.2616
  50   2.0000      -0.586307       -15.9542
  51   2.0000      -0.583230       -15.8705
  52   2.0000      -0.578800       -15.7499
  53   2.0000      -0.565451       -15.3867
  54   2.0000      -0.561659       -15.2835
  55   2.0000      -0.553254       -15.0548
  56   2.0000      -0.546756       -14.8780
  57   2.0000      -0.531995       -14.4763
  58   2.0000      -0.522225       -14.2105
  59   2.0000      -0.514999       -14.0138
  60   2.0000      -0.504862       -13.7380
  61   2.0000      -0.502723       -13.6798
  62   2.0000      -0.496461       -13.5094
  63   2.0000      -0.479709       -13.0535
  64   2.0000      -0.470682       -12.8079
  65   2.0000      -0.468193       -12.7402
  66   2.0000      -0.463977       -12.6255
  67   2.0000      -0.456171       -12.4131
  68   2.0000      -0.443947       -12.0804
  69   2.0000      -0.437954       -11.9173
  70   2.0000      -0.432951       -11.7812
  71   2.0000      -0.429750       -11.6941
  72   2.0000      -0.406912       -11.0726
  73   2.0000      -0.387987       -10.5577
  74   2.0000      -0.326670        -8.8892
  75   2.0000      -0.319610        -8.6970
  76   2.0000      -0.311778        -8.4839
  77   2.0000      -0.307483        -8.3670
  78   2.0000      -0.276115        -7.5135
  79   0.0000      -0.053715        -1.4617
  80   0.0000       0.019484         0.5302
  81   0.0000       0.050268         1.3679
  82   0.0000       0.052194         1.4203
  83   0.0000       0.063034         1.7152

MULLIKEN ATOMIC CHARGES
-----------------------
   0 C :   -0.058414
   1 C :   -0.308224
   2 C :    0.158920
   3 C :    0.103322
   4 C :   -0.206164
   5 C :   -0.196975
   6 C :    0.315349
   7 C :    0.085413
   8 C :    0.198281
   9 C :   -0.354636
  10 H :    0.183269
  11 C :   -0.060893
  12 C :   -0.310110
  13 C :    0.254623
  14 H :    0.179646
  15 H :    0.194065
  16 H :    0.172092
  17 H :    0.180843
  18 H :    0.180186
  19 N :    0.012157
  20 C :   -0.305476
  21 H :    0.174396
  22 H :    0.175866
  23 H :    0.176309
  24 C :    0.178287
  25 C :   -0.259260
  26 C :   -0.260680
  27 C :   -0.191561
  28 C :   -0.191143
  29 C :   -0.130889
  30 H :    0.162702
  31 H :    0.162825
  32 H :    0.165049
  33 H :    0.164819
  34 H :    0.164362
  35 O :   -0.325640
  36 C :   -0.221768
  37 H :    0.150108
  38 H :    0.149900
  39 H :    0.159939
  40 H :    0.179103
Sum of atomic charges:    1.0000000

LOEWDIN ATOMIC CHARGES
----------------------
   0 C :   -0.081299
   1 C :   -0.107563
   2 C :   -0.069401
   3 C :   -0.055942
   4 C :   -0.057788
   5 C :   -0.130005
   6 C :    0.069096
   7 C :   -0.020863
   8 C :   -0.061724
   9 C :   -0.135730
  10 H :    0.164120
  11 C :   -0.075828
  12 C :   -0.137097
  13 C :   -0.173070
  14 H :    0.164072
  15 H :    0.170446
  16 H :    0.157963
  17 H :    0.165878
  18 H :    0.164476
  19 N :    0.300157
  20 C :   -0.207917
  21 H :    0.135340
  22 H :    0.132540
  23 H :    0.134586
  24 C :   -0.102609
  25 C :   -0.095715
  26 C :   -0.095310
  27 C :   -0.139414
  28 C :   -0.139231
  29 C :   -0.141382
  30 H :    0.152857
  31 H :    0.152856
  32 H :    0.158901
  33 H :    0.158794
  34 H :    0.151617
  35 O :    0.255467
  36 C :   -0.277200
  37 H :    0.116858
  38 H :    0.116803
  39 H :    0.119281
  40 H :    0.162980

  Mayer bond orders larger than 0.100000
B(  0-C ,  1-C ) :   1.5346 B(  0-C ,  5-C ) :   1.2421 B(  0-C , 40-H ) :   0.9705
B(  1-C ,  2-C ) :   1.2386 B(  1-C , 14-H ) :   0.9774 B(  2-C ,  3-C ) :   1.2953
B(  2-C , 19-N ) :   1.2485 B(  3-C ,  4-C ) :   1.1826 B(  3-C ,  6-C ) :   1.2155
B(  4-C ,  5-C ) :   1.5924 B(  4-C , 15-H ) :   0.9567 B(  5-C , 16-H ) :   0.9820
B(  6-C ,  7-C ) :   1.2494 B(  6-C , 24-C ) :   0.7226 B(  7-C ,  8-C ) :   1.2303
B(  7-C , 13-C ) :   1.1056 B(  8-C ,  9-C ) :   1.2561 B(  8-C , 19-N ) :   1.2628
B(  9-C , 10-H ) :   0.9825 B(  9-C , 11-C ) :   1.5168 B( 11-C , 12-C ) :   1.2743
B( 11-C , 17-H ) :   0.9648 B( 12-C , 13-C ) :   1.4888 B( 12-C , 18-H ) :   0.9792
B( 13-C , 35-O ) :   1.1783 B( 19-N , 20-C ) :   0.8704 B( 20-C , 21-H ) :   0.9626
B( 20-C , 22-H ) :   0.9621 B( 20-C , 23-H ) :   0.9595 B( 24-C , 25-C ) :   1.4053
B( 24-C , 26-C ) :   1.4130 B( 25-C , 27-C ) :   1.4448 B( 25-C , 32-H ) :   0.9830
B( 26-C , 28-C ) :   1.4457 B( 26-C , 33-H ) :   0.9844 B( 27-C , 29-C ) :   1.3946
B( 27-C , 30-H ) :   0.9815 B( 28-C , 29-C ) :   1.3958 B( 28-C , 31-H ) :   0.9816
B( 29-C , 34-H ) :   0.9774 B( 35-O , 36-C ) :   0.8737 B( 36-C , 37-H ) :   0.9710
B( 36-C , 38-H ) :   0.9708 B( 36-C , 39-H ) :   0.9735

MP2 TOTAL ENERGY:     -940.248962077 Eh

-----------------------------------------------------------------------------
         ABSORPTION SPECTRUM VIA TRANSITION ELECTRIC DIPOLE MOMENTS
-----------------------------------------------------------------------------
State   Energy    Wavelength  fosc         T2        TX        TY        TZ
        (cm-1)      (nm)                 (au**2)    (au)      (au)      (au)
-----------------------------------------------------------------------------
   1   21640.9    462.1   0.176874517   2.69070   1.60715   0.32730  -0.02529
   2   29814.2    335.4   0.317376242   3.50451  -0.33460  -1.84174  -0.02353
   3   28522.0    350.6   0.006961893   0.08036  -0.03671   0.27803  -0.04132
   4   30594.6    326.9   0.022484403   0.24194  -0.13790   0.47215  -0.00205
   5   31883.9    313.6   0.000281712   0.00291  -0.05241   0.00348   0.01224
   6   37478.4    266.8   1.151159291  10.11185  -0.87037  -3.05846  -0.01226
   7   41480.1    241.1   0.000468633   0.00372  -0.05122  -0.03309   0.00114
   8   47388.7    211.0   0.112968403   0.78480  -0.82196   0.32991  -0.01818
   9   45824.6    218.2   0.077846342   0.55926   0.24438  -0.70632   0.02549
  10   44346.9    225.5   0.194996928   1.44757  -1.14367  -0.37323  -0.01706
  11   45740.3    218.6   0.048182300   0.34679   0.20482   0.55179   0.01898
  12   45853.4    218.1   0.022792088   0.16364   0.18410   0.35353   0.06899
  13   48547.9    206.0   0.758758962   5.14528  -2.12036   0.66890  -0.44938
  14   47534.7    210.4   0.287144656   1.98868   0.94855  -0.34721  -0.98407
  15   46842.5    213.5   0.090830028   0.63836  -0.71504   0.24277  -0.26104
  16   46768.6    213.8   0.017016306   0.11978   0.19128  -0.19684  -0.21082
  17   48514.4    206.1   0.148122561   1.00514  -0.63089   0.30731  -0.71601
  18   50980.0    196.2   0.170092499   1.09840   0.68458  -0.78945  -0.08068
  19   49329.1    202.7   0.160832774   1.07336  -0.32811   0.12894   0.97421
  20   49323.2    202.7   0.073544273   0.49088  -0.01451  -0.10140   0.69310
  21   50807.5    196.8   0.130599865   0.84623  -0.82798   0.39978   0.02927
  22   50757.8    197.0   0.134092849   0.86972  -0.03578   0.91771   0.16198
  23   55469.8    180.3   0.004617042   0.02740  -0.05081   0.06531  -0.14337
  24   51033.9    195.9   0.122462629   0.78999  -0.88709   0.03859  -0.03972
  25   55011.4    181.8   0.115097468   0.68879   0.82049   0.12300  -0.02155
  26   53577.4    186.6   0.037779540   0.23214  -0.07967   0.13073   0.45684
  27   53607.3    186.5   0.003642764   0.02237  -0.09258  -0.02831  -0.11401
  28   57920.5    172.7   0.010453572   0.05942  -0.08544   0.00208   0.22828
  29   52328.6    191.1   0.036052517   0.22682  -0.20881  -0.40518   0.13801
  30   55111.4    181.5   0.028927001   0.17280  -0.37239   0.18241   0.02917

FINAL SINGLE POINT ENERGY      -938.616683160458

DIPOLE MOMENT
-------------
                                X             Y             Z
Electronic contribution:     -3.09852      -2.08571      -0.17881
Nuclear contribution   :      0.87379       3.40696       0.18037
                        -----------------------------------------
Total Dipole Moment    :     -2.22473       1.32124       0.00156
                        -----------------------------------------
Magnitude (a.u.)       :      2.58749
Magnitude (Debye)      :      6.57687

Rotational constants in cm-1:     0.011636     0.009229     0.005463
Rotational constants in MHz :   348.841277   276.680661   163.762894

                             ****ORCA TERMINATED NORMALLY****
TOTAL RUN TIME: 0 days 3 hours 48 minutes 9 seconds 828 msec
