 Gaussian 09, Revision E.01,

 ----------------------------------------------------------------------
 #p m06/def2TZVP opt freq=noraman nosymm int=ultrafine scrf=(SMD,solven
 t=Acetonitrile)
 ----------------------------------------------------------------------

 -----
 Title
 -----
 Symbolic Z-matrix:
 Charge =  1 Multiplicity = 1

 SCF Done:  E(RM06) =  -940.540257429     A.U. after   14 cycles
 SCF Done:  E(RM06) =  -940.544350179     A.U. after   11 cycles
 SCF Done:  E(RM06) =  -940.544444373     A.U. after   10 cycles
 SCF Done:  E(RM06) =  -940.544476612     A.U. after    9 cycles
 SCF Done:  E(RM06) =  -940.544489278     A.U. after    9 cycles
 SCF Done:  E(RM06) =  -940.544491856     A.U. after    8 cycles
 SCF Done:  E(RM06) =  -940.544493013     A.U. after    9 cycles
 SCF Done:  E(RM06) =  -940.544494095     A.U. after    8 cycles
 SCF Done:  E(RM06) =  -940.544495026     A.U. after    8 cycles
 SCF Done:  E(RM06) =  -940.544495243     A.U. after    7 cycles
 SCF Done:  E(RM06) =  -940.544495308     A.U. after    6 cycles
 SCF Done:  E(RM06) =  -940.544495338     A.U. after    5 cycles
 SCF Done:  E(RM06) =  -940.544495354     A.U. after    6 cycles
 Optimization completed.
    -- Stationary point found.
 Normal termination of Gaussian 09 at Sat Feb 20 21:56:16 2021.

 ------------------------------------------------------------------
 #P Geom=AllCheck Guess=TCheck SCRF=Check GenChk RM06/def2TZVP Freq
 ------------------------------------------------------------------

 Structure from the checkpoint file:  "cp.chk"
 -----
 Title
 -----
 Charge =  1 Multiplicity = 1

 SCF Done:  E(RM06) =  -940.544495354     A.U. after    1 cycles

  Exact polarizability: 483.907  28.331 511.645  -0.316  -0.514 252.810
 Approx polarizability: 473.686  20.007 500.141  -0.192  -0.179 269.736

                      1                      2                      3
                      A                      A                      A
 Frequencies --     23.4750                44.9294                61.8198
 Red. masses --      4.4281                 3.6438                 3.7661
 Frc consts  --      0.0014                 0.0043                 0.0085
 IR Inten    --      0.0050                 0.2346                 1.2737

                      4                      5                      6
                      A                      A                      A
 Frequencies --     70.7410                79.0783               105.6398
 Red. masses --      4.1867                 4.1909                 3.2137
 Frc consts  --      0.0123                 0.0154                 0.0211
 IR Inten    --      1.3949                 3.8133                 1.4739

                      7                      8                      9
                      A                      A                      A
 Frequencies --    138.5692               146.9417               171.9810
 Red. masses --      1.4153                 2.8789                 3.6273
 Frc consts  --      0.0160                 0.0366                 0.0632
 IR Inten    --      0.2368                 0.7826                 0.9454

                     10                     11                     12
                      A                      A                      A
 Frequencies --    182.1646               221.9398               226.5435
 Red. masses --      3.6149                 5.1972                 4.4588
 Frc consts  --      0.0707                 0.1508                 0.1348
 IR Inten    --      2.1122                 1.3841                 1.1485

                     13                     14                     15
                      A                      A                      A
 Frequencies --    272.4413               274.9440               303.0981
 Red. masses --      3.1768                 1.8438                 2.0764
 Frc consts  --      0.1389                 0.0821                 0.1124
 IR Inten    --      0.6110                 0.4057                 0.1702

                     16                     17                     18
                      A                      A                      A
 Frequencies --    329.8589               356.9510               390.6592
 Red. masses --      3.8569                 5.0862                 4.9072
 Frc consts  --      0.2473                 0.3818                 0.4412
 IR Inten    --      2.4755                 7.6891                 1.8277

                     19                     20                     21
                      A                      A                      A
 Frequencies --    404.0600               413.3171               439.3202
 Red. masses --      2.9246                 6.2901                 2.6489
 Frc consts  --      0.2813                 0.6331                 0.3012
 IR Inten    --      0.1485                 7.4723                 0.7897

                     22                     23                     24
                      A                      A                      A
 Frequencies --    455.9896               495.1874               499.7943
 Red. masses --      3.1030                 4.0425                 5.0164
 Frc consts  --      0.3801                 0.5840                 0.7383
 IR Inten    --      3.0666                 2.0063                 5.3544

                     25                     26                     27
                      A                      A                      A
 Frequencies --    516.7450               547.2847               552.6887
 Red. masses --      3.6461                 3.4036                 5.4886
 Frc consts  --      0.5736                 0.6006                 0.9878
 IR Inten    --      2.4351                 7.6105                 5.7553

                     28                     29                     30
                      A                      A                      A
 Frequencies --    602.7058               620.1695               627.6444
 Red. masses --      5.5546                 6.1664                 4.4960
 Frc consts  --      1.1888                 1.3973                 1.0435
 IR Inten    --     38.4693                 0.1155                21.6426

                     31                     32                     33
                      A                      A                      A
 Frequencies --    649.5901               656.0431               675.6958
 Red. masses --      4.6738                 4.5164                 5.2371
 Frc consts  --      1.1620                 1.1453                 1.4088
 IR Inten    --     13.6193                 1.4630                50.5752

                     34                     35                     36
                      A                      A                      A
 Frequencies --    693.3459               713.7607               752.3921
 Red. masses --      3.2007                 1.4779                 5.4827
 Frc consts  --      0.9065                 0.4436                 1.8287
 IR Inten    --     32.2745                94.3218                38.3693

                     37                     38                     39
                      A                      A                      A
 Frequencies --    759.9307               770.5115               780.6212
 Red. masses --      1.6912                 1.6190                 2.4105
 Frc consts  --      0.5754                 0.5663                 0.8654
 IR Inten    --     31.3879                64.0734                37.5861

                     40                     41                     42
                      A                      A                      A
 Frequencies --    793.8337               832.0903               843.9980
 Red. masses --      2.0582                 4.3971                 3.4098
 Frc consts  --      0.7642                 1.7937                 1.4311
 IR Inten    --     87.5734                 8.8246                14.3006

                     43                     44                     45
                      A                      A                      A
 Frequencies --    858.6741               873.4234               881.3334
 Red. masses --      1.2585                 1.4988                 2.2699
 Frc consts  --      0.5467                 0.6737                 1.0388
 IR Inten    --      0.0345                 4.8658                 5.4274

                     46                     47                     48
                      A                      A                      A
 Frequencies --    913.6573               933.9949               946.5444
 Red. masses --      2.2230                 5.4430                 2.5451
 Frc consts  --      1.0933                 2.7975                 1.3435
 IR Inten    --      3.7800                19.0295                 8.1188

                     49                     50                     51
                      A                      A                      A
 Frequencies --    975.8617               988.0473               993.3373
 Red. masses --      4.4324                 1.3508                 1.3806
 Frc consts  --      2.4869                 0.7769                 0.8026
 IR Inten    --     11.5213                 1.1532                 0.0881

                     52                     53                     54
                      A                      A                      A
 Frequencies --   1006.2821              1011.5269              1016.7372
 Red. masses --      1.3438                 5.9468                 1.3241
 Frc consts  --      0.8017                 3.5850                 0.8065
 IR Inten    --      2.9017                 2.8850                 0.3447

                     55                     56                     57
                      A                      A                      A
 Frequencies --   1020.4261              1050.4726              1066.3568
 Red. masses --      1.3620                 2.0419                 2.0953
 Frc consts  --      0.8356                 1.3275                 1.4038
 IR Inten    --      0.5774                 8.8777                11.2894

                     58                     59                     60
                      A                      A                      A
 Frequencies --   1068.0252              1093.8552              1111.6745
 Red. masses --      6.7268                 1.4627                 2.0827
 Frc consts  --      4.5209                 1.0311                 1.5165
 IR Inten    --     42.3144                14.7222               162.1205

                     61                     62                     63
                      A                      A                      A
 Frequencies --   1118.6993              1134.8719              1145.6837
 Red. masses --      1.3630                 2.2083                 1.5700
 Frc consts  --      1.0050                 1.6757                 1.2142
 IR Inten    --     16.2258                58.9998                37.0869

                     64                     65                     66
                      A                      A                      A
 Frequencies --   1149.0699              1160.4284              1168.0975
 Red. masses --      1.0812                 1.2855                 1.1590
 Frc consts  --      0.8411                 1.0199                 0.9317
 IR Inten    --      0.0177                 2.2763                 3.8234

                     67                     68                     69
                      A                      A                      A
 Frequencies --   1174.9229              1184.8380              1201.7819
 Red. masses --      1.1077                 1.2955                 1.4707
 Frc consts  --      0.9010                 1.0716                 1.2515
 IR Inten    --      0.2764               122.2273                19.2476

                     70                     71                     72
                      A                      A                      A
 Frequencies --   1212.7673              1220.8880              1279.0053
 Red. masses --      2.2709                 1.6639                 2.5497
 Frc consts  --      1.9679                 1.4613                 2.4575
 IR Inten    --      3.2910                11.0448               541.3160

                     73                     74                     75
                      A                      A                      A
 Frequencies --   1293.2565              1312.1655              1319.0699
 Red. masses --      1.7941                 2.2885                 3.9588
 Frc consts  --      1.7679                 2.3216                 4.0583
 IR Inten    --    139.6850                 0.0727                11.3547

                     76                     77                     78
                      A                      A                      A
 Frequencies --   1336.5094              1339.6321              1391.4735
 Red. masses --      2.9970                 2.2487                 4.0605
 Frc consts  --      3.1541                 2.3777                 4.6321
 IR Inten    --    197.1784                 0.0872                72.1049

                     79                     80                     81
                      A                      A                      A
 Frequencies --   1399.4773              1412.2101              1428.3494
 Red. masses --      3.9502                 2.1308                 2.6720
 Frc consts  --      4.5583                 2.5037                 3.2118
 IR Inten    --    210.5135                14.6223                34.2403

                     82                     83                     84
                      A                      A                      A
 Frequencies --   1432.9277              1441.9371              1457.4553
 Red. masses --      1.5973                 1.3666                 1.2743
 Frc consts  --      1.9323                 1.6741                 1.5948
 IR Inten    --    183.7979                18.0049                40.1815

                     85                     86                     87
                      A                      A                      A
 Frequencies --   1458.9993              1462.3573              1464.9920
 Red. masses --      1.0734                 1.6583                 2.3830
 Frc consts  --      1.3463                 2.0893                 3.0133
 IR Inten    --     18.0271                 9.9606                 6.4301

                     88                     89                     90
                      A                      A                      A
 Frequencies --   1479.3360              1490.8313              1503.5672
 Red. masses --      1.4264                 1.1326                 2.2697
 Frc consts  --      1.8392                 1.4832                 3.0232
 IR Inten    --      3.2300                39.1355               366.4086

                     91                     92                     93
                      A                      A                      A
 Frequencies --   1518.3303              1541.0413              1559.3325
 Red. masses --      2.4812                 3.3343                 6.3472
 Frc consts  --      3.3700                 4.6653                 9.0930
 IR Inten    --     28.7384                39.3080               624.4247

                     94                     95                     96
                      A                      A                      A
 Frequencies --   1604.1630              1623.2137              1630.1140
 Red. masses --      6.1405                 7.4792                 6.3662
 Frc consts  --      9.3100                11.6107                 9.9671
 IR Inten    --    156.7252               429.7379                 2.0794

                     97                     98                     99
                      A                      A                      A
 Frequencies --   1653.5634              1657.1456              1672.6737
 Red. masses --      6.2337                 6.4574                 6.5008
 Frc consts  --     10.0425                10.4479                10.7161
 IR Inten    --    726.8144                31.4820                69.1472

                    100                    101                    102
                      A                      A                      A
 Frequencies --   3019.6791              3069.5530              3104.7570
 Red. masses --      1.0325                 1.0416                 1.1076
 Frc consts  --      5.5471                 5.7824                 6.2907
 IR Inten    --     65.4529                21.7292                22.4882

                    103                    104                    105
                      A                      A                      A
 Frequencies --   3146.3631              3164.1633              3166.0146
 Red. masses --      1.1040                 1.0873                 1.0886
 Frc consts  --      6.4390                 6.4136                 6.4292
 IR Inten    --     15.3582                 2.2161                 2.6046

                    106                    107                    108
                      A                      A                      A
 Frequencies --   3168.4659              3174.9458              3183.2915
 Red. masses --      1.1004                 1.0904                 1.0949
 Frc consts  --      6.5085                 6.4761                 6.5368
 IR Inten    --      3.5553                 4.0547                23.9395

                    109                    110                    111
                      A                      A                      A
 Frequencies --   3184.7200              3185.1708              3191.8688
 Red. masses --      1.0889                 1.0909                 1.0991
 Frc consts  --      6.5069                 6.5210                 6.5974
 IR Inten    --      4.8475                 7.5333                15.3916

                    112                    113                    114
                      A                      A                      A
 Frequencies --   3196.0325              3202.7936              3207.4090
 Red. masses --      1.0911                 1.1025                 1.0968
 Frc consts  --      6.5663                 6.6632                 6.6479
 IR Inten    --      2.2471                 0.9136                10.7208

                    115                    116                    117
                      A                      A                      A
 Frequencies --   3222.1305              3237.3838              3251.3496
 Red. masses --      1.0925                 1.0921                 1.0919
 Frc consts  --      6.6829                 6.7436                 6.8011
 IR Inten    --      2.1711                 0.3329                 0.0432

 - Thermochemistry -
 -------------------
 Temperature   298.150 Kelvin.  Pressure   1.00000 Atm.
 Atom     1 has atomic number  6 and mass  12.00000

 Molecular mass:   300.13884 amu.
 Principal axes and moments of inertia in atomic units:
                           1         2         3
     Eigenvalues --  5107.344656520.16784**********
           X            0.99995  -0.00952   0.00050
           Y            0.00952   0.99993   0.00730
           Z           -0.00057  -0.00729   0.99997
 This molecule is an asymmetric top.
 Rotational symmetry number  1.
 Warning -- assumption of classical behavior for rotation
           may cause significant error
 Rotational temperatures (Kelvin)      0.01696     0.01328     0.00791
 Rotational constants (GHZ):           0.35336     0.27679     0.16472
 Zero-point vibrational energy     881767.4 (Joules/Mol)
                                  210.74746 (Kcal/Mol)
 Warning -- explicit consideration of  29 degrees of freedom as
           vibrations may cause significant error
 Vibrational temperatures:     33.78    64.64    88.94   101.78   113.78
          (Kelvin)            151.99   199.37   211.42   247.44   262.09
                              319.32   325.95   391.98   395.58   436.09
                              474.59   513.57   562.07   581.35   594.67
                              632.08   656.07   712.46   719.09   743.48
                              787.42   795.19   867.16   892.28   903.04
                              934.61   943.90   972.17   997.57  1026.94
                             1082.52  1093.37  1108.59  1123.14  1142.15
                             1197.19  1214.32  1235.44  1256.66  1268.04
                             1314.55  1343.81  1361.86  1404.05  1421.58
                             1429.19  1447.81  1455.36  1462.86  1468.16
                             1511.39  1534.25  1536.65  1573.81  1599.45
                             1609.56  1632.83  1648.38  1653.25  1669.60
                             1680.63  1690.45  1704.72  1729.09  1744.90
                             1756.58  1840.20  1860.71  1887.91  1897.84
                             1922.94  1927.43  2002.02  2013.53  2031.85
                             2055.07  2061.66  2074.62  2096.95  2099.17
                             2104.00  2107.79  2128.43  2144.97  2163.30
                             2184.54  2217.21  2243.53  2308.03  2335.44
                             2345.37  2379.11  2384.26  2406.60  4344.64
                             4416.40  4467.05  4526.91  4552.52  4555.18
                             4558.71  4568.03  4580.04  4582.10  4582.74
                             4592.38  4598.37  4608.10  4614.74  4635.92
                             4657.87  4677.96

 Zero-point correction=                           0.335847 (Hartree/Particle)
 Thermal correction to Energy=                    0.354368
 Thermal correction to Enthalpy=                  0.355313
 Thermal correction to Gibbs Free Energy=         0.288717
 Sum of electronic and zero-point Energies=           -940.208648
 Sum of electronic and thermal Energies=              -940.190127
 Sum of electronic and thermal Enthalpies=            -940.189183
 Sum of electronic and thermal Free Energies=         -940.255779

                     E (Thermal)             CV                S
                      KCal/Mol        Cal/Mol-Kelvin    Cal/Mol-Kelvin
 Total                  222.369             74.505            140.163
 Electronic               0.000              0.000              0.000
 Translational            0.889              2.981             42.994
 Rotational               0.889              2.981             34.255
 Vibrational            220.592             68.543             62.913
 Vibration     1          0.593              1.985              6.316
 Vibration     2          0.595              1.979              5.029
 Vibration     3          0.597              1.973              4.398
 Vibration     4          0.598              1.968              4.133
 Vibration     5          0.600              1.963              3.914
 Vibration     6          0.605              1.945              3.348
 Vibration     7          0.614              1.915              2.824
 Vibration     8          0.617              1.906              2.711
 Vibration     9          0.626              1.877              2.414
 Vibration    10          0.630              1.864              2.306
 Vibration    11          0.648              1.808              1.943
 Vibration    12          0.650              1.801              1.906
 Vibration    13          0.675              1.724              1.581
 Vibration    14          0.677              1.720              1.565
 Vibration    15          0.695              1.668              1.400
 Vibration    16          0.713              1.616              1.261
 Vibration    17          0.732              1.561              1.135
 Vibration    18          0.758              1.490              0.998
 Vibration    19          0.769              1.461              0.948
 Vibration    20          0.777              1.441              0.915
 Vibration    21          0.799              1.384              0.829
 Vibration    22          0.814              1.348              0.778
 Vibration    23          0.851              1.261              0.670
 Vibration    24          0.855              1.250              0.659
 Vibration    25          0.872              1.213              0.618
 Vibration    26          0.902              1.146              0.550
 Vibration    27          0.908              1.134              0.539
 Vibration    28          0.961              1.026              0.445
 Vibration    29          0.980              0.989              0.416

 Optimization completed.
    -- Stationary point found.
 Normal termination of Gaussian 09 at Sun Feb 21 02:23:38 2021.
 Gaussian 09:  ES64L-G09RevE.01 30-Nov-2015

 ----------------------------------------------------------------------
 #p m06 chkbasis geom=allcheck Guess=Read int=ultrafine scrf=(SMD,solve
 nt=Acetonitrile) td=(NStates=30)
 ----------------------------------------------------------------------

 Structure from the checkpoint file:  "cp.chk"
 -----
 Title
 -----
 Charge =  1 Multiplicity = 1

                         Standard orientation:
 ---------------------------------------------------------------------
 Center     Atomic      Atomic             Coordinates (Angstroms)
 Number     Number       Type             X           Y           Z
 ---------------------------------------------------------------------
      1          6           0       -3.202447   -2.946839   -0.152859
      2          6           0       -3.433606   -1.602341   -0.080719
      3          6           0       -2.355309   -0.703279    0.007573
      4          6           0       -1.030319   -1.208994   -0.014908
      5          6           0       -0.841103   -2.612216   -0.070207
      6          6           0       -1.899049   -3.464851   -0.132872
      7          6           0        0.062250   -0.321374    0.014668
      8          6           0       -0.168678    1.056557    0.003205
      9          6           0       -1.520417    1.533512    0.016158
     10          6           0       -1.782588    2.907382   -0.065262
     11          1           0       -2.793497    3.278297   -0.118313
     12          6           0       -0.742734    3.792360   -0.123120
     13          6           0        0.588887    3.381283   -0.091353
     14          6           0        0.886477    2.044384   -0.031519
     15          1           0       -4.451127   -1.244484   -0.124000
     16          1           0        0.168415   -3.001348   -0.070415
     17          1           0       -1.738760   -4.534545   -0.180122
     18          1           0       -0.959740    4.851521   -0.200116
     19          1           0        1.377321    4.119516   -0.126121
     20          7           0       -2.553060    0.643843    0.103428
     21          6           0       -3.909333    1.156309    0.305407
     22          1           0       -3.873336    2.033734    0.943700
     23          1           0       -4.375703    1.412335   -0.647123
     24          1           0       -4.506674    0.411046    0.817324
     25          6           0        1.419962   -0.916631    0.036403
     26          6           0        2.066154   -1.220682   -1.153584
     27          6           0        2.030604   -1.202056    1.249001
     28          6           0        3.333976   -1.775626   -1.128709
     29          6           0        3.298694   -1.757991    1.269597
     30          6           0        3.955338   -2.039576    0.082098
     31          1           0        3.838353   -2.004739   -2.060553
     32          1           0        3.775171   -1.973442    2.219215
     33          1           0        1.576938   -1.006317   -2.098322
     34          1           0        1.514775   -0.973774    2.176062
     35          1           0        4.948873   -2.472512    0.099987
     36          8           0        2.128443    1.580422   -0.009685
     37          6           0        3.218717    2.482173   -0.070358
     38          1           0        3.196740    3.069337   -0.992401
     39          1           0        3.226243    3.154125    0.792229
     40          1           0        4.114064    1.862973   -0.055627
     41          1           0       -4.047042   -3.621028   -0.233753
 ---------------------------------------------------------------------

 SCF Done:  E(RM06) =  -940.544484914     A.U. after    7 cycles

 Excitation energies and oscillator strengths:

 Excited State   1:      Singlet-A      2.6983 eV  459.50 nm  f=0.1226  <S**2>=0.000
      79 -> 80         0.70246
 This state for optimization and/or second-order correction.
 Total Energy, E(TD-HF/TD-KS) =  -940.445325424
 Copying the excited state density for this state as the 1-particle RhoCI density.

 Excited State   2:      Singlet-A      3.2109 eV  386.13 nm  f=0.0002  <S**2>=0.000
      78 -> 80         0.70316

 Excited State   3:      Singlet-A      3.5383 eV  350.41 nm  f=0.0669  <S**2>=0.000
      76 -> 80         0.16077
      77 -> 80         0.67958

 Excited State   4:      Singlet-A      3.6587 eV  338.88 nm  f=0.0430  <S**2>=0.000
      76 -> 80         0.67538
      77 -> 80        -0.17484

 Excited State   5:      Singlet-A      3.8510 eV  321.96 nm  f=0.0800  <S**2>=0.000
      75 -> 80         0.61818
      79 -> 81         0.31996

 Excited State   6:      Singlet-A      4.5817 eV  270.60 nm  f=0.9284  <S**2>=0.000
      75 -> 80        -0.30118
      79 -> 81         0.60809

 Excited State   7:      Singlet-A      5.0619 eV  244.93 nm  f=0.0060  <S**2>=0.000
      77 -> 83        -0.21668
      78 -> 81         0.62066
      78 -> 82        -0.12912
      78 -> 84         0.17309

 Excited State   8:      Singlet-A      5.1484 eV  240.82 nm  f=0.0937  <S**2>=0.000
      74 -> 80         0.50314
      76 -> 81        -0.27856
      77 -> 81        -0.22791
      79 -> 82        -0.28983

 Excited State   9:      Singlet-A      5.2242 eV  237.33 nm  f=0.0678  <S**2>=0.000
      74 -> 80         0.33432
      79 -> 82         0.60028

 Excited State  10:      Singlet-A      5.3121 eV  233.40 nm  f=0.0085  <S**2>=0.000
      77 -> 83         0.21002
      78 -> 81         0.25625
      78 -> 82         0.21098
      78 -> 84        -0.21112
      79 -> 83         0.52438

 Excited State  11:      Singlet-A      5.3237 eV  232.89 nm  f=0.1482  <S**2>=0.000
      73 -> 80         0.42494
      74 -> 80        -0.24297
      75 -> 81         0.14917
      76 -> 81        -0.28150
      77 -> 81        -0.25230
      79 -> 82         0.14698

 Excited State  12:      Singlet-A      5.3921 eV  229.94 nm  f=0.0030  <S**2>=0.000
      71 -> 80        -0.19466
      72 -> 80        -0.16040
      77 -> 83        -0.25913
      78 -> 81        -0.18669
      78 -> 82        -0.25228
      78 -> 84         0.23870
      79 -> 83         0.42937

 Excited State  13:      Singlet-A      5.4159 eV  228.93 nm  f=0.0360  <S**2>=0.000
      68 -> 80         0.10118
      71 -> 80         0.43786
      72 -> 80         0.19931
      73 -> 80        -0.16050
      74 -> 80        -0.10267
      77 -> 81        -0.33873
      77 -> 83        -0.16450
      78 -> 82        -0.10188
      79 -> 83         0.14801

 Excited State  14:      Singlet-A      5.4489 eV  227.54 nm  f=0.0397  <S**2>=0.000
      71 -> 80         0.26751
      72 -> 80         0.16782
      73 -> 80         0.10750
      76 -> 81        -0.30738
      77 -> 81         0.47486
      78 -> 83         0.10853
      79 -> 84        -0.11884

 Excited State  15:      Singlet-A      5.5100 eV  225.02 nm  f=0.1824  <S**2>=0.000
      72 -> 80        -0.32361
      73 -> 80        -0.15701
      75 -> 81        -0.10835
      76 -> 81        -0.29815
      78 -> 83         0.14887
      79 -> 84         0.42677
      79 -> 85        -0.14600

 Excited State  16:      Singlet-A      5.5215 eV  224.55 nm  f=0.0675  <S**2>=0.000
      71 -> 80        -0.23679
      72 -> 80         0.50520
      79 -> 84         0.37243

 Excited State  17:      Singlet-A      5.5712 eV  222.54 nm  f=0.0745  <S**2>=0.000
      71 -> 80         0.25001
      72 -> 80        -0.10339
      73 -> 80         0.34847
      74 -> 80         0.14759
      75 -> 81         0.12269
      76 -> 81         0.22434
      79 -> 84         0.35454
      79 -> 85         0.21902

 Excited State  18:      Singlet-A      5.7380 eV  216.08 nm  f=0.0581  <S**2>=0.000
      73 -> 80        -0.27773
      75 -> 81         0.43402
      76 -> 82         0.11404
      76 -> 84         0.11128
      77 -> 82         0.25350
      78 -> 83        -0.25572
      79 -> 84         0.11272
      79 -> 85         0.14147

 Excited State  19:      Singlet-A      5.7844 eV  214.34 nm  f=0.0479  <S**2>=0.000
      70 -> 80         0.13407
      73 -> 80        -0.15244
      75 -> 81         0.22726
      76 -> 82         0.13722
      77 -> 81        -0.13354
      77 -> 82        -0.19942
      77 -> 84         0.23331
      78 -> 83         0.43900
      79 -> 85         0.24211

 Excited State  20:      Singlet-A      5.9087 eV  209.83 nm  f=0.1721  <S**2>=0.000
      70 -> 80        -0.34080
      75 -> 81        -0.25634
      76 -> 82        -0.10270
      79 -> 85         0.51213

 Excited State  21:      Singlet-A      5.9323 eV  209.00 nm  f=0.0133  <S**2>=0.000
      77 -> 83        -0.15836
      78 -> 82         0.56298
      78 -> 84         0.34122

 Excited State  22:      Singlet-A      5.9950 eV  206.81 nm  f=0.0935  <S**2>=0.000
      70 -> 80         0.57359
      75 -> 81        -0.19883
      75 -> 82         0.11691
      76 -> 81        -0.10527
      77 -> 82         0.15257
      79 -> 85         0.20506

 Excited State  23:      Singlet-A      6.0965 eV  203.37 nm  f=0.0045  <S**2>=0.000
      66 -> 80         0.12333
      67 -> 80        -0.12656
      68 -> 80         0.50563
      69 -> 80        -0.36848
      71 -> 80        -0.12917
      78 -> 84         0.14554

 Excited State  24:      Singlet-A      6.1799 eV  200.62 nm  f=0.2215  <S**2>=0.000
      67 -> 80        -0.13731
      75 -> 81        -0.16956
      76 -> 81         0.11162
      76 -> 82         0.19000
      77 -> 82         0.50964
      77 -> 84         0.18910
      78 -> 83         0.17204
      79 -> 86        -0.17117

 Excited State  25:      Singlet-A      6.2214 eV  199.29 nm  f=0.0042  <S**2>=0.000
      66 -> 80         0.16556
      67 -> 80         0.58129
      69 -> 80        -0.24405
      77 -> 82         0.14509

 Excited State  26:      Singlet-A      6.2591 eV  198.09 nm  f=0.0031  <S**2>=0.000
      76 -> 83         0.61147
      77 -> 83         0.29246

 Excited State  27:      Singlet-A      6.2680 eV  197.81 nm  f=0.0335  <S**2>=0.000
      67 -> 80         0.21083
      68 -> 80         0.26584
      69 -> 80         0.28620
      75 -> 81        -0.12250
      76 -> 82         0.41284
      77 -> 82        -0.17024
      77 -> 84        -0.17819
      79 -> 86        -0.12128

 Excited State  28:      Singlet-A      6.2777 eV  197.50 nm  f=0.0462  <S**2>=0.000
      68 -> 80        -0.23933
      69 -> 80        -0.31047
      75 -> 82        -0.12492
      76 -> 82         0.41965
      76 -> 83         0.13240
      76 -> 84        -0.18400
      77 -> 84        -0.20093
      79 -> 86         0.11546

 Excited State  29:      Singlet-A      6.3246 eV  196.03 nm  f=0.1499  <S**2>=0.000
      68 -> 80        -0.18689
      69 -> 80        -0.25234
      75 -> 82         0.42783
      75 -> 84         0.12047
      76 -> 81         0.10741
      76 -> 84         0.18729
      77 -> 82        -0.17631
      79 -> 86        -0.26756

 Excited State  30:      Singlet-A      6.4381 eV  192.58 nm  f=0.0442  <S**2>=0.000
      65 -> 80         0.25110
      66 -> 80         0.57115
      67 -> 80        -0.13225
      77 -> 83        -0.12268
      78 -> 84        -0.14339

 The electronic state is 1-A.
 Alpha  occ. eigenvalues --  -19.26278 -14.48538 -10.33491 -10.32681 -10.32368
 Alpha  occ. eigenvalues --  -10.31018 -10.28922 -10.28804 -10.28120 -10.27879
 Alpha  occ. eigenvalues --  -10.26750 -10.26513 -10.26149 -10.26146 -10.25764
 Alpha  occ. eigenvalues --  -10.25295 -10.24827 -10.24619 -10.24479 -10.24477
 Alpha  occ. eigenvalues --  -10.24350 -10.24339 -10.24154  -1.12391  -1.03972
 Alpha  occ. eigenvalues --   -0.91051  -0.89968  -0.87947  -0.84784  -0.80373
 Alpha  occ. eigenvalues --   -0.79129  -0.78413  -0.77177  -0.76551  -0.73636
 Alpha  occ. eigenvalues --   -0.72929  -0.69267  -0.68243  -0.64359  -0.62426
 Alpha  occ. eigenvalues --   -0.62334  -0.60106  -0.59213  -0.58697  -0.56162
 Alpha  occ. eigenvalues --   -0.53469  -0.52710  -0.51829  -0.51319  -0.50917
 Alpha  occ. eigenvalues --   -0.49819  -0.49195  -0.48686  -0.47831  -0.47079
 Alpha  occ. eigenvalues --   -0.46494  -0.45837  -0.44686  -0.43658  -0.43243
 Alpha  occ. eigenvalues --   -0.42808  -0.42177  -0.41348  -0.41030  -0.39378
 Alpha  occ. eigenvalues --   -0.39032  -0.38826  -0.37880  -0.37608  -0.36227
 Alpha  occ. eigenvalues --   -0.35734  -0.35474  -0.34598  -0.33607  -0.28932
 Alpha  occ. eigenvalues --   -0.28053  -0.27444  -0.26737  -0.24257
 Alpha virt. eigenvalues --   -0.11020  -0.04568  -0.01964  -0.01517  -0.00962
 Alpha virt. eigenvalues --    0.00488   0.03232   0.03755   0.04603   0.04997
 Alpha virt. eigenvalues --    0.05426   0.06043   0.07089   0.07271   0.07445

 Mulliken charges:
               1
     1  C   -0.075637
     2  C   -0.201596
     3  C    0.220345
     4  C    0.018124
     5  C   -0.083884
     6  C   -0.165757
     7  C    0.285279
     8  C   -0.057271
     9  C    0.276032
    10  C   -0.275759
    11  H    0.172109
    12  C   -0.098563
    13  C   -0.262597
    14  C    0.451330
    15  H    0.170891
    16  H    0.194751
    17  H    0.137656
    18  H    0.147033
    19  H    0.156356
    20  N   -0.177301
    21  C   -0.248421
    22  H    0.156876
    23  H    0.180438
    24  H    0.155549
    25  C   -0.045279
    26  C   -0.209684
    27  C   -0.196060
    28  C   -0.139127
    29  C   -0.138851
    30  C   -0.087890
    31  H    0.130095
    32  H    0.130350
    33  H    0.142467
    34  H    0.137063
    35  H    0.134155
    36  O   -0.355088
    37  C   -0.145406
    38  H    0.138954
    39  H    0.138541
    40  H    0.142885
    41  H    0.146892
 Sum of Mulliken charges =   1.00000

 Dipole moment (field-independent basis, Debye):
    X=             -5.5135    Y=              3.2661    Z=              0.0065  Tot=              6.4083
 Quadrupole moment (field-independent basis, Debye-Ang):
   XX=            -74.2376   YY=            -91.3179   ZZ=           -128.5936
   XY=              3.6782   XZ=             -1.1773   YZ=              0.2765

 Normal termination of Gaussian 09 at Sun Feb 21 05:40:11 2021.
