 Gaussian 09, Revision E.01,

 ----------------------------------------------------------------------
 #p b3lyp/def2TZVP opt freq=noraman nosymm int=ultrafine scrf=(SMD,solv
 ent=Acetonitrile) EmpiricalDispersion=GD3BJ
 ----------------------------------------------------------------------

 -----
 Title
 -----
 Symbolic Z-matrix:
 Charge =  1 Multiplicity = 1

 SCF Done:  E(RB3LYP) =  -941.358163236     A.U. after   13 cycles
 SCF Done:  E(RB3LYP) =  -941.360660443     A.U. after   10 cycles
 SCF Done:  E(RB3LYP) =  -941.360717560     A.U. after    9 cycles
 SCF Done:  E(RB3LYP) =  -941.360794045     A.U. after    8 cycles
 SCF Done:  E(RB3LYP) =  -941.360799134     A.U. after    8 cycles
 SCF Done:  E(RB3LYP) =  -941.360801489     A.U. after    8 cycles
 SCF Done:  E(RB3LYP) =  -941.360802827     A.U. after    7 cycles
 SCF Done:  E(RB3LYP) =  -941.360804061     A.U. after    8 cycles
 SCF Done:  E(RB3LYP) =  -941.360804657     A.U. after    7 cycles
 SCF Done:  E(RB3LYP) =  -941.360804759     A.U. after    6 cycles
 SCF Done:  E(RB3LYP) =  -941.360804815     A.U. after    5 cycles
 SCF Done:  E(RB3LYP) =  -941.360804857     A.U. after    5 cycles
 SCF Done:  E(RB3LYP) =  -941.360804870     A.U. after    5 cycles
 Optimization completed.
    -- Stationary point found.
 Normal termination of Gaussian 09 at Mon Feb 15 11:07:35 2021.

 --------------------------------------------------------------------
 #P Geom=AllCheck Guess=TCheck SCRF=Check GenChk RB3LYP/def2TZVP Freq
 --------------------------------------------------------------------

 Structure from the checkpoint file:  "cp.chk"
 -----
 Title
 -----
 Charge =  1 Multiplicity = 1

 SCF Done:  E(RB3LYP) =  -941.360804870     A.U. after    1 cycles

  Exact polarizability: 481.332  28.496 512.961  -0.545  -1.138 248.211
 Approx polarizability: 506.859  23.190 540.355  -0.560  -0.919 281.307

                      1                      2                      3
                      A                      A                      A
 Frequencies --     23.1773                45.6423                62.4237
 Red. masses --      4.4388                 3.7201                 4.2944
 Frc consts  --      0.0014                 0.0046                 0.0099
 IR Inten    --      0.0042                 0.0253                 0.7462

                      4                      5                      6
                      A                      A                      A
 Frequencies --     64.6883                79.6745               104.8928
 Red. masses --      3.7969                 4.0736                 3.2141
 Frc consts  --      0.0094                 0.0152                 0.0208
 IR Inten    --      1.7234                 5.8401                 1.7354

                      7                      8                      9
                      A                      A                      A
 Frequencies --    139.3477               147.5828               170.1918
 Red. masses --      1.6938                 2.1447                 3.7843
 Frc consts  --      0.0194                 0.0275                 0.0646
 IR Inten    --      0.1443                 1.0752                 1.6238

                     10                     11                     12
                      A                      A                      A
 Frequencies --    178.2616               224.8444               229.4450
 Red. masses --      3.3144                 4.6600                 4.8526
 Frc consts  --      0.0621                 0.1388                 0.1505
 IR Inten    --      1.7342                 1.3278                 1.2689

                     13                     14                     15
                      A                      A                      A
 Frequencies --    269.8939               273.9924               301.5775
 Red. masses --      1.5187                 3.9166                 2.5160
 Frc consts  --      0.0652                 0.1732                 0.1348
 IR Inten    --      0.4618                 0.4300                 0.2411

                     16                     17                     18
                      A                      A                      A
 Frequencies --    328.1678               357.1994               393.8942
 Red. masses --      3.8635                 5.1209                 4.9188
 Frc consts  --      0.2451                 0.3850                 0.4496
 IR Inten    --      3.0899                 7.2883                 1.9214

                     19                     20                     21
                      A                      A                      A
 Frequencies --    409.0271               415.5210               435.0966
 Red. masses --      2.9718                 6.2466                 2.5621
 Frc consts  --      0.2929                 0.6354                 0.2858
 IR Inten    --      0.1454                 7.5394                 0.5597

                     22                     23                     24
                      A                      A                      A
 Frequencies --    457.7125               499.3655               503.6174
 Red. masses --      3.2722                 4.1692                 4.8390
 Frc consts  --      0.4039                 0.6125                 0.7231
 IR Inten    --      3.4750                 2.4815                 5.3454

                     25                     26                     27
                      A                      A                      A
 Frequencies --    518.6560               550.7987               557.9914
 Red. masses --      3.7336                 3.3572                 5.9177
 Frc consts  --      0.5917                 0.6001                 1.0856
 IR Inten    --      2.1792                 8.8220                 4.8895

                     28                     29                     30
                      A                      A                      A
 Frequencies --    609.4818               631.3701               635.6654
 Red. masses --      5.4692                 6.0960                 4.6642
 Frc consts  --      1.1970                 1.4317                 1.1104
 IR Inten    --     40.0919                 0.4209                20.2216

                     31                     32                     33
                      A                      A                      A
 Frequencies --    651.0518               660.7738               679.6077
 Red. masses --      4.4772                 4.9141                 5.4954
 Frc consts  --      1.1181                 1.2642                 1.4954
 IR Inten    --      9.2521                 8.8050                52.9500

                     34                     35                     36
                      A                      A                      A
 Frequencies --    693.6502               717.1423               759.7389
 Red. masses --      3.4114                 1.5140                 5.3332
 Frc consts  --      0.9671                 0.4588                 1.8137
 IR Inten    --     32.0037               107.0898                35.3837

                     37                     38                     39
                      A                      A                      A
 Frequencies --    763.6678               774.7644               780.7506
 Red. masses --      1.8996                 1.5967                 2.2294
 Frc consts  --      0.6527                 0.5647                 0.8007
 IR Inten    --     35.5196                61.7018                44.3369

                     40                     41                     42
                      A                      A                      A
 Frequencies --    797.8335               830.8752               846.0013
 Red. masses --      1.9736                 4.5907                 3.5657
 Frc consts  --      0.7402                 1.8672                 1.5036
 IR Inten    --    103.3066                 8.8495                12.5815

                     43                     44                     45
                      A                      A                      A
 Frequencies --    863.7750               883.0636               887.0847
 Red. masses --      1.2521                 1.4724                 2.1057
 Frc consts  --      0.5504                 0.6765                 0.9763
 IR Inten    --      0.0386                 4.7376                 3.0525

                     46                     47                     48
                      A                      A                      A
 Frequencies --    918.8156               938.4005               952.1354
 Red. masses --      2.2885                 4.7798                 2.7361
 Frc consts  --      1.1383                 2.4799                 1.4614
 IR Inten    --      5.6695                12.3154                11.3056

                     49                     50                     51
                      A                      A                      A
 Frequencies --    966.6312               987.1734               993.8161
 Red. masses --      4.5890                 1.3702                 1.3468
 Frc consts  --      2.5263                 0.7867                 0.7838
 IR Inten    --     17.0928                 0.1532                 0.8205

                     52                     53                     54
                      A                      A                      A
 Frequencies --   1006.1709              1009.0329              1019.0175
 Red. masses --      1.3333                 1.3073                 1.3472
 Frc consts  --      0.7953                 0.7842                 0.8242
 IR Inten    --      1.9923                 0.4672                 0.3267

                     55                     56                     57
                      A                      A                      A
 Frequencies --   1021.9365              1049.3457              1053.7473
 Red. masses --      6.2270                 6.6981                 2.2382
 Frc consts  --      3.8316                 4.3455                 1.4642
 IR Inten    --      3.6756                61.5546                23.1256

                     58                     59                     60
                      A                      A                      A
 Frequencies --   1065.6902              1101.9013              1115.6263
 Red. masses --      2.2478                 1.5762                 2.6704
 Frc consts  --      1.5041                 1.1276                 1.9583
 IR Inten    --     10.3985                14.3934               208.3677

                     61                     62                     63
                      A                      A                      A
 Frequencies --   1135.1688              1140.3740              1156.8490
 Red. masses --      2.1398                 1.4360                 1.6866
 Frc consts  --      1.6246                 1.1002                 1.3299
 IR Inten    --     27.0391                 4.7623                16.8895

                     64                     65                     66
                      A                      A                      A
 Frequencies --   1172.0777              1173.4400              1188.7261
 Red. masses --      1.2706                 1.0984                 1.3398
 Frc consts  --      1.0284                 0.8911                 1.1155
 IR Inten    --      1.6523                 0.0047                13.8404

                     67                     68                     69
                      A                      A                      A
 Frequencies --   1196.5372              1199.8875              1211.8126
 Red. masses --      1.1468                 1.5057                 1.5499
 Frc consts  --      0.9674                 1.2773                 1.3410
 IR Inten    --      2.7027               140.6110                17.1974

                     70                     71                     72
                      A                      A                      A
 Frequencies --   1217.8782              1232.2657              1281.1927
 Red. masses --      1.8033                 1.4347                 2.4757
 Frc consts  --      1.5759                 1.2835                 2.3943
 IR Inten    --     16.7743                 2.2599               586.6716

                     73                     74                     75
                      A                      A                      A
 Frequencies --   1308.0559              1312.5993              1320.7618
 Red. masses --      2.0028                 5.2101                 3.3685
 Frc consts  --      2.0190                 5.2888                 3.4621
 IR Inten    --     62.1806                 0.0953                42.7585

                     76                     77                     78
                      A                      A                      A
 Frequencies --   1328.6622              1356.7954              1376.3901
 Red. masses --      3.5190                 1.4452                 8.8550
 Frc consts  --      3.6602                 1.5675                 9.8838
 IR Inten    --     88.7768                 0.1260               225.3048

                     79                     80                     81
                      A                      A                      A
 Frequencies --   1396.4864              1415.4580              1426.3634
 Red. masses --      3.6893                 3.7635                 2.6440
 Frc consts  --      4.2390                 4.4426                 3.1694
 IR Inten    --     36.9348                18.7226                44.4860

                     82                     83                     84
                      A                      A                      A
 Frequencies --   1453.8051              1460.2930              1474.9003
 Red. masses --      1.2390                 1.6846                 1.3649
 Frc consts  --      1.5428                 2.1165                 1.7493
 IR Inten    --    123.1193                12.6229                94.2065

                     85                     86                     87
                      A                      A                      A
 Frequencies --   1474.9849              1481.5475              1488.2713
 Red. masses --      2.1677                 1.2817                 1.0434
 Frc consts  --      2.7786                 1.6575                 1.3616
 IR Inten    --     11.1441                 3.5255                14.8300

                     88                     89                     90
                      A                      A                      A
 Frequencies --   1496.2393              1506.0080              1518.2825
 Red. masses --      1.1752                 1.8769                 1.4914
 Frc consts  --      1.5501                 2.5082                 2.0256
 IR Inten    --      2.1854               276.6395                65.1162

                     91                     92                     93
                      A                      A                      A
 Frequencies --   1528.9521              1543.2752              1550.1328
 Red. masses --      1.9581                 2.1156                 3.5560
 Frc consts  --      2.6970                 2.9687                 5.0345
 IR Inten    --      7.9752               120.4777               393.6399

                     94                     95                     96
                      A                      A                      A
 Frequencies --   1593.4248              1609.7892              1618.1565
 Red. masses --      5.3537                 6.7052                 5.5504
 Frc consts  --      8.0088                10.2377                 8.5629
 IR Inten    --    153.0375               401.2216                 1.7743

                     97                     98                     99
                      A                      A                      A
 Frequencies --   1641.3301              1642.7746              1660.7443
 Red. masses --      5.2936                 5.6933                 5.6571
 Frc consts  --      8.4022                 9.0525                 9.1928
 IR Inten    --    547.9349                12.8003                46.6637

                    100                    101                    102
                      A                      A                      A
 Frequencies --   3036.9775              3080.5302              3107.2140
 Red. masses --      1.0322                 1.0438                 1.1080
 Frc consts  --      5.6092                 5.8362                 6.3028
 IR Inten    --     62.8193                20.8566                27.8425

                    103                    104                    105
                      A                      A                      A
 Frequencies --   3157.3371              3170.1699              3173.3255
 Red. masses --      1.1030                 1.0977                 1.0861
 Frc consts  --      6.4785                 6.4996                 6.4437
 IR Inten    --     14.6880                 4.7340                 0.2678

                    106                    107                    108
                      A                      A                      A
 Frequencies --   3179.1372              3186.5586              3192.5954
 Red. masses --      1.0878                 1.0916                 1.0948
 Frc consts  --      6.4777                 6.5304                 6.5744
 IR Inten    --      0.8528                11.4061                27.1476

                    109                    110                    111
                      A                      A                      A
 Frequencies --   3192.8385              3194.4776              3199.4219
 Red. masses --      1.0892                 1.0909                 1.0983
 Frc consts  --      6.5418                 6.5590                 6.6239
 IR Inten    --      5.5982                 8.7383                13.4491

                    112                    113                    114
                      A                      A                      A
 Frequencies --   3205.2049              3207.4457              3230.8394
 Red. masses --      1.0941                 1.1005                 1.0932
 Frc consts  --      6.6225                 6.6704                 6.7230
 IR Inten    --      8.6105                 1.8250                 5.3725

                    115                    116                    117
                      A                      A                      A
 Frequencies --   3238.2588              3252.0386              3267.5481
 Red. masses --      1.0916                 1.0917                 1.0914
 Frc consts  --      6.7445                 6.8022                 6.8654
 IR Inten    --      1.9728                 0.4921                 0.0741

 - Thermochemistry -
 -------------------
 Temperature   298.150 Kelvin.  Pressure   1.00000 Atm.
 Atom     1 has atomic number  6 and mass  12.00000

 Molecular mass:   300.13884 amu.
 Principal axes and moments of inertia in atomic units:
                           1         2         3
     Eigenvalues --  5178.668946541.61525**********
           X            0.99997   0.00738   0.00115
           Y           -0.00739   0.99994   0.00856
           Z           -0.00109  -0.00857   0.99996
 This molecule is an asymmetric top.
 Rotational symmetry number  1.
 Warning -- assumption of classical behavior for rotation
           may cause significant error
 Rotational temperatures (Kelvin)      0.01673     0.01324     0.00784
 Rotational constants (GHZ):           0.34850     0.27589     0.16338
 Zero-point vibrational energy     885063.3 (Joules/Mol)
                                  211.53521 (Kcal/Mol)
 Warning -- explicit consideration of  28 degrees of freedom as
           vibrations may cause significant error
 Vibrational temperatures:     33.35    65.67    89.81    93.07   114.63
          (Kelvin)            150.92   200.49   212.34   244.87   256.48
                              323.50   330.12   388.32   394.21   433.90
                              472.16   513.93   566.73   588.50   597.84
                              626.01   658.55   718.47   724.59   746.23
                              792.48   802.82   876.91   908.40   914.58
                              936.72   950.70   977.80   998.01  1031.81
                             1093.09  1098.75  1114.71  1123.32  1147.90
                             1195.44  1217.21  1242.78  1270.53  1276.32
                             1321.97  1350.15  1369.91  1390.76  1420.32
                             1429.88  1447.65  1451.77  1466.14  1470.34
                             1509.77  1516.11  1533.29  1585.39  1605.14
                             1633.25  1640.74  1664.45  1686.36  1688.32
                             1710.31  1721.55  1726.37  1743.53  1752.25
                             1772.95  1843.35  1882.00  1888.54  1900.28
                             1911.65  1952.12  1980.32  2009.23  2036.53
                             2052.22  2091.70  2101.03  2122.05  2122.17
                             2131.61  2141.29  2152.75  2166.81  2184.47
                             2199.82  2220.43  2230.29  2292.58  2316.12
                             2328.16  2361.50  2363.58  2389.44  4369.53
                             4432.19  4470.58  4542.70  4561.16  4565.70
                             4574.06  4584.74  4593.43  4593.78  4596.13
                             4603.25  4611.57  4614.79  4648.45  4659.13
                             4678.95  4701.27

 Zero-point correction=                           0.337103 (Hartree/Particle)
 Thermal correction to Energy=                    0.355574
 Thermal correction to Enthalpy=                  0.356518
 Thermal correction to Gibbs Free Energy=         0.289920
 Sum of electronic and zero-point Energies=           -941.023702
 Sum of electronic and thermal Energies=              -941.005231
 Sum of electronic and thermal Enthalpies=            -941.004287
 Sum of electronic and thermal Free Energies=         -941.070885

                     E (Thermal)             CV                S
                      KCal/Mol        Cal/Mol-Kelvin    Cal/Mol-Kelvin
 Total                  223.126             74.159            140.169
 Electronic               0.000              0.000              0.000
 Translational            0.889              2.981             42.994
 Rotational               0.889              2.981             34.281
 Vibrational            221.349             68.198             62.894
 Vibration     1          0.593              1.985              6.341
 Vibration     2          0.595              1.979              4.998
 Vibration     3          0.597              1.972              4.379
 Vibration     4          0.597              1.971              4.309
 Vibration     5          0.600              1.963              3.899
 Vibration     6          0.605              1.945              3.361
 Vibration     7          0.615              1.914              2.813
 Vibration     8          0.617              1.905              2.703
 Vibration     9          0.625              1.879              2.433
 Vibration    10          0.629              1.869              2.347
 Vibration    11          0.650              1.803              1.920
 Vibration    12          0.652              1.796              1.883
 Vibration    13          0.674              1.729              1.597
 Vibration    14          0.676              1.721              1.571
 Vibration    15          0.694              1.671              1.408
 Vibration    16          0.711              1.619              1.269
 Vibration    17          0.732              1.560              1.134
 Vibration    18          0.761              1.483              0.985
 Vibration    19          0.773              1.451              0.930
 Vibration    20          0.779              1.437              0.907
 Vibration    21          0.796              1.394              0.842
 Vibration    22          0.816              1.344              0.773
 Vibration    23          0.855              1.251              0.660
 Vibration    24          0.859              1.242              0.649
 Vibration    25          0.874              1.209              0.613
 Vibration    26          0.906              1.138              0.543
 Vibration    27          0.914              1.122              0.528
 Vibration    28          0.968              1.012              0.434

 Optimization completed.
    -- Stationary point found.
 Normal termination of Gaussian 09 at Mon Feb 15 14:26:14 2021.
 Gaussian 09:  ES64L-G09RevE.01 30-Nov-2015

 ----------------------------------------------------------------------
 #p b3lyp chkbasis geom=allcheck Guess=Read int=ultrafine scrf=(SMD,sol
 vent=Acetonitrile) td=(NStates=30) EmpiricalDispersion=GD3BJ
 ----------------------------------------------------------------------

 Structure from the checkpoint file:  "cp.chk"
 -----
 Title
 -----
 Charge =  1 Multiplicity = 1

                         Standard orientation:
 ---------------------------------------------------------------------
 Center     Atomic      Atomic             Coordinates (Angstroms)
 Number     Number       Type             X           Y           Z
 ---------------------------------------------------------------------
      1          6           0       -3.153806   -3.007402   -0.150204
      2          6           0       -3.411813   -1.662819   -0.079852
      3          6           0       -2.346265   -0.740118    0.006673
      4          6           0       -1.005235   -1.222261   -0.015721
      5          6           0       -0.788812   -2.626201   -0.070099
      6          6           0       -1.835148   -3.500900   -0.131231
      7          6           0        0.073971   -0.312313    0.012890
      8          6           0       -0.184989    1.064011    0.002198
      9          6           0       -1.552278    1.517445    0.015239
     10          6           0       -1.843095    2.890521   -0.064058
     11          1           0       -2.858826    3.240527   -0.114816
     12          6           0       -0.817850    3.799359   -0.120233
     13          6           0        0.525868    3.411845   -0.089078
     14          6           0        0.852257    2.076752   -0.030465
     15          1           0       -4.433728   -1.325681   -0.121535
     16          1           0        0.225248   -2.993676   -0.071175
     17          1           0       -1.655235   -4.566188   -0.177680
     18          1           0       -1.054355    4.852872   -0.194623
     19          1           0        1.296750    4.165043   -0.122723
     20          7           0       -2.570299    0.605655    0.100601
     21          6           0       -3.943886    1.095064    0.300987
     22          1           0       -3.920622    1.969017    0.941615
     23          1           0       -4.405458    1.344216   -0.654103
     24          1           0       -4.524055    0.334375    0.805681
     25          6           0        1.446161   -0.888620    0.034261
     26          6           0        2.097780   -1.188353   -1.159336
     27          6           0        2.056937   -1.182518    1.250260
     28          6           0        3.365067   -1.756633   -1.134890
     29          6           0        3.324653   -1.751245    1.271055
     30          6           0        3.983475   -2.035956    0.079618
     31          1           0        3.868705   -1.982780   -2.066214
     32          1           0        3.796474   -1.973366    2.219834
     33          1           0        1.615510   -0.968661   -2.103147
     34          1           0        1.543404   -0.959236    2.176604
     35          1           0        4.971320   -2.478287    0.097197
     36          8           0        2.111710    1.637037   -0.007913
     37          6           0        3.190405    2.575494   -0.061938
     38          1           0        3.152894    3.157919   -0.984168
     39          1           0        3.169216    3.242123    0.802085
     40          1           0        4.094277    1.972726   -0.041531
     41          1           0       -3.983490   -3.697748   -0.228679
 ---------------------------------------------------------------------

 SCF Done:  E(RB3LYP) =  -941.360791989     A.U. after    5 cycles

 Excitation energies and oscillator strengths:

 Excited State   1:      Singlet-A      2.6163 eV  473.89 nm  f=0.1087  <S**2>=0.000
      79 -> 80         0.70213
 This state for optimization and/or second-order correction.
 Total Energy, E(TD-HF/TD-KS) =  -941.264644447
 Copying the excited state density for this state as the 1-particle RhoCI density.

 Excited State   2:      Singlet-A      3.0735 eV  403.39 nm  f=0.0002  <S**2>=0.000
      78 -> 80         0.70485

 Excited State   3:      Singlet-A      3.3787 eV  366.96 nm  f=0.0206  <S**2>=0.000
      77 -> 80         0.70128

 Excited State   4:      Singlet-A      3.5727 eV  347.04 nm  f=0.0570  <S**2>=0.000
      76 -> 80         0.69181

 Excited State   5:      Singlet-A      3.8419 eV  322.71 nm  f=0.0788  <S**2>=0.000
      75 -> 80         0.60792
      79 -> 81         0.34171

 Excited State   6:      Singlet-A      4.5152 eV  274.59 nm  f=0.9119  <S**2>=0.000
      75 -> 80        -0.31429
      76 -> 81        -0.10270
      79 -> 81         0.59762

 Excited State   7:      Singlet-A      4.9204 eV  251.98 nm  f=0.0049  <S**2>=0.000
      77 -> 83        -0.10840
      78 -> 81         0.69107

 Excited State   8:      Singlet-A      5.0273 eV  246.62 nm  f=0.0147  <S**2>=0.000
      74 -> 80        -0.22648
      76 -> 81         0.16720
      77 -> 81         0.15350
      79 -> 82         0.61507

 Excited State   9:      Singlet-A      5.1065 eV  242.80 nm  f=0.0010  <S**2>=0.000
      79 -> 83         0.69702

 Excited State  10:      Singlet-A      5.1225 eV  242.04 nm  f=0.0861  <S**2>=0.000
      74 -> 80         0.49457
      76 -> 81        -0.16222
      77 -> 81        -0.29925
      79 -> 82         0.29579
      79 -> 84        -0.13542

 Excited State  11:      Singlet-A      5.2133 eV  237.82 nm  f=0.0983  <S**2>=0.000
      73 -> 80        -0.35683
      74 -> 80         0.35144
      75 -> 81        -0.11440
      77 -> 81         0.45776

 Excited State  12:      Singlet-A      5.2601 eV  235.71 nm  f=0.0524  <S**2>=0.000
      73 -> 80        -0.34537
      76 -> 81         0.39586
      77 -> 81        -0.39025
      79 -> 84         0.21892

 Excited State  13:      Singlet-A      5.3442 eV  232.00 nm  f=0.0398  <S**2>=0.000
      71 -> 80        -0.23996
      72 -> 80        -0.27040
      73 -> 80         0.11748
      77 -> 83        -0.26512
      78 -> 82        -0.28209
      78 -> 84         0.23774
      79 -> 84         0.32412

 Excited State  14:      Singlet-A      5.3688 eV  230.94 nm  f=0.1484  <S**2>=0.000
      73 -> 80         0.17137
      77 -> 83         0.25261
      78 -> 82         0.25040
      78 -> 84        -0.19415
      79 -> 84         0.49900

 Excited State  15:      Singlet-A      5.3860 eV  230.20 nm  f=0.0628  <S**2>=0.000
      71 -> 80         0.28599
      72 -> 80         0.49621
      76 -> 81        -0.14621
      77 -> 83        -0.20773
      78 -> 82        -0.14270
      78 -> 84         0.15732
      79 -> 84         0.18763

 Excited State  16:      Singlet-A      5.4196 eV  228.77 nm  f=0.0957  <S**2>=0.000
      71 -> 80         0.43524
      72 -> 80        -0.38707
      73 -> 80        -0.14091
      76 -> 81        -0.25989
      79 -> 84         0.14475

 Excited State  17:      Singlet-A      5.4817 eV  226.18 nm  f=0.1395  <S**2>=0.000
      71 -> 80         0.35587
      73 -> 80         0.35363
      74 -> 80         0.16157
      75 -> 82        -0.12240
      76 -> 81         0.33985
      79 -> 82        -0.10055
      79 -> 85         0.16215

 Excited State  18:      Singlet-A      5.7197 eV  216.77 nm  f=0.0020  <S**2>=0.000
      69 -> 80         0.10932
      73 -> 80        -0.13593
      75 -> 81         0.36632
      78 -> 82        -0.27119
      78 -> 84        -0.19328
      79 -> 85         0.40915

 Excited State  19:      Singlet-A      5.7254 eV  216.55 nm  f=0.0038  <S**2>=0.000
      75 -> 81         0.20564
      77 -> 83        -0.15289
      78 -> 82         0.47871
      78 -> 84         0.33731
      79 -> 85         0.23517

 Excited State  20:      Singlet-A      5.8104 eV  213.38 nm  f=0.1519  <S**2>=0.000
      70 -> 80        -0.36085
      75 -> 81        -0.32769
      76 -> 82        -0.13961
      77 -> 82        -0.21070
      79 -> 85         0.39203

 Excited State  21:      Singlet-A      5.8467 eV  212.06 nm  f=0.0234  <S**2>=0.000
      70 -> 80         0.40251
      77 -> 82        -0.39443
      78 -> 83         0.39253

 Excited State  22:      Singlet-A      5.9111 eV  209.75 nm  f=0.1371  <S**2>=0.000
      70 -> 80         0.37730
      75 -> 81        -0.34498
      75 -> 82         0.13502
      76 -> 82        -0.17869
      77 -> 82         0.35811
      79 -> 85         0.14257

 Excited State  23:      Singlet-A      6.0278 eV  205.69 nm  f=0.0788  <S**2>=0.000
      68 -> 80        -0.12072
      69 -> 80         0.14494
      70 -> 80        -0.12978
      76 -> 83        -0.16897
      77 -> 82         0.30254
      77 -> 84         0.37407
      78 -> 83         0.37491
      79 -> 86         0.12351

 Excited State  24:      Singlet-A      6.0540 eV  204.80 nm  f=0.0015  <S**2>=0.000
      68 -> 80         0.49187
      69 -> 80        -0.25078
      76 -> 82        -0.13723
      76 -> 83         0.23179
      77 -> 83         0.15174
      77 -> 84         0.18106
      78 -> 83         0.13233

 Excited State  25:      Singlet-A      6.0590 eV  204.63 nm  f=0.0090  <S**2>=0.000
      68 -> 80        -0.23926
      69 -> 80         0.18506
      76 -> 83         0.58602
      77 -> 83         0.19949

 Excited State  26:      Singlet-A      6.1007 eV  203.23 nm  f=0.1160  <S**2>=0.000
      68 -> 80         0.28230
      69 -> 80         0.24045
      75 -> 81        -0.12296
      76 -> 82         0.48897
      76 -> 84        -0.15263
      77 -> 84        -0.14103
      79 -> 86         0.16529

 Excited State  27:      Singlet-A      6.1540 eV  201.47 nm  f=0.0188  <S**2>=0.000
      68 -> 80         0.18700
      69 -> 80         0.42830
      76 -> 82        -0.25676
      76 -> 84         0.33934
      78 -> 83        -0.12423
      79 -> 85        -0.10962
      79 -> 86         0.12655

 Excited State  28:      Singlet-A      6.1839 eV  200.50 nm  f=0.0327  <S**2>=0.000
      66 -> 80         0.12093
      67 -> 80        -0.21503
      69 -> 80        -0.23072
      75 -> 82         0.37033
      76 -> 81         0.10260
      76 -> 82         0.13290
      76 -> 84         0.20262
      78 -> 85         0.15091
      79 -> 86         0.34470

 Excited State  29:      Singlet-A      6.2036 eV  199.86 nm  f=0.0208  <S**2>=0.000
      66 -> 80        -0.21372
      67 -> 80         0.43591
      68 -> 80        -0.16298
      69 -> 80        -0.17003
      75 -> 82         0.18494
      78 -> 85        -0.36057
      79 -> 86         0.10607

 Excited State  30:      Singlet-A      6.2498 eV  198.38 nm  f=0.0055  <S**2>=0.000
      66 -> 80        -0.28289
      67 -> 80         0.31161
      78 -> 84        -0.16150
      78 -> 85         0.52336

 The electronic state is 1-A.
 Alpha  occ. eigenvalues --  -19.17664 -14.41617 -10.26741 -10.26110 -10.25835
 Alpha  occ. eigenvalues --  -10.24227 -10.22515 -10.22229 -10.21745 -10.21343
 Alpha  occ. eigenvalues --  -10.20160 -10.19979 -10.19675 -10.19602 -10.19456
 Alpha  occ. eigenvalues --  -10.18899 -10.18562 -10.18342 -10.17989 -10.17982
 Alpha  occ. eigenvalues --  -10.17830 -10.17818 -10.17675  -1.09357  -1.02560
 Alpha  occ. eigenvalues --   -0.89608  -0.88584  -0.86550  -0.83459  -0.79225
 Alpha  occ. eigenvalues --   -0.77895  -0.77226  -0.76007  -0.75399  -0.72681
 Alpha  occ. eigenvalues --   -0.71752  -0.68133  -0.67185  -0.63211  -0.61390
 Alpha  occ. eigenvalues --   -0.61301  -0.59021  -0.57994  -0.57612  -0.54864
 Alpha  occ. eigenvalues --   -0.52317  -0.51506  -0.50666  -0.50105  -0.49678
 Alpha  occ. eigenvalues --   -0.48186  -0.48140  -0.47734  -0.46502  -0.46200
 Alpha  occ. eigenvalues --   -0.45502  -0.44912  -0.43567  -0.42715  -0.42181
 Alpha  occ. eigenvalues --   -0.41775  -0.41307  -0.40546  -0.39886  -0.38410
 Alpha  occ. eigenvalues --   -0.38052  -0.37904  -0.36990  -0.36471  -0.35367
 Alpha  occ. eigenvalues --   -0.34769  -0.34370  -0.33371  -0.32533  -0.27976
 Alpha  occ. eigenvalues --   -0.26998  -0.26377  -0.25689  -0.23203
 Alpha virt. eigenvalues --   -0.11542  -0.05131  -0.02583  -0.02144  -0.01550
 Alpha virt. eigenvalues --   -0.00174   0.02489   0.03827   0.04861   0.05290
 Alpha virt. eigenvalues --    0.05916   0.06300   0.07477   0.07747   0.08343

 Mulliken charges:
               1
     1  C   -0.093518
     2  C   -0.230879
     3  C    0.102886
     4  C    0.106440
     5  C   -0.177869
     6  C   -0.162645
     7  C    0.253800
     8  C    0.084742
     9  C    0.138591
    10  C   -0.272467
    11  H    0.172684
    12  C   -0.107552
    13  C   -0.259436
    14  C    0.242524
    15  H    0.169297
    16  H    0.184303
    17  H    0.159872
    18  H    0.166704
    19  H    0.169985
    20  N    0.053960
    21  C   -0.308412
    22  H    0.174463
    23  H    0.178411
    24  H    0.174702
    25  C    0.116340
    26  C   -0.212999
    27  C   -0.213048
    28  C   -0.175662
    29  C   -0.176772
    30  C   -0.118294
    31  H    0.148590
    32  H    0.148647
    33  H    0.147147
    34  H    0.147255
    35  H    0.150739
    36  O   -0.279054
    37  C   -0.237680
    38  H    0.153243
    39  H    0.153272
    40  H    0.161199
    41  H    0.166487
 Sum of Mulliken charges =   1.00000

 Dipole moment (field-independent basis, Debye):
    X=             -5.7506    Y=              3.3972    Z=              0.0151  Tot=              6.6791
 Quadrupole moment (field-independent basis, Debye-Ang):
   XX=            -74.3711   YY=            -91.5760   ZZ=           -129.3362
   XY=              3.8393   XZ=             -1.2220   YZ=              0.2355

 Normal termination of Gaussian 09 at Mon Feb 15 16:27:57 2021.
