                         Program Version 5.0.2 -  RELEASE  -
|  1> %maxcore 3200
|  2> %pal
|  3>  nprocs= 8
|  4> end
|  5> ! RI-B2PLYP D3BJ def2-TZVP def2/J def2-TZVP/C RIJCOSX CPCM TightSCF
|  6> %TDDFT DCORR 4
|  7>    NROOTS   30
|  8>
|  9>    TDA      FALSE
| 10> END
| 11>
| 12> %CPCM
| 13>    SMD          TRUE
| 14>    SMDsolvent   "ACETONITRILE"
| 15> END
| 16>
| 17>
| 18> * xyz 1 1
| 19> C                  -3.14769200   -3.00562300   -0.16049300
| 20> C                  -3.40382700   -1.66285200   -0.08385600
| 21> C                  -2.34161900   -0.74416600    0.00500800
| 22> C                  -1.00147800   -1.22363900   -0.02194200
| 23> C                  -0.78893000   -2.62356500   -0.07962500
| 24> C                  -1.83406400   -3.49759400   -0.14343500
| 25> C                   0.07741800   -0.31461000    0.00914600
| 26> C                  -0.18355100    1.06034500   -0.00273200
| 27> C                  -1.54795000    1.51382800    0.02087000
| 28> C                  -1.84226300    2.88158700   -0.04765200
| 29> H                  -2.86102700    3.22639700   -0.08787400
| 30> C                  -0.82096900    3.79298100   -0.10894600
| 31> C                   0.51812500    3.40910100   -0.09534500
| 32> C                   0.84611900    2.07411700   -0.04664800
| 33> H                  -4.42544500   -1.32196100   -0.12379800
| 34> H                   0.22672800   -2.99208100   -0.08195200
| 35> H                  -1.65307300   -4.56252100   -0.19312900
| 36> H                  -1.06171900    4.84616800   -0.17618200
| 37> H                   1.29115300    4.16070500   -0.13633000
| 38> N                  -2.56494300    0.60043800    0.10866500
| 39> C                  -3.92831600    1.09003600    0.31949500
| 40> H                  -3.90316400    1.94415000    0.98608400
| 41> H                  -4.39038400    1.37603500   -0.62407400
| 42> H                  -4.52008400    0.32179100    0.79708900
| 43> C                   1.44535500   -0.88951100    0.04048300
| 44> C                   2.09452900   -1.22643500   -1.14356200
| 45> C                   2.06418300   -1.14418400    1.26035400
| 46> C                   3.36138500   -1.78761300   -1.10590400
| 47> C                   3.33046700   -1.70794200    1.29249100
| 48> C                   3.98425000   -2.02710300    0.11094100
| 49> H                   3.86139700   -2.04150200   -2.03214800
| 50> H                   3.80588700   -1.90009700    2.24614300
| 51> H                   1.60736800   -1.03816300   -2.09270500
| 52> H                   1.55457200   -0.89202900    2.18241000
| 53> H                   4.97339000   -2.46606200    0.13829300
| 54> O                   2.10431100    1.63501100   -0.04875600
| 55> C                   3.16204100    2.58601200   -0.11067600
| 56> H                   3.10759500    3.17709500   -1.02618200
| 57> H                   3.14703300    3.24955700    0.75544000
| 58> H                   4.07934700    2.00445900   -0.10715100
| 59> H                  -3.97872600   -3.69411500   -0.24236800
| 60> *
| 61>
| 62>
| 63>                          ****END OF INPUT****

CARTESIAN COORDINATES (ANGSTROEM)
---------------------------------
  C     -3.147692   -3.005623   -0.160493
  C     -3.403827   -1.662852   -0.083856
  C     -2.341619   -0.744166    0.005008
  C     -1.001478   -1.223639   -0.021942
  C     -0.788930   -2.623565   -0.079625
  C     -1.834064   -3.497594   -0.143435
  C      0.077418   -0.314610    0.009146
  C     -0.183551    1.060345   -0.002732
  C     -1.547950    1.513828    0.020870
  C     -1.842263    2.881587   -0.047652
  H     -2.861027    3.226397   -0.087874
  C     -0.820969    3.792981   -0.108946
  C      0.518125    3.409101   -0.095345
  C      0.846119    2.074117   -0.046648
  H     -4.425445   -1.321961   -0.123798
  H      0.226728   -2.992081   -0.081952
  H     -1.653073   -4.562521   -0.193129
  H     -1.061719    4.846168   -0.176182
  H      1.291153    4.160705   -0.136330
  N     -2.564943    0.600438    0.108665
  C     -3.928316    1.090036    0.319495
  H     -3.903164    1.944150    0.986084
  H     -4.390384    1.376035   -0.624074
  H     -4.520084    0.321791    0.797089
  C      1.445355   -0.889511    0.040483
  C      2.094529   -1.226435   -1.143562
  C      2.064183   -1.144184    1.260354
  C      3.361385   -1.787613   -1.105904
  C      3.330467   -1.707942    1.292491
  C      3.984250   -2.027103    0.110941
  H      3.861397   -2.041502   -2.032148
  H      3.805887   -1.900097    2.246143
  H      1.607368   -1.038163   -2.092705
  H      1.554572   -0.892029    2.182410
  H      4.973390   -2.466062    0.138293
  O      2.104311    1.635011   -0.048756
  C      3.162041    2.586012   -0.110676
  H      3.107595    3.177095   -1.026182
  H      3.147033    3.249557    0.755440
  H      4.079347    2.004459   -0.107151
  H     -3.978726   -3.694115   -0.242368

 Total Charge           Charge          ....    1
 Multiplicity           Mult            ....    1
 Number of Electrons    NEL             ....  158
 Basis Dimension        Dim             ....  821

ORBITAL ENERGIES
----------------

  NO   OCC          E(Eh)            E(eV)
   0   2.0000     -19.771447      -538.0084
   1   2.0000     -14.935344      -406.4114
   2   2.0000     -10.715037      -291.5710
   3   2.0000     -10.708595      -291.3957
   4   2.0000     -10.704871      -291.2943
   5   2.0000     -10.693001      -290.9713
   6   2.0000     -10.665712      -290.2288
   7   2.0000     -10.662681      -290.1463
   8   2.0000     -10.658027      -290.0197
   9   2.0000     -10.652873      -289.8794
  10   2.0000     -10.647129      -289.7231
  11   2.0000     -10.643677      -289.6292
  12   2.0000     -10.639492      -289.5153
  13   2.0000     -10.639346      -289.5113
  14   2.0000     -10.634137      -289.3696
  15   2.0000     -10.628866      -289.2261
  16   2.0000     -10.624883      -289.1178
  17   2.0000     -10.622877      -289.0632
  18   2.0000     -10.622089      -289.0417
  19   2.0000     -10.622025      -289.0400
  20   2.0000     -10.620096      -288.9875
  21   2.0000     -10.619851      -288.9808
  22   2.0000     -10.618336      -288.9396
  23   2.0000      -1.237706       -33.6797
  24   2.0000      -1.158763       -31.5315
  25   2.0000      -1.021867       -27.8064
  26   2.0000      -1.010055       -27.4850
  27   2.0000      -0.989069       -26.9139
  28   2.0000      -0.954172       -25.9644
  29   2.0000      -0.904172       -24.6038
  30   2.0000      -0.891325       -24.2542
  31   2.0000      -0.882328       -24.0094
  32   2.0000      -0.870511       -23.6878
  33   2.0000      -0.866065       -23.5668
  34   2.0000      -0.830511       -22.5993
  35   2.0000      -0.819531       -22.3006
  36   2.0000      -0.780659       -21.2428
  37   2.0000      -0.766534       -20.8585
  38   2.0000      -0.725040       -19.7293
  39   2.0000      -0.705783       -19.2053
  40   2.0000      -0.704231       -19.1631
  41   2.0000      -0.677708       -18.4414
  42   2.0000      -0.661854       -18.0100
  43   2.0000      -0.660517       -17.9736
  44   2.0000      -0.627510       -17.0754
  45   2.0000      -0.599100       -16.3023
  46   2.0000      -0.589929       -16.0528
  47   2.0000      -0.580927       -15.8078
  48   2.0000      -0.576755       -15.6943
  49   2.0000      -0.568954       -15.4820
  50   2.0000      -0.556806       -15.1515
  51   2.0000      -0.554415       -15.0864
  52   2.0000      -0.549950       -14.9649
  53   2.0000      -0.536947       -14.6111
  54   2.0000      -0.533200       -14.5091
  55   2.0000      -0.525296       -14.2940
  56   2.0000      -0.519005       -14.1228
  57   2.0000      -0.504440       -13.7265
  58   2.0000      -0.494937       -13.4679
  59   2.0000      -0.488227       -13.2853
  60   2.0000      -0.479462       -13.0468
  61   2.0000      -0.477231       -12.9861
  62   2.0000      -0.470345       -12.7987
  63   2.0000      -0.456432       -12.4201
  64   2.0000      -0.445712       -12.1284
  65   2.0000      -0.442688       -12.0461
  66   2.0000      -0.439659       -11.9637
  67   2.0000      -0.431239       -11.7346
  68   2.0000      -0.420633       -11.4460
  69   2.0000      -0.413370       -11.2484
  70   2.0000      -0.408309       -11.1106
  71   2.0000      -0.405248       -11.0274
  72   2.0000      -0.385398       -10.4872
  73   2.0000      -0.369821       -10.0633
  74   2.0000      -0.312085        -8.4923
  75   2.0000      -0.304835        -8.2950
  76   2.0000      -0.297459        -8.0943
  77   2.0000      -0.292281        -7.9534
  78   2.0000      -0.262356        -7.1391
  79   0.0000      -0.068849        -1.8735
  80   0.0000       0.002651         0.0721
  81   0.0000       0.032243         0.8774
  82   0.0000       0.034630         0.9423
  83   0.0000       0.044134         1.2010

MULLIKEN ATOMIC CHARGES
-----------------------
   0 C :   -0.068589
   1 C :   -0.285553
   2 C :    0.143372
   3 C :    0.106643
   4 C :   -0.199259
   5 C :   -0.187549
   6 C :    0.301008
   7 C :    0.086710
   8 C :    0.182014
   9 C :   -0.331453
  10 H :    0.180279
  11 C :   -0.074534
  12 C :   -0.296024
  13 C :    0.252912
  14 H :    0.176470
  15 H :    0.190601
  16 H :    0.168162
  17 H :    0.176565
  18 H :    0.177112
  19 N :    0.022770
  20 C :   -0.304055
  21 H :    0.173502
  22 H :    0.175306
  23 H :    0.174910
  24 C :    0.165499
  25 C :   -0.247563
  26 C :   -0.248595
  27 C :   -0.187429
  28 C :   -0.187538
  29 C :   -0.126437
  30 H :    0.158229
  31 H :    0.158322
  32 H :    0.159724
  33 H :    0.159559
  34 H :    0.160008
  35 O :   -0.314640
  36 C :   -0.223603
  37 H :    0.149733
  38 H :    0.149539
  39 H :    0.158783
  40 H :    0.175087
Sum of atomic charges:    1.0000000

LOEWDIN ATOMIC CHARGES
----------------------
   0 C :   -0.084346
   1 C :   -0.104811
   2 C :   -0.072798
   3 C :   -0.053078
   4 C :   -0.059235
   5 C :   -0.127443
   6 C :    0.063215
   7 C :   -0.018065
   8 C :   -0.066143
   9 C :   -0.132380
  10 H :    0.164319
  11 C :   -0.080384
  12 C :   -0.133967
  13 C :   -0.178371
  14 H :    0.164238
  15 H :    0.170324
  16 H :    0.158076
  17 H :    0.165329
  18 H :    0.164707
  19 N :    0.306016
  20 C :   -0.209729
  21 H :    0.136121
  22 H :    0.133555
  23 H :    0.135258
  24 C :   -0.103206
  25 C :   -0.096033
  26 C :   -0.095601
  27 C :   -0.139597
  28 C :   -0.139412
  29 C :   -0.141657
  30 H :    0.152696
  31 H :    0.152696
  32 H :    0.158665
  33 H :    0.158556
  34 H :    0.151442
  35 O :    0.265171
  36 C :   -0.281455
  37 H :    0.117421
  38 H :    0.117369
  39 H :    0.119915
  40 H :    0.162622

  Mayer bond orders larger than 0.100000
B(  0-C ,  1-C ) :   1.5286 B(  0-C ,  5-C ) :   1.2450 B(  0-C , 40-H ) :   0.9704
B(  1-C ,  2-C ) :   1.2333 B(  1-C , 14-H ) :   0.9761 B(  2-C ,  3-C ) :   1.2898
B(  2-C , 19-N ) :   1.2441 B(  3-C ,  4-C ) :   1.1850 B(  3-C ,  6-C ) :   1.2101
B(  4-C ,  5-C ) :   1.5812 B(  4-C , 15-H ) :   0.9549 B(  5-C , 16-H ) :   0.9825
B(  6-C ,  7-C ) :   1.2461 B(  6-C , 24-C ) :   0.7355 B(  7-C ,  8-C ) :   1.2311
B(  7-C , 13-C ) :   1.1137 B(  8-C ,  9-C ) :   1.2513 B(  8-C , 19-N ) :   1.2567
B(  9-C , 10-H ) :   0.9813 B(  9-C , 11-C ) :   1.5115 B( 11-C , 12-C ) :   1.2780
B( 11-C , 17-H ) :   0.9653 B( 12-C , 13-C ) :   1.4725 B( 12-C , 18-H ) :   0.9776
B( 13-C , 35-O ) :   1.1822 B( 19-N , 20-C ) :   0.8780 B( 20-C , 21-H ) :   0.9607
B( 20-C , 22-H ) :   0.9593 B( 20-C , 23-H ) :   0.9579 B( 24-C , 25-C ) :   1.3935
B( 24-C , 26-C ) :   1.4000 B( 25-C , 27-C ) :   1.4372 B( 25-C , 32-H ) :   0.9844
B( 26-C , 28-C ) :   1.4383 B( 26-C , 33-H ) :   0.9857 B( 27-C , 29-C ) :   1.3890
B( 27-C , 30-H ) :   0.9817 B( 28-C , 29-C ) :   1.3899 B( 28-C , 31-H ) :   0.9819
B( 29-C , 34-H ) :   0.9771 B( 35-O , 36-C ) :   0.8803 B( 36-C , 37-H ) :   0.9689
B( 36-C , 38-H ) :   0.9686 B( 36-C , 39-H ) :   0.9721

MP2 TOTAL ENERGY:     -940.439961948 Eh

-----------------------------------------------------------------------------
         ABSORPTION SPECTRUM VIA TRANSITION ELECTRIC DIPOLE MOMENTS
-----------------------------------------------------------------------------
State   Energy    Wavelength  fosc         T2        TX        TY        TZ
        (cm-1)      (nm)                 (au**2)    (au)      (au)      (au)
-----------------------------------------------------------------------------
   1   20988.7    476.4   0.156940028   2.46164   1.53878   0.30528  -0.02452
   2   27039.3    369.8   0.009560828   0.11641  -0.12285  -0.31549  -0.04215
   3   29150.4    343.0   0.279289646   3.15417  -0.24306  -1.75926  -0.00920
   4   30033.6    333.0   0.006111993   0.06700   0.25875   0.00377   0.00539
   5   30226.8    330.8   0.002091324   0.02278   0.07398   0.13135  -0.00705
   6   36505.5    273.9   1.100997720   9.92896   0.93312   3.00967   0.01127
   7   41235.1    242.5   0.000558172   0.00446  -0.05473  -0.02932   0.02452
   8   42681.2    234.3   0.130013556   1.00283   0.49523  -0.86996   0.02733
   9   43541.8    229.7   0.161344463   1.21990   1.08013   0.23069   0.00234
  10   44562.5    224.4   0.119782984   0.88491  -0.40426  -0.84870  -0.03460
  11   46885.7    213.3   0.059199824   0.41568   0.62384   0.15555   0.04794
  12   45832.7    218.2   0.011998073   0.08618  -0.24240   0.16213   0.03372
  13   43618.3    229.3   0.041434813   0.31273   0.02429   0.02034   0.55833
  14   45520.5    219.7   0.160231368   1.15882   0.99407  -0.34823   0.22221
  15   44633.9    224.0   0.034998573   0.25814   0.48008  -0.15752   0.05341
  16   46736.6    214.0   0.555021614   3.90956  -1.79963   0.81753   0.05038
  17   44890.2    222.8   0.008104848   0.05944   0.11716  -0.16786   0.13242
  18   46905.5    213.2   0.071844817   0.50425  -0.65110   0.28004  -0.04358
  19   46174.0    216.6   0.012772658   0.09107   0.13149  -0.19070  -0.19342
  20   47833.1    209.1   0.109576050   0.75416   0.73447   0.45564  -0.08425
  21   51498.4    194.2   0.361207315   2.30908  -0.05693  -0.03099  -1.51818
  22   50952.1    196.3   0.326492333   2.10953   0.98152  -1.06899  -0.05831
  23   52487.3    190.5   0.274827197   1.72378  -1.29263   0.21160  -0.09008
  24   54272.9    184.3   0.002450859   0.01487   0.04440  -0.03674   0.10745
  25   50932.3    196.3   0.064328977   0.41580  -0.05375   0.16204   0.62182
  26   50515.5    198.0   0.011107980   0.07239  -0.14766   0.22290   0.03007
  27   51815.4    193.0   0.021051412   0.13375   0.03034   0.07757   0.35611
  28   52172.5    191.7   0.007633947   0.04817   0.07948   0.14365   0.14567
  29   51683.8    193.5   0.048784908   0.31075   0.07056  -0.32934   0.44419
  30   52592.3    190.1   0.136557392   0.85481   0.90721   0.17354   0.04075

Dispersion correction           -0.047504884
FINAL SINGLE POINT ENERGY      -939.176491402383

DIPOLE MOMENT
-------------
                                X             Y             Z
Electronic contribution:     -3.11915      -2.07852      -0.17751
Nuclear contribution   :      0.87379       3.40696       0.18037
                        -----------------------------------------
Total Dipole Moment    :     -2.24536       1.32844       0.00286
                        -----------------------------------------
Magnitude (a.u.)       :      2.60890
Magnitude (Debye)      :      6.63131

Rotational constants in cm-1:     0.011636     0.009229     0.005463
Rotational constants in MHz :   348.841277   276.680661   163.762894

                             ****ORCA TERMINATED NORMALLY****
TOTAL RUN TIME: 0 days 0 hours 41 minutes 43 seconds 30 msec
