                         Program Version 5.0.2 -  RELEASE  -
|  1> %maxcore 19200
|  2> %pal
|  3>  nprocs= 8
|  4> end
|  5> ! RI-DSD-BLYP D3BJ def2-TZVP def2/J def2-TZVP/C RIJCOSX CPCM TightSCF
|  6> %TDDFT DCORR 4
|  7>    NROOTS   30
|  8>
|  9>    TDA      FALSE
| 10> END
| 11>
| 12> %CPCM
| 13>    SMD          TRUE
| 14>    SMDsolvent   "ACETONITRILE"
| 15> END
| 16>
| 17>
| 18> * xyz 1 1
| 19> C                  -3.14769200   -3.00562300   -0.16049300
| 20> C                  -3.40382700   -1.66285200   -0.08385600
| 21> C                  -2.34161900   -0.74416600    0.00500800
| 22> C                  -1.00147800   -1.22363900   -0.02194200
| 23> C                  -0.78893000   -2.62356500   -0.07962500
| 24> C                  -1.83406400   -3.49759400   -0.14343500
| 25> C                   0.07741800   -0.31461000    0.00914600
| 26> C                  -0.18355100    1.06034500   -0.00273200
| 27> C                  -1.54795000    1.51382800    0.02087000
| 28> C                  -1.84226300    2.88158700   -0.04765200
| 29> H                  -2.86102700    3.22639700   -0.08787400
| 30> C                  -0.82096900    3.79298100   -0.10894600
| 31> C                   0.51812500    3.40910100   -0.09534500
| 32> C                   0.84611900    2.07411700   -0.04664800
| 33> H                  -4.42544500   -1.32196100   -0.12379800
| 34> H                   0.22672800   -2.99208100   -0.08195200
| 35> H                  -1.65307300   -4.56252100   -0.19312900
| 36> H                  -1.06171900    4.84616800   -0.17618200
| 37> H                   1.29115300    4.16070500   -0.13633000
| 38> N                  -2.56494300    0.60043800    0.10866500
| 39> C                  -3.92831600    1.09003600    0.31949500
| 40> H                  -3.90316400    1.94415000    0.98608400
| 41> H                  -4.39038400    1.37603500   -0.62407400
| 42> H                  -4.52008400    0.32179100    0.79708900
| 43> C                   1.44535500   -0.88951100    0.04048300
| 44> C                   2.09452900   -1.22643500   -1.14356200
| 45> C                   2.06418300   -1.14418400    1.26035400
| 46> C                   3.36138500   -1.78761300   -1.10590400
| 47> C                   3.33046700   -1.70794200    1.29249100
| 48> C                   3.98425000   -2.02710300    0.11094100
| 49> H                   3.86139700   -2.04150200   -2.03214800
| 50> H                   3.80588700   -1.90009700    2.24614300
| 51> H                   1.60736800   -1.03816300   -2.09270500
| 52> H                   1.55457200   -0.89202900    2.18241000
| 53> H                   4.97339000   -2.46606200    0.13829300
| 54> O                   2.10431100    1.63501100   -0.04875600
| 55> C                   3.16204100    2.58601200   -0.11067600
| 56> H                   3.10759500    3.17709500   -1.02618200
| 57> H                   3.14703300    3.24955700    0.75544000
| 58> H                   4.07934700    2.00445900   -0.10715100
| 59> H                  -3.97872600   -3.69411500   -0.24236800
| 60> *
| 61>
| 62>
| 63>                          ****END OF INPUT****

CARTESIAN COORDINATES (ANGSTROEM)
---------------------------------
  C     -3.147692   -3.005623   -0.160493
  C     -3.403827   -1.662852   -0.083856
  C     -2.341619   -0.744166    0.005008
  C     -1.001478   -1.223639   -0.021942
  C     -0.788930   -2.623565   -0.079625
  C     -1.834064   -3.497594   -0.143435
  C      0.077418   -0.314610    0.009146
  C     -0.183551    1.060345   -0.002732
  C     -1.547950    1.513828    0.020870
  C     -1.842263    2.881587   -0.047652
  H     -2.861027    3.226397   -0.087874
  C     -0.820969    3.792981   -0.108946
  C      0.518125    3.409101   -0.095345
  C      0.846119    2.074117   -0.046648
  H     -4.425445   -1.321961   -0.123798
  H      0.226728   -2.992081   -0.081952
  H     -1.653073   -4.562521   -0.193129
  H     -1.061719    4.846168   -0.176182
  H      1.291153    4.160705   -0.136330
  N     -2.564943    0.600438    0.108665
  C     -3.928316    1.090036    0.319495
  H     -3.903164    1.944150    0.986084
  H     -4.390384    1.376035   -0.624074
  H     -4.520084    0.321791    0.797089
  C      1.445355   -0.889511    0.040483
  C      2.094529   -1.226435   -1.143562
  C      2.064183   -1.144184    1.260354
  C      3.361385   -1.787613   -1.105904
  C      3.330467   -1.707942    1.292491
  C      3.984250   -2.027103    0.110941
  H      3.861397   -2.041502   -2.032148
  H      3.805887   -1.900097    2.246143
  H      1.607368   -1.038163   -2.092705
  H      1.554572   -0.892029    2.182410
  H      4.973390   -2.466062    0.138293
  O      2.104311    1.635011   -0.048756
  C      3.162041    2.586012   -0.110676
  H      3.107595    3.177095   -1.026182
  H      3.147033    3.249557    0.755440
  H      4.079347    2.004459   -0.107151
  H     -3.978726   -3.694115   -0.242368

 Total Charge           Charge          ....    1
 Multiplicity           Mult            ....    1
 Number of Electrons    NEL             ....  158
 Basis Dimension        Dim             ....  821

ORBITAL ENERGIES
----------------

  NO   OCC          E(Eh)            E(eV)
   0   2.0000     -20.055208      -545.7299
   1   2.0000     -15.182891      -413.1475
   2   2.0000     -10.929262      -297.4004
   3   2.0000     -10.923055      -297.2314
   4   2.0000     -10.918648      -297.1115
   5   2.0000     -10.908555      -296.8369
   6   2.0000     -10.876042      -295.9522
   7   2.0000     -10.873699      -295.8884
   8   2.0000     -10.868315      -295.7419
   9   2.0000     -10.863441      -295.6093
  10   2.0000     -10.860493      -295.5290
  11   2.0000     -10.856298      -295.4149
  12   2.0000     -10.851796      -295.2924
  13   2.0000     -10.851090      -295.2732
  14   2.0000     -10.844222      -295.0863
  15   2.0000     -10.839027      -294.9449
  16   2.0000     -10.834687      -294.8268
  17   2.0000     -10.833642      -294.7984
  18   2.0000     -10.833555      -294.7960
  19   2.0000     -10.832590      -294.7698
  20   2.0000     -10.831577      -294.7422
  21   2.0000     -10.831264      -294.7337
  22   2.0000     -10.829699      -294.6911
  23   2.0000      -1.307618       -35.5821
  24   2.0000      -1.223652       -33.2973
  25   2.0000      -1.083076       -29.4720
  26   2.0000      -1.070307       -29.1245
  27   2.0000      -1.049186       -28.5498
  28   2.0000      -1.012373       -27.5481
  29   2.0000      -0.958941       -26.0941
  30   2.0000      -0.946195       -25.7473
  31   2.0000      -0.936411       -25.4810
  32   2.0000      -0.924589       -25.1594
  33   2.0000      -0.921090       -25.0641
  34   2.0000      -0.881485       -23.9864
  35   2.0000      -0.869654       -23.6645
  36   2.0000      -0.829227       -22.5644
  37   2.0000      -0.813221       -22.1289
  38   2.0000      -0.770822       -20.9751
  39   2.0000      -0.751254       -20.4427
  40   2.0000      -0.749152       -20.3855
  41   2.0000      -0.720923       -19.6173
  42   2.0000      -0.703987       -19.1565
  43   2.0000      -0.699955       -19.0467
  44   2.0000      -0.666388       -18.1333
  45   2.0000      -0.636707       -17.3257
  46   2.0000      -0.627158       -17.0658
  47   2.0000      -0.617639       -16.8068
  48   2.0000      -0.614285       -16.7156
  49   2.0000      -0.604850       -16.4588
  50   2.0000      -0.593802       -16.1582
  51   2.0000      -0.590505       -16.0685
  52   2.0000      -0.586101       -15.9486
  53   2.0000      -0.572581       -15.5807
  54   2.0000      -0.568841       -15.4790
  55   2.0000      -0.560249       -15.2452
  56   2.0000      -0.553660       -15.0659
  57   2.0000      -0.538874       -14.6635
  58   2.0000      -0.529083       -14.3971
  59   2.0000      -0.521606       -14.1936
  60   2.0000      -0.511196       -13.9103
  61   2.0000      -0.508806       -13.8453
  62   2.0000      -0.502876       -13.6840
  63   2.0000      -0.485193       -13.2028
  64   2.0000      -0.476712       -12.9720
  65   2.0000      -0.474391       -12.9088
  66   2.0000      -0.469826       -12.7846
  67   2.0000      -0.462206       -12.5773
  68   2.0000      -0.449468       -12.2306
  69   2.0000      -0.443921       -12.0797
  70   2.0000      -0.438865       -11.9421
  71   2.0000      -0.435598       -11.8532
  72   2.0000      -0.411804       -11.2057
  73   2.0000      -0.391670       -10.6579
  74   2.0000      -0.329277        -8.9601
  75   2.0000      -0.322200        -8.7675
  76   2.0000      -0.314238        -8.5508
  77   2.0000      -0.310244        -8.4422
  78   2.0000      -0.278423        -7.5763
  79   0.0000      -0.046243        -1.2583
  80   0.0000       0.027417         0.7461
  81   0.0000       0.058488         1.5915
  82   0.0000       0.060256         1.6397
  83   0.0000       0.071581         1.9478

MULLIKEN ATOMIC CHARGES
-----------------------
   0 C :   -0.052262
   1 C :   -0.316809
   2 C :    0.164568
   3 C :    0.101645
   4 C :   -0.207991
   5 C :   -0.200016
   6 C :    0.323781
   7 C :    0.084524
   8 C :    0.204179
   9 C :   -0.363648
  10 H :    0.182458
  11 C :   -0.053087
  12 C :   -0.315556
  13 C :    0.254849
  14 H :    0.179066
  15 H :    0.193718
  16 H :    0.171879
  17 H :    0.180852
  18 H :    0.179668
  19 N :    0.010977
  20 C :   -0.301621
  21 H :    0.173324
  22 H :    0.174082
  23 H :    0.175559
  24 C :    0.191982
  25 C :   -0.264517
  26 C :   -0.266424
  27 C :   -0.191951
  28 C :   -0.191225
  29 C :   -0.131078
  30 H :    0.162602
  31 H :    0.162734
  32 H :    0.165182
  33 H :    0.164938
  34 H :    0.164266
  35 O :   -0.329072
  36 C :   -0.216630
  37 H :    0.148640
  38 H :    0.148433
  39 H :    0.158947
  40 H :    0.179036
Sum of atomic charges:    1.0000000

LOEWDIN ATOMIC CHARGES
----------------------
   0 C :   -0.079925
   1 C :   -0.108315
   2 C :   -0.067995
   3 C :   -0.056830
   4 C :   -0.056928
   5 C :   -0.130749
   6 C :    0.071397
   7 C :   -0.021806
   8 C :   -0.059960
   9 C :   -0.136766
  10 H :    0.163684
  11 C :   -0.073930
  12 C :   -0.138104
  13 C :   -0.170988
  14 H :    0.163651
  15 H :    0.170148
  16 H :    0.157475
  17 H :    0.165621
  18 H :    0.164016
  19 N :    0.298443
  20 C :   -0.206414
  21 H :    0.134692
  22 H :    0.131732
  23 H :    0.134001
  24 C :   -0.101876
  25 C :   -0.095256
  26 C :   -0.094890
  27 C :   -0.139052
  28 C :   -0.138869
  29 C :   -0.141017
  30 H :    0.152482
  31 H :    0.152481
  32 H :    0.158537
  33 H :    0.158432
  34 H :    0.151247
  35 O :    0.252647
  36 C :   -0.274782
  37 H :    0.116253
  38 H :    0.116197
  39 H :    0.118648
  40 H :    0.162665

  Mayer bond orders larger than 0.100000
B(  0-C ,  1-C ) :   1.5350 B(  0-C ,  5-C ) :   1.2405 B(  0-C , 40-H ) :   0.9714
B(  1-C ,  2-C ) :   1.2401 B(  1-C , 14-H ) :   0.9797 B(  2-C ,  3-C ) :   1.2969
B(  2-C , 19-N ) :   1.2498 B(  3-C ,  4-C ) :   1.1809 B(  3-C ,  6-C ) :   1.2166
B(  4-C ,  5-C ) :   1.5955 B(  4-C , 15-H ) :   0.9587 B(  5-C , 16-H ) :   0.9832
B(  6-C ,  7-C ) :   1.2491 B(  6-C , 24-C ) :   0.7163 B(  7-C ,  8-C ) :   1.2293
B(  7-C , 13-C ) :   1.1013 B(  8-C ,  9-C ) :   1.2574 B(  8-C , 19-N ) :   1.2650
B(  9-C , 10-H ) :   0.9850 B(  9-C , 11-C ) :   1.5168 B( 11-C , 12-C ) :   1.2718
B( 11-C , 17-H ) :   0.9657 B( 12-C , 13-C ) :   1.4942 B( 12-C , 18-H ) :   0.9814
B( 13-C , 35-O ) :   1.1776 B( 19-N , 20-C ) :   0.8675 B( 20-C , 21-H ) :   0.9637
B( 20-C , 22-H ) :   0.9635 B( 20-C , 23-H ) :   0.9605 B( 24-C , 25-C ) :   1.4083
B( 24-C , 26-C ) :   1.4164 B( 25-C , 27-C ) :   1.4471 B( 25-C , 32-H ) :   0.9835
B( 26-C , 28-C ) :   1.4480 B( 26-C , 33-H ) :   0.9851 B( 27-C , 29-C ) :   1.3958
B( 27-C , 30-H ) :   0.9826 B( 28-C , 29-C ) :   1.3971 B( 28-C , 31-H ) :   0.9827
B( 29-C , 34-H ) :   0.9785 B( 35-O , 36-C ) :   0.8717 B( 36-C , 37-H ) :   0.9722
B( 36-C , 38-H ) :   0.9719 B( 36-C , 39-H ) :   0.9744

MP2 TOTAL ENERGY:     -939.995927104 Eh

-----------------------------------------------------------------------------
         ABSORPTION SPECTRUM VIA TRANSITION ELECTRIC DIPOLE MOMENTS
-----------------------------------------------------------------------------
State   Energy    Wavelength  fosc         T2        TX        TY        TZ
        (cm-1)      (nm)                 (au**2)    (au)      (au)      (au)
-----------------------------------------------------------------------------
   1   14465.4    691.3   0.121595321   2.76734   1.62902   0.33617  -0.02541
   2   24751.5    404.0   0.267423514   3.55692   0.34105   1.85475   0.02214
   3   19612.5    509.9   0.003357739   0.05636  -0.05333   0.22712  -0.04397
   4   23521.4    425.1   0.025939098   0.36305  -0.10070   0.59406  -0.00011
   5   20362.7    491.1   0.000281236   0.00455  -0.04388   0.04918   0.01426
   6   28992.0    344.9   0.894867147  10.16145  -0.84556  -3.07349  -0.01257
   7   34883.9    286.7   0.000440989   0.00416  -0.05145  -0.03867  -0.00443
   8   48857.0    204.7   0.091281609   0.61508   0.75675  -0.20545   0.01426
   9   42959.0    232.8   0.098737049   0.75666   0.64688  -0.58085   0.02884
  10   34421.0    290.5   0.151101669   1.44518  -1.06458  -0.55831  -0.01147
  11   39651.5    252.2   0.025675400   0.21317   0.04582   0.45940   0.00461
  12   38194.7    261.8   0.020760930   0.17894  -0.22022  -0.35321  -0.07543
  13   42042.6    237.9   0.770537452   6.03364  -2.32382   0.71656  -0.34647
  14   40016.2    249.9   0.245407220   2.01896  -0.68641   0.26369   1.21584
  15   35420.6    282.3   0.061444411   0.57109   0.56926  -0.17837   0.46391
  16   35003.4    285.7   0.039368408   0.37027   0.38403  -0.42203  -0.21136
  17   43361.1    230.6   0.196866568   1.49468  -0.88588   0.76689  -0.34897
  18   37860.7    264.1   0.093816948   0.81577  -0.03778  -0.20774  -0.87817
  19   33132.0    301.8   0.053758001   0.53416  -0.42670  -0.01004   0.59328
  20   36871.1    271.2   0.032706253   0.29202   0.16008  -0.26399   0.44352
  21   42264.3    236.6   0.137297388   1.06946   0.72272  -0.71647  -0.18388
  22   39486.1    253.3   0.052605046   0.43859   0.26424   0.58211   0.17296
  23   46829.0    213.5   0.016996528   0.11949  -0.13119  -0.30661   0.09094
  24   36342.6    275.2   0.058389790   0.52893  -0.72639  -0.01373  -0.03306
  25   45520.8    219.7   0.108668525   0.78590   0.87520   0.13424  -0.04370
  26   41730.1    239.6   0.024372414   0.19228   0.06059  -0.12066  -0.41719
  27   53638.7    186.4   0.005752750   0.03531   0.01452  -0.00818  -0.18716
  28   40139.3    249.1   0.001472533   0.01208  -0.09414   0.02714  -0.04978
  29   38236.4    261.5   0.034025575   0.29296  -0.09564   0.51964  -0.11740
  30   41857.7    238.9   0.025181699   0.19805  -0.40483   0.11620   0.14376

Dispersion correction           -0.038555653
FINAL SINGLE POINT ENERGY      -938.143281584013

DIPOLE MOMENT
-------------
                                X             Y             Z
Electronic contribution:     -3.09008      -2.08802      -0.17899
Nuclear contribution   :      0.87379       3.40696       0.18037
                        -----------------------------------------
Total Dipole Moment    :     -2.21629       1.31894       0.00138
                        -----------------------------------------
Magnitude (a.u.)       :      2.57906
Magnitude (Debye)      :      6.55544

Rotational constants in cm-1:     0.011636     0.009229     0.005463
Rotational constants in MHz :   348.841277   276.680661   163.762894

                             ****ORCA TERMINATED NORMALLY****
TOTAL RUN TIME: 0 days 0 hours 53 minutes 15 seconds 853 msec
