                         Program Version 5.0.2 -  RELEASE  -
|  1> %maxcore 20000
|  2> %pal
|  3>  nprocs= 6
|  4> end
|  5> ! RI-SCS-PBE-QIDH   def2-TZVP def2/J def2-TZVP/C RIJCOSX CPCM TightSCF
|  6> %TDDFT
|  7>    NROOTS   30
|  8>    dcorr 4
|  9>    doscs true
| 10>    TDA      FALSE
| 11> END
| 12>
| 13> %CPCM
| 14>    SMD          TRUE
| 15>    SMDsolvent   "ACETONITRILE"
| 16> END
| 17>
| 18>
| 19> * xyz 1 1
| 20> C                  -3.14769200   -3.00562300   -0.16049300
| 21> C                  -3.40382700   -1.66285200   -0.08385600
| 22> C                  -2.34161900   -0.74416600    0.00500800
| 23> C                  -1.00147800   -1.22363900   -0.02194200
| 24> C                  -0.78893000   -2.62356500   -0.07962500
| 25> C                  -1.83406400   -3.49759400   -0.14343500
| 26> C                   0.07741800   -0.31461000    0.00914600
| 27> C                  -0.18355100    1.06034500   -0.00273200
| 28> C                  -1.54795000    1.51382800    0.02087000
| 29> C                  -1.84226300    2.88158700   -0.04765200
| 30> H                  -2.86102700    3.22639700   -0.08787400
| 31> C                  -0.82096900    3.79298100   -0.10894600
| 32> C                   0.51812500    3.40910100   -0.09534500
| 33> C                   0.84611900    2.07411700   -0.04664800
| 34> H                  -4.42544500   -1.32196100   -0.12379800
| 35> H                   0.22672800   -2.99208100   -0.08195200
| 36> H                  -1.65307300   -4.56252100   -0.19312900
| 37> H                  -1.06171900    4.84616800   -0.17618200
| 38> H                   1.29115300    4.16070500   -0.13633000
| 39> N                  -2.56494300    0.60043800    0.10866500
| 40> C                  -3.92831600    1.09003600    0.31949500
| 41> H                  -3.90316400    1.94415000    0.98608400
| 42> H                  -4.39038400    1.37603500   -0.62407400
| 43> H                  -4.52008400    0.32179100    0.79708900
| 44> C                   1.44535500   -0.88951100    0.04048300
| 45> C                   2.09452900   -1.22643500   -1.14356200
| 46> C                   2.06418300   -1.14418400    1.26035400
| 47> C                   3.36138500   -1.78761300   -1.10590400
| 48> C                   3.33046700   -1.70794200    1.29249100
| 49> C                   3.98425000   -2.02710300    0.11094100
| 50> H                   3.86139700   -2.04150200   -2.03214800
| 51> H                   3.80588700   -1.90009700    2.24614300
| 52> H                   1.60736800   -1.03816300   -2.09270500
| 53> H                   1.55457200   -0.89202900    2.18241000
| 54> H                   4.97339000   -2.46606200    0.13829300
| 55> O                   2.10431100    1.63501100   -0.04875600
| 56> C                   3.16204100    2.58601200   -0.11067600
| 57> H                   3.10759500    3.17709500   -1.02618200
| 58> H                   3.14703300    3.24955700    0.75544000
| 59> H                   4.07934700    2.00445900   -0.10715100
| 60> H                  -3.97872600   -3.69411500   -0.24236800
| 61> *
| 62>
| 63>
| 64>                          ****END OF INPUT****

CARTESIAN COORDINATES (ANGSTROEM)
---------------------------------
  C     -3.147692   -3.005623   -0.160493
  C     -3.403827   -1.662852   -0.083856
  C     -2.341619   -0.744166    0.005008
  C     -1.001478   -1.223639   -0.021942
  C     -0.788930   -2.623565   -0.079625
  C     -1.834064   -3.497594   -0.143435
  C      0.077418   -0.314610    0.009146
  C     -0.183551    1.060345   -0.002732
  C     -1.547950    1.513828    0.020870
  C     -1.842263    2.881587   -0.047652
  H     -2.861027    3.226397   -0.087874
  C     -0.820969    3.792981   -0.108946
  C      0.518125    3.409101   -0.095345
  C      0.846119    2.074117   -0.046648
  H     -4.425445   -1.321961   -0.123798
  H      0.226728   -2.992081   -0.081952
  H     -1.653073   -4.562521   -0.193129
  H     -1.061719    4.846168   -0.176182
  H      1.291153    4.160705   -0.136330
  N     -2.564943    0.600438    0.108665
  C     -3.928316    1.090036    0.319495
  H     -3.903164    1.944150    0.986084
  H     -4.390384    1.376035   -0.624074
  H     -4.520084    0.321791    0.797089
  C      1.445355   -0.889511    0.040483
  C      2.094529   -1.226435   -1.143562
  C      2.064183   -1.144184    1.260354
  C      3.361385   -1.787613   -1.105904
  C      3.330467   -1.707942    1.292491
  C      3.984250   -2.027103    0.110941
  H      3.861397   -2.041502   -2.032148
  H      3.805887   -1.900097    2.246143
  H      1.607368   -1.038163   -2.092705
  H      1.554572   -0.892029    2.182410
  H      4.973390   -2.466062    0.138293
  O      2.104311    1.635011   -0.048756
  C      3.162041    2.586012   -0.110676
  H      3.107595    3.177095   -1.026182
  H      3.147033    3.249557    0.755440
  H      4.079347    2.004459   -0.107151
  H     -3.978726   -3.694115   -0.242368

 Total Charge           Charge          ....    1
 Multiplicity           Mult            ....    1
 Number of Electrons    NEL             ....  158
 Basis Dimension        Dim             ....  821

ORBITAL ENERGIES
----------------

  NO   OCC          E(Eh)            E(eV)
   0   2.0000     -20.052759      -545.6633
   1   2.0000     -15.182634      -413.1405
   2   2.0000     -10.923598      -297.2462
   3   2.0000     -10.918222      -297.0999
   4   2.0000     -10.913761      -296.9785
   5   2.0000     -10.904462      -296.7255
   6   2.0000     -10.872057      -295.8437
   7   2.0000     -10.864729      -295.6443
   8   2.0000     -10.864259      -295.6315
   9   2.0000     -10.855679      -295.3981
  10   2.0000     -10.854821      -295.3747
  11   2.0000     -10.850637      -295.2608
  12   2.0000     -10.846953      -295.1606
  13   2.0000     -10.846380      -295.1450
  14   2.0000     -10.838960      -294.9431
  15   2.0000     -10.833509      -294.7948
  16   2.0000     -10.829348      -294.6815
  17   2.0000     -10.828257      -294.6518
  18   2.0000     -10.828187      -294.6499
  19   2.0000     -10.827045      -294.6189
  20   2.0000     -10.825763      -294.5840
  21   2.0000     -10.825441      -294.5752
  22   2.0000     -10.823913      -294.5337
  23   2.0000      -1.319578       -35.9075
  24   2.0000      -1.236588       -33.6493
  25   2.0000      -1.095208       -29.8021
  26   2.0000      -1.082393       -29.4534
  27   2.0000      -1.061022       -28.8719
  28   2.0000      -1.023977       -27.8638
  29   2.0000      -0.970212       -26.4008
  30   2.0000      -0.957207       -26.0469
  31   2.0000      -0.947521       -25.7834
  32   2.0000      -0.935333       -25.4517
  33   2.0000      -0.931693       -25.3526
  34   2.0000      -0.892008       -24.2728
  35   2.0000      -0.879870       -23.9425
  36   2.0000      -0.839516       -22.8444
  37   2.0000      -0.823847       -22.4180
  38   2.0000      -0.780885       -21.2490
  39   2.0000      -0.760915       -20.7055
  40   2.0000      -0.758794       -20.6478
  41   2.0000      -0.730544       -19.8791
  42   2.0000      -0.713422       -19.4132
  43   2.0000      -0.710271       -19.3274
  44   2.0000      -0.676330       -18.4039
  45   2.0000      -0.646066       -17.5803
  46   2.0000      -0.636027       -17.3072
  47   2.0000      -0.626570       -17.0498
  48   2.0000      -0.623080       -16.9549
  49   2.0000      -0.615008       -16.7352
  50   2.0000      -0.603028       -16.4092
  51   2.0000      -0.598920       -16.2974
  52   2.0000      -0.594531       -16.1780
  53   2.0000      -0.581281       -15.8174
  54   2.0000      -0.576628       -15.6908
  55   2.0000      -0.568024       -15.4567
  56   2.0000      -0.561494       -15.2790
  57   2.0000      -0.546654       -14.8752
  58   2.0000      -0.536158       -14.5896
  59   2.0000      -0.529169       -14.3994
  60   2.0000      -0.519213       -14.1285
  61   2.0000      -0.516969       -14.0675
  62   2.0000      -0.509716       -13.8701
  63   2.0000      -0.495145       -13.4736
  64   2.0000      -0.483951       -13.1690
  65   2.0000      -0.481039       -13.0897
  66   2.0000      -0.478754       -13.0276
  67   2.0000      -0.469157       -12.7664
  68   2.0000      -0.458334       -12.4719
  69   2.0000      -0.450405       -12.2561
  70   2.0000      -0.445782       -12.1304
  71   2.0000      -0.443211       -12.0604
  72   2.0000      -0.421535       -11.4706
  73   2.0000      -0.402486       -10.9522
  74   2.0000      -0.340069        -9.2538
  75   2.0000      -0.332894        -9.0585
  76   2.0000      -0.325033        -8.8446
  77   2.0000      -0.320962        -8.7338
  78   2.0000      -0.288491        -7.8502
  79   0.0000      -0.056755        -1.5444
  80   0.0000       0.017441         0.4746
  81   0.0000       0.049647         1.3510
  82   0.0000       0.051249         1.3946
  83   0.0000       0.062430         1.6988

MULLIKEN ATOMIC CHARGES
-----------------------
   0 C :   -0.053483
   1 C :   -0.348771
   2 C :    0.166456
   3 C :    0.096176
   4 C :   -0.221048
   5 C :   -0.209406
   6 C :    0.322578
   7 C :    0.070087
   8 C :    0.212105
   9 C :   -0.397242
  10 H :    0.191974
  11 C :   -0.058416
  12 C :   -0.339818
  13 C :    0.241742
  14 H :    0.187038
  15 H :    0.201432
  16 H :    0.180418
  17 H :    0.188073
  18 H :    0.190435
  19 N :    0.075974
  20 C :   -0.342127
  21 H :    0.185923
  22 H :    0.186089
  23 H :    0.188167
  24 C :    0.167570
  25 C :   -0.267052
  26 C :   -0.268104
  27 C :   -0.203488
  28 C :   -0.203697
  29 C :   -0.135440
  30 H :    0.171920
  31 H :    0.172017
  32 H :    0.174887
  33 H :    0.174907
  34 H :    0.173710
  35 O :   -0.285463
  36 C :   -0.264000
  37 H :    0.160333
  38 H :    0.160150
  39 H :    0.170674
  40 H :    0.186720
Sum of atomic charges:    1.0000000

LOEWDIN ATOMIC CHARGES
----------------------
   0 C :   -0.082550
   1 C :   -0.109904
   2 C :   -0.072277
   3 C :   -0.059355
   4 C :   -0.059522
   5 C :   -0.132194
   6 C :    0.067289
   7 C :   -0.023214
   8 C :   -0.064514
   9 C :   -0.138623
  10 H :    0.167248
  11 C :   -0.077120
  12 C :   -0.139559
  13 C :   -0.176099
  14 H :    0.167140
  15 H :    0.173402
  16 H :    0.161187
  17 H :    0.169117
  18 H :    0.167634
  19 N :    0.301290
  20 C :   -0.214597
  21 H :    0.138379
  22 H :    0.135877
  23 H :    0.137416
  24 C :   -0.108301
  25 C :   -0.097532
  26 C :   -0.096921
  27 C :   -0.141543
  28 C :   -0.141369
  29 C :   -0.143267
  30 H :    0.156145
  31 H :    0.156140
  32 H :    0.162464
  33 H :    0.162338
  34 H :    0.154870
  35 O :    0.257604
  36 C :   -0.284416
  37 H :    0.119693
  38 H :    0.119633
  39 H :    0.121842
  40 H :    0.166170

  Mayer bond orders larger than 0.100000
B(  0-C ,  1-C ) :   1.5375 B(  0-C ,  5-C ) :   1.2402 B(  0-C , 40-H ) :   0.9665
B(  1-C ,  2-C ) :   1.2355 B(  1-C , 14-H ) :   0.9770 B(  2-C ,  3-C ) :   1.3006
B(  2-C , 19-N ) :   1.2626 B(  3-C ,  4-C ) :   1.1746 B(  3-C ,  6-C ) :   1.2201
B(  4-C ,  5-C ) :   1.5939 B(  4-C , 15-H ) :   0.9561 B(  5-C , 16-H ) :   0.9795
B(  6-C ,  7-C ) :   1.2602 B(  6-C , 24-C ) :   0.7125 B(  7-C ,  8-C ) :   1.2212
B(  7-C , 13-C ) :   1.0929 B(  8-C ,  9-C ) :   1.2520 B(  8-C , 19-N ) :   1.2769
B(  9-C , 10-H ) :   0.9807 B(  9-C , 11-C ) :   1.5217 B( 11-C , 12-C ) :   1.2809
B( 11-C , 17-H ) :   0.9609 B( 12-C , 13-C ) :   1.4916 B( 12-C , 18-H ) :   0.9730
B( 13-C , 35-O ) :   1.1934 B( 19-N , 20-C ) :   0.8754 B( 20-C , 21-H ) :   0.9559
B( 20-C , 22-H ) :   0.9587 B( 20-C , 23-H ) :   0.9520 B( 24-C , 25-C ) :   1.4164
B( 24-C , 26-C ) :   1.4270 B( 25-C , 27-C ) :   1.4455 B( 25-C , 32-H ) :   0.9798
B( 26-C , 28-C ) :   1.4475 B( 26-C , 33-H ) :   0.9816 B( 27-C , 29-C ) :   1.3952
B( 27-C , 30-H ) :   0.9789 B( 28-C , 29-C ) :   1.3963 B( 28-C , 31-H ) :   0.9790
B( 29-C , 34-H ) :   0.9752 B( 35-O , 36-C ) :   0.8840 B( 36-C , 37-H ) :   0.9680
B( 36-C , 38-H ) :   0.9676 B( 36-C , 39-H ) :   0.9693

MP2 TOTAL ENERGY:     -939.981698119 Eh

-----------------------------------------------------------------------------
         ABSORPTION SPECTRUM VIA TRANSITION ELECTRIC DIPOLE MOMENTS
-----------------------------------------------------------------------------
State   Energy    Wavelength  fosc         T2        TX        TY        TZ
        (cm-1)      (nm)                 (au**2)    (au)      (au)      (au)
-----------------------------------------------------------------------------
   1   21411.9    467.0   0.178800169   2.74909   1.62315   0.33735  -0.02606
   2   28975.1    345.1   0.309378002   3.51512  -0.33518  -1.84452  -0.02250
   3   29576.0    338.1   0.005399837   0.06011  -0.05235   0.23575  -0.04227
   4   30124.8    332.0   0.030974615   0.33850  -0.11107   0.57111   0.00002
   5   33071.3    302.4   0.000439674   0.00438   0.03895  -0.05155  -0.01423
   6   37668.9    265.5   1.160850682  10.14539  -0.85427  -3.06847  -0.01184
   7   39867.9    250.8   0.000454806   0.00376   0.04945   0.03447   0.01102
   8   47361.6    211.1   0.114337442   0.79476   0.84581  -0.28109   0.01873
   9   46257.7    216.2   0.083818254   0.59653   0.48152  -0.60319   0.02872
  10   43217.9    231.4   0.189043650   1.44004  -1.08142  -0.51996  -0.01460
  11   46001.4    217.4   0.032682170   0.23389  -0.14666  -0.46079  -0.00712
  12   45930.8    217.7   0.023658363   0.16957   0.12088   0.38672   0.07354
  13   48551.8    206.0   0.567204496   3.84600  -1.81498   0.53467  -0.51574
  14   48914.0    204.4   0.489210919   3.29260   1.57692  -0.52676  -0.72694
  15   48335.4    206.9   0.166473802   1.13385  -0.50677   0.14088  -0.92584
  16   48890.6    204.5   0.046947630   0.31613  -0.29203   0.36683   0.31029
  17   51414.5    194.5   0.219174046   1.40339  -0.85046   0.62202  -0.54148
  18   50704.2    197.2   0.105336162   0.68393   0.50303  -0.54508  -0.36575
  19   47258.8    211.6   0.032386163   0.22561   0.45169   0.01010  -0.14656
  20   51069.8    195.8   0.169419980   1.09213   0.11957   0.02163  -1.03796
  21   52260.9    191.3   0.170501919   1.07406   0.70157  -0.75519  -0.10749
  22   51204.4    195.3   0.084019884   0.54019   0.26627   0.67566   0.11305
  23   51765.0    193.2   0.089650540   0.57015   0.75406  -0.01088   0.03788
  24   58162.3    171.9   0.002731800   0.01546  -0.01049   0.05402  -0.11151
  25   54849.8    182.3   0.032627001   0.19583  -0.06787   0.04888   0.43455
  26   55254.0    181.0   0.131688755   0.78462  -0.87941  -0.09804   0.04068
  27   54672.7    182.9   0.007148409   0.04304  -0.17001   0.06687  -0.09833
  28   53179.5    188.0   0.042159336   0.26099  -0.05894   0.50391  -0.05995
  29   56007.4    178.5   0.029432666   0.17301   0.38388  -0.11893  -0.10724
  30   55750.8    179.4   0.057592255   0.34009  -0.47670   0.15375  -0.29867

FINAL SINGLE POINT ENERGY      -938.505078055666

DIPOLE MOMENT
-------------
                                X             Y             Z
Electronic contribution:     -3.08699      -2.09196      -0.18011
Nuclear contribution   :      0.87379       3.40696       0.18037
                        -----------------------------------------
Total Dipole Moment    :     -2.21320       1.31500       0.00025
                        -----------------------------------------
Magnitude (a.u.)       :      2.57439
Magnitude (Debye)      :      6.54358

Rotational constants in cm-1:     0.011636     0.009229     0.005463
Rotational constants in MHz :   348.841277   276.680661   163.762894

                             ****ORCA TERMINATED NORMALLY****
TOTAL RUN TIME: 0 days 2 hours 25 minutes 47 seconds 609 msec
