                         Program Version 5.0.2 -  RELEASE  -
|  1> %maxcore 60000
|  2> %pal
|  3>  nprocs= 4
|  4> end
|  5> !STEOM-DLPNO-CCSD DEF2-TZVP DEF2-TZVP/C def2/J TightSCF TightPNO CPCM
|  6> %MDCI
|  7>    Dorootwise true
|  8>    OTHRESH 0.005
|  9>    VTHRESH 0.005
| 10>    TCutPNOSingles 1e-11
| 11>    DTol 1e-5
| 12>    NROOTS  25
| 13>    DOSOLV  TRUE
| 14>    MAXITER 500
| 15> END
| 16> %CPCM
| 17>    SMD          TRUE
| 18>    SMDsolvent   "ACETONITRILE"
| 19> END
| 20>
| 21>
| 22> * xyz 1 1
| 23> C                  -3.14769200   -3.00562300   -0.16049300
| 24> C                  -3.40382700   -1.66285200   -0.08385600
| 25> C                  -2.34161900   -0.74416600    0.00500800
| 26> C                  -1.00147800   -1.22363900   -0.02194200
| 27> C                  -0.78893000   -2.62356500   -0.07962500
| 28> C                  -1.83406400   -3.49759400   -0.14343500
| 29> C                   0.07741800   -0.31461000    0.00914600
| 30> C                  -0.18355100    1.06034500   -0.00273200
| 31> C                  -1.54795000    1.51382800    0.02087000
| 32> C                  -1.84226300    2.88158700   -0.04765200
| 33> H                  -2.86102700    3.22639700   -0.08787400
| 34> C                  -0.82096900    3.79298100   -0.10894600
| 35> C                   0.51812500    3.40910100   -0.09534500
| 36> C                   0.84611900    2.07411700   -0.04664800
| 37> H                  -4.42544500   -1.32196100   -0.12379800
| 38> H                   0.22672800   -2.99208100   -0.08195200
| 39> H                  -1.65307300   -4.56252100   -0.19312900
| 40> H                  -1.06171900    4.84616800   -0.17618200
| 41> H                   1.29115300    4.16070500   -0.13633000
| 42> N                  -2.56494300    0.60043800    0.10866500
| 43> C                  -3.92831600    1.09003600    0.31949500
| 44> H                  -3.90316400    1.94415000    0.98608400
| 45> H                  -4.39038400    1.37603500   -0.62407400
| 46> H                  -4.52008400    0.32179100    0.79708900
| 47> C                   1.44535500   -0.88951100    0.04048300
| 48> C                   2.09452900   -1.22643500   -1.14356200
| 49> C                   2.06418300   -1.14418400    1.26035400
| 50> C                   3.36138500   -1.78761300   -1.10590400
| 51> C                   3.33046700   -1.70794200    1.29249100
| 52> C                   3.98425000   -2.02710300    0.11094100
| 53> H                   3.86139700   -2.04150200   -2.03214800
| 54> H                   3.80588700   -1.90009700    2.24614300
| 55> H                   1.60736800   -1.03816300   -2.09270500
| 56> H                   1.55457200   -0.89202900    2.18241000
| 57> H                   4.97339000   -2.46606200    0.13829300
| 58> O                   2.10431100    1.63501100   -0.04875600
| 59> C                   3.16204100    2.58601200   -0.11067600
| 60> H                   3.10759500    3.17709500   -1.02618200
| 61> H                   3.14703300    3.24955700    0.75544000
| 62> H                   4.07934700    2.00445900   -0.10715100
| 63> H                  -3.97872600   -3.69411500   -0.24236800
| 64> *
| 65>
| 66>
| 67>                          ****END OF INPUT****

CARTESIAN COORDINATES (ANGSTROEM)
---------------------------------
  C     -3.147692   -3.005623   -0.160493
  C     -3.403827   -1.662852   -0.083856
  C     -2.341619   -0.744166    0.005008
  C     -1.001478   -1.223639   -0.021942
  C     -0.788930   -2.623565   -0.079625
  C     -1.834064   -3.497594   -0.143435
  C      0.077418   -0.314610    0.009146
  C     -0.183551    1.060345   -0.002732
  C     -1.547950    1.513828    0.020870
  C     -1.842263    2.881587   -0.047652
  H     -2.861027    3.226397   -0.087874
  C     -0.820969    3.792981   -0.108946
  C      0.518125    3.409101   -0.095345
  C      0.846119    2.074117   -0.046648
  H     -4.425445   -1.321961   -0.123798
  H      0.226728   -2.992081   -0.081952
  H     -1.653073   -4.562521   -0.193129
  H     -1.061719    4.846168   -0.176182
  H      1.291153    4.160705   -0.136330
  N     -2.564943    0.600438    0.108665
  C     -3.928316    1.090036    0.319495
  H     -3.903164    1.944150    0.986084
  H     -4.390384    1.376035   -0.624074
  H     -4.520084    0.321791    0.797089
  C      1.445355   -0.889511    0.040483
  C      2.094529   -1.226435   -1.143562
  C      2.064183   -1.144184    1.260354
  C      3.361385   -1.787613   -1.105904
  C      3.330467   -1.707942    1.292491
  C      3.984250   -2.027103    0.110941
  H      3.861397   -2.041502   -2.032148
  H      3.805887   -1.900097    2.246143
  H      1.607368   -1.038163   -2.092705
  H      1.554572   -0.892029    2.182410
  H      4.973390   -2.466062    0.138293
  O      2.104311    1.635011   -0.048756
  C      3.162041    2.586012   -0.110676
  H      3.107595    3.177095   -1.026182
  H      3.147033    3.249557    0.755440
  H      4.079347    2.004459   -0.107151
  H     -3.978726   -3.694115   -0.242368

 Total Charge           Charge          ....    1
 Multiplicity           Mult            ....    1
 Number of Electrons    NEL             ....  158
 Basis Dimension        Dim             ....  821

ORBITAL ENERGIES
----------------

  NO   OCC          E(Eh)            E(eV)
   0   2.0000     -20.599927      -560.5525
   1   2.0000     -15.654812      -425.9891
   2   2.0000     -11.338231      -308.5289
   3   2.0000     -11.332235      -308.3658
   4   2.0000     -11.326470      -308.2089
   5   2.0000     -11.319719      -308.0252
   6   2.0000     -11.277348      -306.8723
   7   2.0000     -11.275693      -306.8272
   8   2.0000     -11.268224      -306.6240
   9   2.0000     -11.267975      -306.6172
  10   2.0000     -11.265620      -306.5531
  11   2.0000     -11.262502      -306.4683
  12   2.0000     -11.257412      -306.3297
  13   2.0000     -11.254926      -306.2621
  14   2.0000     -11.244240      -305.9713
  15   2.0000     -11.239238      -305.8352
  16   2.0000     -11.237463      -305.7869
  17   2.0000     -11.237330      -305.7833
  18   2.0000     -11.235310      -305.7283
  19   2.0000     -11.234868      -305.7163
  20   2.0000     -11.233974      -305.6920
  21   2.0000     -11.233197      -305.6708
  22   2.0000     -11.231735      -305.6311
  23   2.0000      -1.438608       -39.1465
  24   2.0000      -1.343362       -36.5547
  25   2.0000      -1.195839       -32.5404
  26   2.0000      -1.181094       -32.1392
  27   2.0000      -1.159924       -31.5631
  28   2.0000      -1.119267       -30.4568
  29   2.0000      -1.059264       -28.8240
  30   2.0000      -1.046795       -28.4847
  31   2.0000      -1.036038       -28.1920
  32   2.0000      -1.023492       -27.8506
  33   2.0000      -1.022224       -27.8161
  34   2.0000      -0.974349       -26.5134
  35   2.0000      -0.961337       -26.1593
  36   2.0000      -0.917553       -24.9679
  37   2.0000      -0.897811       -24.4307
  38   2.0000      -0.853921       -23.2364
  39   2.0000      -0.833888       -22.6912
  40   2.0000      -0.830538       -22.6001
  41   2.0000      -0.799072       -21.7439
  42   2.0000      -0.779919       -21.2227
  43   2.0000      -0.770247       -20.9595
  44   2.0000      -0.736164       -20.0320
  45   2.0000      -0.704227       -19.1630
  46   2.0000      -0.694019       -18.8852
  47   2.0000      -0.682973       -18.5846
  48   2.0000      -0.681371       -18.5410
  49   2.0000      -0.670518       -18.2457
  50   2.0000      -0.659210       -17.9380
  51   2.0000      -0.655178       -17.8283
  52   2.0000      -0.650779       -17.7086
  53   2.0000      -0.636135       -17.3101
  54   2.0000      -0.632531       -17.2120
  55   2.0000      -0.622556       -16.9406
  56   2.0000      -0.615164       -16.7395
  57   2.0000      -0.600548       -16.3417
  58   2.0000      -0.590254       -16.0616
  59   2.0000      -0.581097       -15.8125
  60   2.0000      -0.569359       -15.4930
  61   2.0000      -0.562856       -15.3161
  62   2.0000      -0.560539       -15.2530
  63   2.0000      -0.536378       -14.5956
  64   2.0000      -0.531719       -14.4688
  65   2.0000      -0.530308       -14.4304
  66   2.0000      -0.523515       -14.2456
  67   2.0000      -0.517125       -14.0717
  68   2.0000      -0.500909       -13.6304
  69   2.0000      -0.497916       -13.5490
  70   2.0000      -0.492928       -13.4133
  71   2.0000      -0.488664       -13.2972
  72   2.0000      -0.457955       -12.4616
  73   2.0000      -0.427506       -11.6330
  74   2.0000      -0.358067        -9.7435
  75   2.0000      -0.349815        -9.5190
  76   2.0000      -0.340605        -9.2683
  77   2.0000      -0.339166        -9.2292
  78   2.0000      -0.304887        -8.2964
  79   0.0000       0.005109         0.1390
  80   0.0000       0.081192         2.2093
  81   0.0000       0.113639         3.0923
  82   0.0000       0.114581         3.1179
  83   0.0000       0.129966         3.5366

E(0)                                       ...   -935.238344780
E(0)                                       ...   -935.238344780
E(CORR)(strong-pairs)                      ...     -3.730639998
E(CORR)(weak-pairs)                        ...     -0.008179199
E(CORR)(corrected)                         ...     -3.738819196
E(TOT)                                     ...   -938.977163977

MULLIKEN ATOMIC CHARGES
-----------------------
   0 C :   -0.079243
   1 C :   -0.298865
   2 C :    0.109629
   3 C :    0.153557
   4 C :   -0.243446
   5 C :   -0.176443
   6 C :    0.286835
   7 C :    0.142612
   8 C :    0.139052
   9 C :   -0.329817
  10 H :    0.190576
  11 C :   -0.090275
  12 C :   -0.277201
  13 C :    0.158182
  14 H :    0.186289
  15 H :    0.195394
  16 H :    0.180110
  17 H :    0.187762
  18 H :    0.187285
  19 N :    0.079200
  20 C :   -0.381261
  21 H :    0.193288
  22 H :    0.200094
  23 H :    0.195465
  24 C :    0.158833
  25 C :   -0.261977
  26 C :   -0.287245
  27 C :   -0.192962
  28 C :   -0.187158
  29 C :   -0.142422
  30 H :    0.171254
  31 H :    0.172299
  32 H :    0.170421
  33 H :    0.169990
  34 H :    0.173084
  35 O :   -0.246398
  36 C :   -0.307325
  37 H :    0.167872
  38 H :    0.167882
  39 H :    0.178002
  40 H :    0.187072
Sum of atomic charges:    1.0000000

LOEWDIN ATOMIC CHARGES
----------------------
   0 C :   -0.095081
   1 C :   -0.104381
   2 C :   -0.081900
   3 C :   -0.049183
   4 C :   -0.068158
   5 C :   -0.126255
   6 C :    0.045924
   7 C :   -0.014016
   8 C :   -0.076357
   9 C :   -0.130822
  10 H :    0.169027
  11 C :   -0.092913
  12 C :   -0.133939
  13 C :   -0.197157
  14 H :    0.168866
  15 H :    0.175038
  16 H :    0.163371
  17 H :    0.170411
  18 H :    0.169802
  19 N :    0.328138
  20 C :   -0.223474
  21 H :    0.142158
  22 H :    0.140556
  23 H :    0.141171
  24 C :   -0.109916
  25 C :   -0.101001
  26 C :   -0.100870
  27 C :   -0.144595
  28 C :   -0.144507
  29 C :   -0.145830
  30 H :    0.157991
  31 H :    0.158158
  32 H :    0.163843
  33 H :    0.163622
  34 H :    0.156833
  35 O :    0.291032
  36 C :   -0.303147
  37 H :    0.122379
  38 H :    0.122327
  39 H :    0.125120
  40 H :    0.167733

  Mayer bond orders larger than 0.100000
B(  0-C ,  1-C ) :   1.4261 B(  0-C ,  5-C ) :   1.1348 B(  0-C , 40-H ) :   0.9211
B(  1-C ,  2-C ) :   1.1316 B(  1-C , 14-H ) :   0.9282 B(  2-C ,  3-C ) :   1.2161
B(  2-C , 19-N ) :   1.2027 B(  3-C ,  4-C ) :   1.1119 B(  3-C ,  6-C ) :   1.1706
B(  4-C ,  5-C ) :   1.4523 B(  4-C , 15-H ) :   0.9172 B(  5-C , 16-H ) :   0.9325
B(  6-C ,  7-C ) :   1.2047 B(  6-C , 24-C ) :   0.6871 B(  7-C ,  8-C ) :   1.1495
B(  7-C , 13-C ) :   1.0332 B(  8-C ,  9-C ) :   1.1567 B(  8-C , 19-N ) :   1.2126
B(  9-C , 10-H ) :   0.9304 B(  9-C , 11-C ) :   1.4062 B( 11-C , 12-C ) :   1.1636
B( 11-C , 17-H ) :   0.9174 B( 12-C , 13-C ) :   1.3680 B( 12-C , 18-H ) :   0.9293
B( 13-C , 35-O ) :   1.1692 B( 19-N , 20-C ) :   0.8248 B( 20-C , 21-H ) :   0.9071
B( 20-C , 22-H ) :   0.9072 B( 20-C , 23-H ) :   0.9042 B( 24-C , 25-C ) :   1.3109
B( 24-C , 26-C ) :   1.3026 B( 25-C , 27-C ) :   1.3398 B( 25-C , 32-H ) :   0.9348
B( 26-C , 28-C ) :   1.3329 B( 26-C , 33-H ) :   0.9399 B( 27-C , 29-C ) :   1.2820
B( 27-C , 30-H ) :   0.9324 B( 28-C , 29-C ) :   1.2862 B( 28-C , 31-H ) :   0.9319
B( 29-C , 34-H ) :   0.9306 B( 35-O , 36-C ) :   0.8334 B( 36-C , 37-H ) :   0.9159
B( 36-C , 38-H ) :   0.9156 B( 36-C , 39-H ) :   0.9197

-----------------------------------------------------------------------------
         ABSORPTION SPECTRUM VIA TRANSITION ELECTRIC DIPOLE MOMENTS
-----------------------------------------------------------------------------
State   Energy  Wavelength   fosc         T2         TX        TY        TZ
        (cm-1)    (nm)                  (au**2)     (au)      (au)      (au)
-----------------------------------------------------------------------------
   1   19903.7    502.4   0.127648022   2.11133   1.40528   0.36825   0.02922
   2   27609.0    362.2   0.084976357   1.01326   0.17775   0.99057   0.01791
   3   26371.9    379.2   0.003411974   0.04259   0.08119   0.18689   0.02782
   4   29445.2    339.6   0.093070616   1.04058   0.14623   1.00910   0.01277
   5   29850.8    335.0   0.001187847   0.01310   0.06159   0.09594   0.00471
   6   38615.8    259.0   0.000702680   0.00599   0.00579   0.05089   0.00869
   7   38296.1    261.1   0.760251197   6.53549   0.75330   2.44294   0.00378
   8   42388.6    235.9   0.361862063   2.81041   0.68865   1.52769   0.00598
   9   43691.2    228.9   0.124314973   0.93671   0.93055   0.24724   0.00732
  10   45603.6    219.3   0.013253303   0.09568   0.21175   0.16832   0.09307
  11   46325.1    215.9   0.277086129   1.96913   0.14759   1.38775   0.03471
  12   47330.8    211.3   0.022603866   0.15722   0.38149   0.09646   0.01669
  13   47250.5    211.6   0.023481084   0.16360   0.23861   0.07839   0.30943
  14   49170.4    203.4   0.043450384   0.29091   0.49030   0.13778   0.14557
  15   50276.5    198.9   0.022302283   0.14604   0.33590   0.18018   0.01984
  16   51102.5    195.7   0.655163693   4.22069   2.00632   0.43349   0.08239
  17   47114.5    212.2   0.021815764   0.15244   0.29206   0.20317   0.14200
  18   50564.4    197.8   0.044743332   0.29131   0.27141   0.46419   0.04620
  19   55488.9    180.2   0.009835082   0.05835   0.14015   0.12036   0.15531
  20   54918.7    182.1   0.187887166   1.12630   0.03709   0.05498   1.05794
  21   56476.0    177.1   0.058732046   0.34236   0.02487   0.03647   0.58330
  22   59281.4    168.7   0.003828086   0.02126   0.01038   0.01204   0.14378
  23   60029.4    166.6   0.032779089   0.17977   0.01284   0.01361   0.42349
  24   62540.1    159.9   0.000521046   0.00274   0.01779   0.04325   0.01763

FINAL SINGLE POINT ENERGY      -938.886476071212

DIPOLE MOMENT
-------------
                                X             Y             Z
Electronic contribution:     -3.19405      -2.07820      -0.17199
Nuclear contribution   :      0.87379       3.40696       0.18037
                        -----------------------------------------
Total Dipole Moment    :     -2.32025       1.32876       0.00837
                        -----------------------------------------
Magnitude (a.u.)       :      2.67381
Magnitude (Debye)      :      6.79629

Rotational constants in cm-1:     0.011636     0.009229     0.005463
Rotational constants in MHz :   348.841277   276.680661   163.762894

                             ****ORCA TERMINATED NORMALLY****
TOTAL RUN TIME: 0 days 10 hours 33 minutes 51 seconds 964 msec
