 Gaussian 09, Revision E.01,

 ----------------------------------------------------------------------
 #p PBEPBE/def2TZVP opt freq=noraman nosymm int=ultrafine scrf=(SMD,sol
 vent=Acetonitrile) EmpiricalDispersion=GD3BJ
 ----------------------------------------------------------------------

 -----
 Title
 -----
 Symbolic Z-matrix:
 Charge =  1 Multiplicity = 1

 SCF Done:  E(RPBE-PBE) =  -940.125246857     A.U. after   14 cycles
 SCF Done:  E(RPBE-PBE) =  -940.125668085     A.U. after   10 cycles
 SCF Done:  E(RPBE-PBE) =  -940.125817768     A.U. after    9 cycles
 SCF Done:  E(RPBE-PBE) =  -940.125839979     A.U. after    9 cycles
 SCF Done:  E(RPBE-PBE) =  -940.125842607     A.U. after    8 cycles
 SCF Done:  E(RPBE-PBE) =  -940.125844189     A.U. after    7 cycles
 SCF Done:  E(RPBE-PBE) =  -940.125845174     A.U. after    7 cycles
 SCF Done:  E(RPBE-PBE) =  -940.125845921     A.U. after    8 cycles
 SCF Done:  E(RPBE-PBE) =  -940.125846128     A.U. after    7 cycles
 SCF Done:  E(RPBE-PBE) =  -940.125846224     A.U. after    7 cycles
 SCF Done:  E(RPBE-PBE) =  -940.125846260     A.U. after    6 cycles
 SCF Done:  E(RPBE-PBE) =  -940.125846298     A.U. after    6 cycles
 SCF Done:  E(RPBE-PBE) =  -940.125846309     A.U. after    5 cycles
 Optimization completed.
    -- Stationary point found.
 Normal termination of Gaussian 09 at Sat Mar 27 16:08:28 2021.

 ---------------------------------------------------------------------
 #P Geom=AllCheck Guess=TCheck SCRF=Check GenChk RPBEPBE/def2TZVP Freq
 ---------------------------------------------------------------------

 Structure from the checkpoint file:  "cp.chk"
 -----
 Title
 -----
 Charge =  1 Multiplicity = 1

 SCF Done:  E(RPBE-PBE) =  -940.125846309     A.U. after    1 cycles

  Exact polarizability: 513.165  32.745 543.855  -0.622  -0.616 254.283
 Approx polarizability: 696.044  42.373 724.945  -1.249  -0.460 334.230

                      1                      2                      3
                      A                      A                      A
 Frequencies --     20.8378                43.8470                60.5403
 Red. masses --      4.4247                 3.7826                 4.1747
 Frc consts  --      0.0011                 0.0043                 0.0090
 IR Inten    --      0.0056                 0.0092                 0.5264

                      4                      5                      6
                      A                      A                      A
 Frequencies --     63.1461                80.8361               105.9132
 Red. masses --      4.1663                 4.0530                 2.9594
 Frc consts  --      0.0098                 0.0156                 0.0196
 IR Inten    --      0.4934                 5.7184                 3.2043

                      7                      8                      9
                      A                      A                      A
 Frequencies --    140.3368               144.4919               165.1254
 Red. masses --      1.7199                 2.2616                 3.6824
 Frc consts  --      0.0200                 0.0278                 0.0592
 IR Inten    --      0.2755                 0.8618                 1.2874

                     10                     11                     12
                      A                      A                      A
 Frequencies --    171.7252               216.7870               222.1434
 Red. masses --      3.2791                 4.2303                 5.4603
 Frc consts  --      0.0570                 0.1171                 0.1588
 IR Inten    --      2.0279                 1.1328                 1.2876

                     13                     14                     15
                      A                      A                      A
 Frequencies --    261.8660               267.0266               294.3696
 Red. masses --      4.1158                 1.7144                 2.0175
 Frc consts  --      0.1663                 0.0720                 0.1030
 IR Inten    --      0.3265                 0.3566                 0.2788

                     16                     17                     18
                      A                      A                      A
 Frequencies --    319.9523               346.7625               381.0181
 Red. masses --      3.8152                 5.0640                 4.5765
 Frc consts  --      0.2301                 0.3588                 0.3915
 IR Inten    --      3.3045                 6.4105                 1.6580

                     19                     20                     21
                      A                      A                      A
 Frequencies --    391.0108               403.0925               419.0232
 Red. masses --      3.0891                 6.3045                 2.5699
 Frc consts  --      0.2783                 0.6035                 0.2658
 IR Inten    --      0.2001                 6.1118                 0.6729

                     22                     23                     24
                      A                      A                      A
 Frequencies --    440.3962               480.6915               486.5989
 Red. masses --      3.2755                 3.8789                 5.5373
 Frc consts  --      0.3743                 0.5281                 0.7725
 IR Inten    --      3.7388                 2.0532                 3.9455

                     25                     26                     27
                      A                      A                      A
 Frequencies --    497.6024               530.2176               540.4743
 Red. masses --      3.7179                 3.3690                 5.9533
 Frc consts  --      0.5424                 0.5580                 1.0246
 IR Inten    --      2.1935                 9.3549                 4.1711

                     28                     29                     30
                      A                      A                      A
 Frequencies --    588.9239               606.6772               612.1243
 Red. masses --      5.5287                 6.0918                 4.5139
 Frc consts  --      1.1298                 1.3210                 0.9965
 IR Inten    --     33.1687                 0.2301                21.3637

                     31                     32                     33
                      A                      A                      A
 Frequencies --    626.6611               637.4803               658.3266
 Red. masses --      4.4274                 4.9046                 5.2889
 Frc consts  --      1.0244                 1.1743                 1.3505
 IR Inten    --      6.3941                 8.7687                44.2572

                     34                     35                     36
                      A                      A                      A
 Frequencies --    666.8954               691.8130               734.1839
 Red. masses --      3.4769                 1.5166                 2.1242
 Frc consts  --      0.9111                 0.4277                 0.6746
 IR Inten    --     32.1430               101.5988                49.1568

                     37                     38                     39
                      A                      A                      A
 Frequencies --    736.1105               744.2529               750.8021
 Red. masses --      3.4381                 1.6561                 2.3587
 Frc consts  --      1.0976                 0.5405                 0.7834
 IR Inten    --     17.8195                62.4118                39.8627

                     40                     41                     42
                      A                      A                      A
 Frequencies --    766.1825               807.2253               812.1682
 Red. masses --      2.0229                 4.3576                 3.6753
 Frc consts  --      0.6997                 1.6730                 1.4283
 IR Inten    --     93.4369                 8.3212                 8.2322

                     43                     44                     45
                      A                      A                      A
 Frequencies --    829.3736               843.1782               851.1840
 Red. masses --      1.2511                 1.4749                 2.1339
 Frc consts  --      0.5071                 0.6178                 0.9109
 IR Inten    --      0.0356                 3.5489                 1.9682

                     46                     47                     48
                      A                      A                      A
 Frequencies --    886.1002               908.9795               918.3059
 Red. masses --      1.8431                 5.1679                 3.2606
 Frc consts  --      0.8526                 2.5158                 1.6200
 IR Inten    --      5.3902                12.5627                 8.1724

                     49                     50                     51
                      A                      A                      A
 Frequencies --    939.5338               940.3894               945.9450
 Red. masses --      4.5728                 1.3659                 1.3713
 Frc consts  --      2.3782                 0.7117                 0.7230
 IR Inten    --     15.8085                 0.1268                 1.0024

                     52                     53                     54
                      A                      A                      A
 Frequencies --    956.6657               962.7683               970.9562
 Red. masses --      1.3243                 1.2869                 1.3344
 Frc consts  --      0.7141                 0.7028                 0.7412
 IR Inten    --      1.7698                 0.4572                 0.2450

                     55                     56                     57
                      A                      A                      A
 Frequencies --    989.2797              1022.8618              1027.0579
 Red. masses --      6.1636                 5.3349                 2.3317
 Frc consts  --      3.5540                 3.2886                 1.4491
 IR Inten    --      3.9771                54.4926                36.2398

                     58                     59                     60
                      A                      A                      A
 Frequencies --   1040.7143              1070.7761              1083.9451
 Red. masses --      2.1768                 1.5251                 2.5327
 Frc consts  --      1.3891                 1.0303                 1.7533
 IR Inten    --     16.5261                16.5429               162.1939

                     61                     62                     63
                      A                      A                      A
 Frequencies --   1093.3680              1103.9119              1122.4094
 Red. masses --      1.3686                 2.1086                 1.5637
 Frc consts  --      0.9640                 1.5139                 1.1607
 IR Inten    --     14.1660                 5.9716                10.3141

                     64                     65                     66
                      A                      A                      A
 Frequencies --   1125.3423              1134.3485              1147.2825
 Red. masses --      1.2790                 1.0601                 1.2048
 Frc consts  --      0.9543                 0.8037                 0.9344
 IR Inten    --      0.7977                 0.0013                 6.6111

                     67                     68                     69
                      A                      A                      A
 Frequencies --   1157.0359              1161.1711              1170.5468
 Red. masses --      1.1179                 1.3109                 1.4649
 Frc consts  --      0.8817                 1.0414                 1.1826
 IR Inten    --      0.3189                96.7777                11.2037

                     70                     71                     72
                      A                      A                      A
 Frequencies --   1181.5322              1193.2703              1249.6548
 Red. masses --      2.1940                 1.4953                 2.4486
 Frc consts  --      1.8046                 1.2544                 2.2529
 IR Inten    --      1.1771                 2.0027               407.7569

                     73                     74                     75
                      A                      A                      A
 Frequencies --   1263.4025              1293.2852              1293.7035
 Red. masses --      1.7557                 3.1856                 1.5250
 Frc consts  --      1.6512                 3.1393                 1.5038
 IR Inten    --     94.5179                88.6355                 3.3173

                     76                     77                     78
                      A                      A                      A
 Frequencies --   1310.1743              1333.0110              1356.4506
 Red. masses --      4.3775                 5.0987                 3.0013
 Frc consts  --      4.4273                 5.3379                 3.2536
 IR Inten    --     12.9218                 0.0071                39.6366

                     79                     80                     81
                      A                      A                      A
 Frequencies --   1364.6126              1371.5132              1394.5093
 Red. masses --      5.5856                 2.6951                 1.7608
 Frc consts  --      6.1283                 2.9870                 2.0175
 IR Inten    --    118.7940                18.0756                 2.1287

                     82                     83                     84
                      A                      A                      A
 Frequencies --   1400.6085              1412.3330              1420.1342
 Red. masses --      2.0201                 1.6308                 1.4185
 Frc consts  --      2.3348                 1.9166                 1.6855
 IR Inten    --    186.6491                 6.9095                37.7500

                     85                     86                     87
                      A                      A                      A
 Frequencies --   1425.1726              1428.8789              1432.2115
 Red. masses --      2.3100                 1.4822                 1.0477
 Frc consts  --      2.7644                 1.7830                 1.2662
 IR Inten    --     10.3044                 6.0727                15.9683

                     88                     89                     90
                      A                      A                      A
 Frequencies --   1444.0405              1457.6943              1462.1235
 Red. masses --      1.2022                 2.3398                 1.2931
 Frc consts  --      1.4771                 2.9292                 1.6288
 IR Inten    --     13.6129               367.6671                47.8548

                     91                     92                     93
                      A                      A                      A
 Frequencies --   1475.7712              1493.8560              1507.9187
 Red. masses --      2.1711                 2.5043                 5.0838
 Frc consts  --      2.7859                 3.2928                 6.8107
 IR Inten    --      8.7396                62.2206               439.4618

                     94                     95                     96
                      A                      A                      A
 Frequencies --   1551.2986              1566.4591              1572.0411
 Red. masses --      5.9509                 6.8743                 5.9723
 Frc consts  --      8.4377                 9.9384                 8.6960
 IR Inten    --     83.0876               312.1907                 1.7289

                     97                     98                     99
                      A                      A                      A
 Frequencies --   1593.3168              1594.3408              1612.7681
 Red. masses --      5.9147                 6.1126                 6.2267
 Frc consts  --      8.8469                 9.1545                 9.5423
 IR Inten    --    515.4240                 0.6157                49.0056

                    100                    101                    102
                      A                      A                      A
 Frequencies --   2967.7097              3011.1722              3043.3945
 Red. masses --      1.0318                 1.0414                 1.1075
 Frc consts  --      5.3543                 5.5634                 6.0438
 IR Inten    --     62.7865                16.6465                22.5309

                    103                    104                    105
                      A                      A                      A
 Frequencies --   3093.4195              3098.7157              3103.7519
 Red. masses --      1.1029                 1.0995                 1.0851
 Frc consts  --      6.2183                 6.2204                 6.1589
 IR Inten    --     11.2432                 3.4836                 0.1298

                    106                    107                    108
                      A                      A                      A
 Frequencies --   3109.3617              3116.9306              3122.6944
 Red. masses --      1.0871                 1.0913                 1.0880
 Frc consts  --      6.1925                 6.2465                 6.2510
 IR Inten    --      0.5533                 7.9878                 5.2663

                    109                    110                    111
                      A                      A                      A
 Frequencies --   3122.8214              3124.4380              3129.8176
 Red. masses --      1.0949                 1.0902                 1.0985
 Frc consts  --      6.2909                 6.2704                 6.3402
 IR Inten    --     24.5697                 7.8230                14.0833

                    112                    113                    114
                      A                      A                      A
 Frequencies --   3134.3578              3136.7320              3149.1361
 Red. masses --      1.0924                 1.1001                 1.0944
 Frc consts  --      6.3231                 6.3775                 6.3945
 IR Inten    --      4.9956                 1.8102                 8.0335

                    115                    116                    117
                      A                      A                      A
 Frequencies --   3163.3319              3172.7328              3188.5430
 Red. masses --      1.0914                 1.0916                 1.0913
 Frc consts  --      6.4347                 6.4742                 6.5372
 IR Inten    --      1.4198                 0.4403                 0.0590

 - Thermochemistry -
 -------------------
 Temperature   298.150 Kelvin.  Pressure   1.00000 Atm.
 Atom     1 has atomic number  6 and mass  12.00000

 Molecular mass:   300.13884 amu.
 Principal axes and moments of inertia in atomic units:
                           1         2         3
     Eigenvalues --  5235.352786585.06675**********
           X            0.99993   0.01198   0.00090
           Y           -0.01199   0.99990   0.00799
           Z           -0.00081  -0.00800   0.99997
 This molecule is an asymmetric top.
 Rotational symmetry number  1.
 Warning -- assumption of classical behavior for rotation
           may cause significant error
 Rotational temperatures (Kelvin)      0.01654     0.01315     0.00778
 Rotational constants (GHZ):           0.34472     0.27407     0.16203
 Zero-point vibrational energy     860020.7 (Joules/Mol)
                                  205.54989 (Kcal/Mol)
 Warning -- explicit consideration of  30 degrees of freedom as
           vibrations may cause significant error
 Vibrational temperatures:     29.98    63.09    87.10    90.85   116.31
          (Kelvin)            152.39   201.91   207.89   237.58   247.07
                              311.91   319.61   376.77   384.19   423.53
                              460.34   498.91   548.20   562.58   579.96
                              602.88   633.63   691.61   700.11   715.94
                              762.86   777.62   847.33   872.87   880.71
                              901.62   917.19   947.18   959.51   995.36
                             1056.33  1059.10  1070.81  1080.24  1102.36
                             1161.42  1168.53  1193.28  1213.14  1224.66
                             1274.90  1307.82  1321.24  1351.78  1353.01
                             1361.00  1376.43  1385.21  1396.99  1423.35
                             1471.67  1477.71  1497.35  1540.61  1559.55
                             1573.11  1588.28  1614.89  1619.11  1632.07
                             1650.68  1664.71  1670.66  1684.15  1699.96
                             1716.85  1797.97  1817.75  1860.75  1861.35
                             1885.05  1917.90  1951.63  1963.37  1973.30
                             2006.39  2015.16  2032.03  2043.25  2050.50
                             2055.84  2060.63  2077.65  2097.29  2103.67
                             2123.30  2149.32  2169.56  2231.97  2253.78
                             2261.81  2292.42  2293.90  2320.41  4269.87
                             4332.40  4378.76  4450.74  4458.36  4465.60
                             4473.67  4484.56  4492.86  4493.04  4495.36
                             4503.10  4509.64  4513.05  4530.90  4551.32
                             4564.85  4587.60

 Zero-point correction=                           0.327565 (Hartree/Particle)
 Thermal correction to Energy=                    0.346605
 Thermal correction to Enthalpy=                  0.347549
 Thermal correction to Gibbs Free Energy=         0.279873
 Sum of electronic and zero-point Energies=           -939.798282
 Sum of electronic and thermal Energies=              -939.779242
 Sum of electronic and thermal Enthalpies=            -939.778298
 Sum of electronic and thermal Free Energies=         -939.845973

                     E (Thermal)             CV                S
                      KCal/Mol        Cal/Mol-Kelvin    Cal/Mol-Kelvin
 Total                  217.498             76.820            142.435
 Electronic               0.000              0.000              0.000
 Translational            0.889              2.981             42.994
 Rotational               0.889              2.981             34.306
 Vibrational            215.720             70.858             65.135
 Vibration     1          0.593              1.986              6.553
 Vibration     2          0.595              1.980              5.077
 Vibration     3          0.597              1.973              4.440
 Vibration     4          0.597              1.972              4.356
 Vibration     5          0.600              1.962              3.870
 Vibration     6          0.605              1.945              3.342
 Vibration     7          0.615              1.913              2.799
 Vibration     8          0.616              1.909              2.744
 Vibration     9          0.624              1.885              2.490
 Vibration    10          0.626              1.877              2.417
 Vibration    11          0.646              1.815              1.986
 Vibration    12          0.648              1.807              1.942
 Vibration    13          0.669              1.743              1.649
 Vibration    14          0.672              1.734              1.615
 Vibration    15          0.689              1.684              1.449
 Vibration    16          0.706              1.635              1.310
 Vibration    17          0.725              1.582              1.181
 Vibration    18          0.751              1.511              1.035
 Vibration    19          0.759              1.489              0.996
 Vibration    20          0.768              1.463              0.951
 Vibration    21          0.782              1.429              0.895
 Vibration    22          0.800              1.382              0.825
 Vibration    23          0.837              1.293              0.708
 Vibration    24          0.843              1.280              0.692
 Vibration    25          0.853              1.255              0.664
 Vibration    26          0.885              1.183              0.587
 Vibration    27          0.896              1.161              0.564
 Vibration    28          0.946              1.055              0.469
 Vibration    29          0.965              1.018              0.438
 Vibration    30          0.971              1.006              0.429

 Optimization completed.
    -- Stationary point found.
 Normal termination of Gaussian 09 at Sat Mar 27 19:03:55 2021.
 Gaussian 09:  ES64L-G09RevE.01 30-Nov-2015

 ----------------------------------------------------------------------
 #p PBEPBE chkbasis geom=allcheck Guess=Read int=ultrafine scrf=(SMD,so
 lvent=Acetonitrile) td=(NStates=30) EmpiricalDispersion=GD3BJ
 ----------------------------------------------------------------------

 Structure from the checkpoint file:  "cp.chk"
 -----
 Title
 -----
 Charge =  1 Multiplicity = 1

                         Standard orientation:
 ---------------------------------------------------------------------
 Center     Atomic      Atomic             Coordinates (Angstroms)
 Number     Number       Type             X           Y           Z
 ---------------------------------------------------------------------
      1          6           0       -3.152095   -3.034104   -0.152046
      2          6           0       -3.417613   -1.681927   -0.079913
      3          6           0       -2.352483   -0.753063    0.006605
      4          6           0       -1.001650   -1.230895   -0.017468
      5          6           0       -0.777913   -2.636600   -0.072220
      6          6           0       -1.827174   -3.522366   -0.133169
      7          6           0        0.079786   -0.312692    0.012040
      8          6           0       -0.187762    1.068428    0.000692
      9          6           0       -1.563207    1.519377    0.015973
     10          6           0       -1.863868    2.893847   -0.061256
     11          1           0       -2.891179    3.239951   -0.111702
     12          6           0       -0.836994    3.815137   -0.119304
     13          6           0        0.512132    3.433221   -0.090832
     14          6           0        0.846922    2.089800   -0.033945
     15          1           0       -4.450115   -1.345784   -0.123192
     16          1           0        0.248454   -2.999542   -0.074474
     17          1           0       -1.639482   -4.595429   -0.180204
     18          1           0       -1.082203    4.875885   -0.193585
     19          1           0        1.287582    4.195213   -0.126272
     20          7           0       -2.582765    0.597841    0.103561
     21          6           0       -3.955964    1.083291    0.305439
     22          1           0       -3.934735    1.957320    0.962108
     23          1           0       -4.420648    1.347192   -0.654284
     24          1           0       -4.542791    0.309763    0.802900
     25          6           0        1.454705   -0.885630    0.035475
     26          6           0        2.109141   -1.196470   -1.163603
     27          6           0        2.071505   -1.174435    1.259342
     28          6           0        3.382743   -1.766749   -1.135935
     29          6           0        3.345264   -1.745558    1.281126
     30          6           0        4.006113   -2.038796    0.085148
     31          1           0        3.888528   -2.001641   -2.074418
     32          1           0        3.821448   -1.964186    2.238819
     33          1           0        1.620819   -0.982748   -2.116097
     34          1           0        1.554358   -0.944497    2.192667
     35          1           0        5.002214   -2.484513    0.104476
     36          8           0        2.113946    1.650801   -0.016947
     37          6           0        3.180247    2.614086   -0.068944
     38          1           0        3.131764    3.203500   -0.996774
     39          1           0        3.147949    3.282707    0.804464
     40          1           0        4.101031    2.021079   -0.050944
     41          1           0       -3.986218   -3.732983   -0.232055
 ---------------------------------------------------------------------

 SCF Done:  E(RPBE-PBE) =  -940.125830336     A.U. after    6 cycles

 Excitation energies and oscillator strengths:

 Excited State   1:      Singlet-A      2.2255 eV  557.10 nm  f=0.0760  <S**2>=0.000
      79 -> 80         0.69710
 This state for optimization and/or second-order correction.
 Total Energy, E(TD-HF/TD-KS) =  -940.044042960
 Copying the excited state density for this state as the 1-particle RhoCI density.

 Excited State   2:      Singlet-A      2.5103 eV  493.90 nm  f=0.0000  <S**2>=0.000
      78 -> 80         0.70677

 Excited State   3:      Singlet-A      2.7365 eV  453.08 nm  f=0.0048  <S**2>=0.000
      76 -> 80         0.14250
      77 -> 80         0.68841

 Excited State   4:      Singlet-A      3.1303 eV  396.07 nm  f=0.0295  <S**2>=0.000
      76 -> 80         0.66974
      77 -> 80        -0.13257

 Excited State   5:      Singlet-A      3.5315 eV  351.08 nm  f=0.0386  <S**2>=0.000
      75 -> 80         0.56053
      79 -> 81         0.41317

 Excited State   6:      Singlet-A      4.0160 eV  308.73 nm  f=0.5958  <S**2>=0.000
      75 -> 80        -0.35798
      76 -> 81         0.19086
      79 -> 81         0.51628
      79 -> 84         0.18197

 Excited State   7:      Singlet-A      4.1445 eV  299.16 nm  f=0.0062  <S**2>=0.000
      78 -> 81         0.70096

 Excited State   8:      Singlet-A      4.2435 eV  292.18 nm  f=0.0277  <S**2>=0.000
      73 -> 80        -0.12057
      74 -> 80        -0.14492
      77 -> 81         0.10973
      79 -> 82         0.55572
      79 -> 83        -0.30644
      79 -> 84        -0.14820

 Excited State   9:      Singlet-A      4.2513 eV  291.64 nm  f=0.0069  <S**2>=0.000
      79 -> 82         0.26204
      79 -> 83         0.63592

 Excited State  10:      Singlet-A      4.3644 eV  284.08 nm  f=0.0034  <S**2>=0.000
      70 -> 80        -0.11275
      73 -> 80         0.16819
      74 -> 80        -0.30063
      77 -> 81         0.57163
      79 -> 82        -0.13674

 Excited State  11:      Singlet-A      4.3839 eV  282.82 nm  f=0.0461  <S**2>=0.000
      70 -> 80         0.19905
      74 -> 80         0.50690
      76 -> 81         0.15470
      77 -> 81         0.32219
      79 -> 84        -0.21879
      79 -> 85        -0.10139

 Excited State  12:      Singlet-A      4.4254 eV  280.16 nm  f=0.0002  <S**2>=0.000
      72 -> 80         0.70439

 Excited State  13:      Singlet-A      4.4909 eV  276.08 nm  f=0.0057  <S**2>=0.000
      71 -> 80         0.37956
      73 -> 80         0.35345
      74 -> 80         0.14608
      76 -> 81        -0.15909
      79 -> 82         0.17532
      79 -> 84         0.34915
      79 -> 85         0.11174

 Excited State  14:      Singlet-A      4.4978 eV  275.66 nm  f=0.0745  <S**2>=0.000
      70 -> 80         0.15876
      71 -> 80        -0.35960
      73 -> 80        -0.24639
      74 -> 80         0.11491
      77 -> 81         0.13434
      79 -> 84         0.42689
      79 -> 85         0.18814

 Excited State  15:      Singlet-A      4.5500 eV  272.49 nm  f=0.0354  <S**2>=0.000
      70 -> 80         0.11053
      71 -> 80         0.47008
      73 -> 80        -0.45499

 Excited State  16:      Singlet-A      4.7503 eV  261.00 nm  f=0.0009  <S**2>=0.000
      78 -> 82         0.68270
      78 -> 84         0.15883

 Excited State  17:      Singlet-A      4.7920 eV  258.73 nm  f=0.3909  <S**2>=0.000
      70 -> 80         0.45054
      74 -> 80        -0.12857
      75 -> 80        -0.13512
      76 -> 81        -0.42895
      79 -> 81         0.10990
      79 -> 84        -0.13200

 Excited State  18:      Singlet-A      4.9080 eV  252.62 nm  f=0.2416  <S**2>=0.000
      70 -> 80         0.38677
      73 -> 80         0.10867
      74 -> 80        -0.14053
      75 -> 80         0.11211
      75 -> 81         0.18750
      75 -> 82         0.17369
      76 -> 81         0.39167
      79 -> 86        -0.18996

 Excited State  19:      Singlet-A      4.9814 eV  248.89 nm  f=0.0113  <S**2>=0.000
      76 -> 82         0.15908
      77 -> 82         0.63509
      77 -> 84         0.21789

 Excited State  20:      Singlet-A      5.0610 eV  244.98 nm  f=0.0078  <S**2>=0.000
      68 -> 80        -0.42857
      69 -> 80         0.53903

 Excited State  21:      Singlet-A      5.0961 eV  243.29 nm  f=0.0001  <S**2>=0.000
      77 -> 83        -0.46329
      78 -> 84         0.51224

 Excited State  22:      Singlet-A      5.1097 eV  242.65 nm  f=0.0746  <S**2>=0.000
      68 -> 80         0.36298
      69 -> 80         0.15883
      76 -> 82         0.14644
      76 -> 85        -0.18205
      77 -> 85         0.12008
      79 -> 82        -0.11537
      79 -> 84        -0.16140
      79 -> 85         0.44475

 Excited State  23:      Singlet-A      5.1789 eV  239.40 nm  f=0.0005  <S**2>=0.000
      76 -> 83         0.66736
      77 -> 83        -0.11403
      78 -> 84        -0.17250

 Excited State  24:      Singlet-A      5.2216 eV  237.44 nm  f=0.0398  <S**2>=0.000
      68 -> 80        -0.29689
      69 -> 80        -0.25707
      76 -> 82         0.40432
      76 -> 84        -0.27742
      77 -> 84         0.10772
      79 -> 85         0.15778
      79 -> 86        -0.12350

 Excited State  25:      Singlet-A      5.2846 eV  234.62 nm  f=0.0071  <S**2>=0.000
      67 -> 80         0.16805
      68 -> 80        -0.23903
      69 -> 80        -0.23795
      75 -> 81        -0.15784
      75 -> 82         0.11176
      76 -> 84         0.44358
      77 -> 84        -0.22165
      78 -> 85         0.10964
      79 -> 85         0.15750

 Excited State  26:      Singlet-A      5.3027 eV  233.81 nm  f=0.0050  <S**2>=0.000
      67 -> 80         0.53952
      77 -> 83         0.10087
      78 -> 85        -0.41758

 Excited State  27:      Singlet-A      5.3102 eV  233.48 nm  f=0.0040  <S**2>=0.000
      67 -> 80         0.40510
      76 -> 84        -0.12150
      77 -> 83        -0.12418
      78 -> 85         0.51929

 Excited State  28:      Singlet-A      5.3381 eV  232.26 nm  f=0.1126  <S**2>=0.000
      67 -> 80         0.10538
      70 -> 80        -0.14016
      74 -> 80         0.11021
      75 -> 81         0.46862
      75 -> 82        -0.30215
      76 -> 82        -0.13368
      76 -> 84         0.10538
      79 -> 86        -0.23333

 Excited State  29:      Singlet-A      5.3872 eV  230.14 nm  f=0.0013  <S**2>=0.000
      66 -> 80         0.69622

 Excited State  30:      Singlet-A      5.4886 eV  225.89 nm  f=0.0003  <S**2>=0.000
      65 -> 80         0.70235

 The electronic state is 1-A.
 Alpha  occ. eigenvalues --  -18.80550 -14.08655  -9.97537  -9.96910  -9.96717
 Alpha  occ. eigenvalues --   -9.95073  -9.93840  -9.93260  -9.93062  -9.92426
 Alpha  occ. eigenvalues --   -9.91213  -9.91097  -9.91072  -9.90794  -9.90785
 Alpha  occ. eigenvalues --   -9.90209  -9.89916  -9.89744  -9.89332  -9.89331
 Alpha  occ. eigenvalues --   -9.89115  -9.89109  -9.88969  -1.00307  -0.93939
 Alpha  occ. eigenvalues --   -0.81503  -0.80536  -0.78526  -0.75651  -0.71829
 Alpha  occ. eigenvalues --   -0.70516  -0.69994  -0.68650  -0.68003  -0.65619
 Alpha  occ. eigenvalues --   -0.64828  -0.61461  -0.60646  -0.56845  -0.55059
 Alpha  occ. eigenvalues --   -0.55023  -0.52937  -0.52263  -0.51643  -0.49250
 Alpha  occ. eigenvalues --   -0.46825  -0.46073  -0.45201  -0.44742  -0.44382
 Alpha  occ. eigenvalues --   -0.42807  -0.42760  -0.42497  -0.41304  -0.40857
 Alpha  occ. eigenvalues --   -0.40260  -0.39718  -0.38446  -0.37612  -0.37216
 Alpha  occ. eigenvalues --   -0.36973  -0.36407  -0.35602  -0.35485  -0.33840
 Alpha  occ. eigenvalues --   -0.33459  -0.33091  -0.32313  -0.32106  -0.30859
 Alpha  occ. eigenvalues --   -0.30202  -0.29897  -0.29583  -0.28870  -0.25453
 Alpha  occ. eigenvalues --   -0.24148  -0.23680  -0.22923  -0.20705
 Alpha virt. eigenvalues --   -0.13732  -0.07758  -0.05575  -0.05104  -0.04600
 Alpha virt. eigenvalues --   -0.03425  -0.01113   0.02062   0.02591   0.03425
 Alpha virt. eigenvalues --    0.03872   0.04066   0.05213   0.05732   0.06423

 Mulliken charges:
               1
     1  C   -0.096216
     2  C   -0.237596
     3  C    0.069986
     4  C    0.105973
     5  C   -0.179575
     6  C   -0.157738
     7  C    0.223817
     8  C    0.079056
     9  C    0.108183
    10  C   -0.275541
    11  H    0.165776
    12  C   -0.125606
    13  C   -0.260922
    14  C    0.190394
    15  H    0.161218
    16  H    0.170393
    17  H    0.155071
    18  H    0.161475
    19  H    0.166352
    20  N    0.195412
    21  C   -0.338411
    22  H    0.181012
    23  H    0.182762
    24  H    0.180997
    25  C    0.148062
    26  C   -0.208936
    27  C   -0.209509
    28  C   -0.179511
    29  C   -0.181651
    30  C   -0.106334
    31  H    0.144102
    32  H    0.144071
    33  H    0.143327
    34  H    0.143884
    35  H    0.146307
    36  O   -0.180069
    37  C   -0.284327
    38  H    0.162260
    39  H    0.162422
    40  H    0.168057
    41  H    0.161575
 Sum of Mulliken charges =   1.00000

 Dipole moment (field-independent basis, Debye):
    X=             -5.5985    Y=              3.4526    Z=              0.0160  Tot=              6.5776
 Quadrupole moment (field-independent basis, Debye-Ang):
   XX=            -72.2875   YY=            -90.1985   ZZ=           -128.8820
   XY=              3.9748   XZ=             -1.2042   YZ=              0.2886

 Normal termination of Gaussian 09 at Sat Mar 27 21:26:26 2021.
