 Gaussian 09, Revision E.01,

 ----------------------------------------------------------------------
 #p TPSSTPSS/def2TZVP opt freq=noraman nosymm int=ultrafine scrf=(SMD,s
 olvent=Acetonitrile)
 ----------------------------------------------------------------------

 -----
 Title
 -----
 Symbolic Z-matrix:
 Charge =  1 Multiplicity = 1

 SCF Done:  E(RTPSS-TPSS) =  -941.423414744     A.U. after   14 cycles
 SCF Done:  E(RTPSS-TPSS) =  -941.424422567     A.U. after   11 cycles
 SCF Done:  E(RTPSS-TPSS) =  -941.424791767     A.U. after   10 cycles
 SCF Done:  E(RTPSS-TPSS) =  -941.424848074     A.U. after    9 cycles
 SCF Done:  E(RTPSS-TPSS) =  -941.424851393     A.U. after    9 cycles
 SCF Done:  E(RTPSS-TPSS) =  -941.424857348     A.U. after    8 cycles
 SCF Done:  E(RTPSS-TPSS) =  -941.424858508     A.U. after    8 cycles
 SCF Done:  E(RTPSS-TPSS) =  -941.424859665     A.U. after    8 cycles
 SCF Done:  E(RTPSS-TPSS) =  -941.424859847     A.U. after    7 cycles
 SCF Done:  E(RTPSS-TPSS) =  -941.424859927     A.U. after    7 cycles
 SCF Done:  E(RTPSS-TPSS) =  -941.424859949     A.U. after    6 cycles
 SCF Done:  E(RTPSS-TPSS) =  -941.424859972     A.U. after    6 cycles
 SCF Done:  E(RTPSS-TPSS) =  -941.424859981     A.U. after    6 cycles
 Optimization completed.
    -- Stationary point found.
 Normal termination of Gaussian 09 at Wed Mar 31 02:54:39 2021.

 ----------------------------------------------------------------------
 #P Geom=AllCheck Guess=TCheck SCRF=Check GenChk RTPSSTPSS/def2TZVP Fre
 q
 ----------------------------------------------------------------------

 Structure from the checkpoint file:  "cp.chk"
 -----
 Title
 -----
 Charge =  1 Multiplicity = 1

 SCF Done:  E(RTPSS-TPSS) =  -941.424859982     A.U. after    1 cycles

  Exact polarizability: 504.046  30.885 538.352  -0.880  -0.851 251.552
 Approx polarizability: 661.064  39.854 698.135  -1.674  -0.794 320.150

                      1                      2                      3
                      A                      A                      A
 Frequencies --     20.0517                43.2101                60.3950
 Red. masses --      4.4114                 3.7823                 3.6862
 Frc consts  --      0.0010                 0.0042                 0.0079
 IR Inten    --      0.0096                 0.0191                 0.7950

                      4                      5                      6
                      A                      A                      A
 Frequencies --     65.6102                83.0500               105.9625
 Red. masses --      4.8040                 4.0439                 3.0572
 Frc consts  --      0.0122                 0.0164                 0.0202
 IR Inten    --      0.1568                 5.8153                 3.5027

                      7                      8                      9
                      A                      A                      A
 Frequencies --    141.1050               142.9214               164.8668
 Red. masses --      1.4007                 3.1366                 4.0429
 Frc consts  --      0.0164                 0.0377                 0.0647
 IR Inten    --      0.6225                 0.5947                 1.7221

                     10                     11                     12
                      A                      A                      A
 Frequencies --    171.8739               217.5303               222.6268
 Red. masses --      3.0666                 4.3477                 5.1155
 Frc consts  --      0.0534                 0.1212                 0.1494
 IR Inten    --      1.7069                 1.2100                 1.2054

                     13                     14                     15
                      A                      A                      A
 Frequencies --    263.0648               266.8723               294.7243
 Red. masses --      4.1543                 1.5571                 2.4149
 Frc consts  --      0.1694                 0.0653                 0.1236
 IR Inten    --      0.3449                 0.2614                 0.3262

                     16                     17                     18
                      A                      A                      A
 Frequencies --    316.6699               344.4369               382.7341
 Red. masses --      3.7369                 5.1367                 4.8971
 Frc consts  --      0.2208                 0.3591                 0.4227
 IR Inten    --      3.7750                 6.5974                 1.6846

                     19                     20                     21
                      A                      A                      A
 Frequencies --    397.1205               402.8013               419.2624
 Red. masses --      3.0261                 6.3038                 2.4973
 Frc consts  --      0.2812                 0.6026                 0.2586
 IR Inten    --      0.1940                 6.4410                 0.6617

                     22                     23                     24
                      A                      A                      A
 Frequencies --    444.3836               483.1270               488.0758
 Red. masses --      3.3376                 5.0500                 4.1936
 Frc consts  --      0.3883                 0.6945                 0.5886
 IR Inten    --      3.5164                 3.3310                 3.4109

                     25                     26                     27
                      A                      A                      A
 Frequencies --    500.5125               534.8519               538.4940
 Red. masses --      3.8493                 3.6889                 5.3901
 Frc consts  --      0.5681                 0.6217                 0.9209
 IR Inten    --      2.4893                 5.9867                 5.7199

                     28                     29                     30
                      A                      A                      A
 Frequencies --    589.2800               609.6554               612.4767
 Red. masses --      5.5229                 6.1347                 4.6449
 Frc consts  --      1.1300                 1.3434                 1.0266
 IR Inten    --     32.7379                 0.2240                18.1480

                     31                     32                     33
                      A                      A                      A
 Frequencies --    630.6224               638.9261               657.4800
 Red. masses --      4.7018                 5.0018                 5.4823
 Frc consts  --      1.1017                 1.2030                 1.3963
 IR Inten    --      9.7186                 6.9078                47.0662

                     34                     35                     36
                      A                      A                      A
 Frequencies --    673.2157               705.2180               735.6674
 Red. masses --      3.8783                 1.6492                 5.5338
 Frc consts  --      1.0356                 0.4833                 1.7646
 IR Inten    --     21.5743                91.6819                26.9761

                     37                     38                     39
                      A                      A                      A
 Frequencies --    745.0383               757.9863               762.4298
 Red. masses --      2.4060                 1.9001                 1.6248
 Frc consts  --      0.7869                 0.6432                 0.5565
 IR Inten    --     37.4283                48.6327                44.9149

                     40                     41                     42
                      A                      A                      A
 Frequencies --    778.5832               806.7684               815.9669
 Red. masses --      1.7845                 4.6592                 4.2495
 Frc consts  --      0.6374                 1.7867                 1.6670
 IR Inten    --    125.7004                11.1288                 8.9780

                     43                     44                     45
                      A                      A                      A
 Frequencies --    850.7692               860.7166               864.7167
 Red. masses --      1.2489                 1.4440                 1.7457
 Frc consts  --      0.5326                 0.6303                 0.7691
 IR Inten    --      0.0294                 3.2261                 1.4853

                     46                     47                     48
                      A                      A                      A
 Frequencies --    898.5197               913.1161               928.4236
 Red. masses --      2.7075                 4.2451                 3.3414
 Frc consts  --      1.2879                 2.0854                 1.6970
 IR Inten    --      5.5037                 7.6279                28.7739

                     49                     50                     51
                      A                      A                      A
 Frequencies --    936.3453               966.4958               970.2215
 Red. masses --      3.0087                 1.3610                 1.3395
 Frc consts  --      1.5542                 0.7491                 0.7429
 IR Inten    --     12.0870                 0.1242                 0.7270

                     52                     53                     54
                      A                      A                      A
 Frequencies --    981.4403               987.3877               995.8800
 Red. masses --      1.3155                 1.2708                 1.3263
 Frc consts  --      0.7466                 0.7299                 0.7750
 IR Inten    --      1.8169                 0.4908                 0.2325

                     55                     56                     57
                      A                      A                      A
 Frequencies --    998.4053              1011.5139              1035.1051
 Red. masses --      6.2360                 7.7864                 2.2389
 Frc consts  --      3.6625                 4.6939                 1.4134
 IR Inten    --      4.7469                90.7012                12.8934

                     58                     59                     60
                      A                      A                      A
 Frequencies --   1046.9665              1083.4153              1087.6776
 Red. masses --      2.2880                 1.6147                 3.2984
 Frc consts  --      1.4777                 1.1167                 2.2991
 IR Inten    --     12.0876                13.6417               218.3587

                     61                     62                     63
                      A                      A                      A
 Frequencies --   1112.7757              1121.9161              1137.7731
 Red. masses --      2.1786                 1.3525                 1.6590
 Frc consts  --      1.5895                 1.0030                 1.2654
 IR Inten    --      7.4209                10.4952                 7.1985

                     64                     65                     66
                      A                      A                      A
 Frequencies --   1148.3492              1157.6586              1163.7023
 Red. masses --      1.2608                 1.0768                 1.6688
 Frc consts  --      0.9796                 0.8503                 1.3315
 IR Inten    --      1.8421                 0.0035                39.1933

                     67                     68                     69
                      A                      A                      A
 Frequencies --   1176.7462              1180.9432              1188.3745
 Red. masses --      1.3716                 1.1444                 1.8544
 Frc consts  --      1.1190                 0.9403                 1.5429
 IR Inten    --     75.7058                 2.9536                44.2398

                     70                     71                     72
                      A                      A                      A
 Frequencies --   1191.4175              1210.2340              1254.6466
 Red. masses --      1.3671                 1.3518                 2.4206
 Frc consts  --      1.1434                 1.1665                 2.2450
 IR Inten    --      8.5108                 0.7397               496.6725

                     73                     74                     75
                      A                      A                      A
 Frequencies --   1281.2541              1292.8976              1307.8508
 Red. masses --      1.9021                 3.9014                 3.7338
 Frc consts  --      1.8397                 3.8424                 3.7629
 IR Inten    --     51.8907               110.6400                 0.0009

                     76                     77                     78
                      A                      A                      A
 Frequencies --   1309.0825              1339.3302              1355.9113
 Red. masses --      3.9648                 1.7006                 8.0786
 Frc consts  --      4.0032                 1.7973                 8.7509
 IR Inten    --      2.0831                 0.1095               191.1745

                     79                     80                     81
                      A                      A                      A
 Frequencies --   1367.9560              1382.7018              1402.9059
 Red. masses --      4.3305                 3.3626                 3.3770
 Frc consts  --      4.7746                 3.7877                 3.9159
 IR Inten    --     42.6373                 4.0724                29.0948

                     82                     83                     84
                      A                      A                      A
 Frequencies --   1434.9834              1437.4608              1449.0561
 Red. masses --      1.3809                 1.7705                 2.1205
 Frc consts  --      1.6753                 2.1554                 2.6234
 IR Inten    --    164.3560                15.0250                 8.9269

                     85                     86                     87
                      A                      A                      A
 Frequencies --   1453.2288              1468.5339              1479.3962
 Red. masses --      1.4565                 1.2392                 1.7089
 Frc consts  --      1.8123                 1.5746                 2.2036
 IR Inten    --    134.6804                 9.7062               213.6425

                     88                     89                     90
                      A                      A                      A
 Frequencies --   1481.5845              1487.4950              1494.7510
 Red. masses --      1.0511                 1.1266                 1.7939
 Frc consts  --      1.3594                 1.4686                 2.3614
 IR Inten    --     14.9457                12.4003                75.8955

                     91                     92                     93
                      A                      A                      A
 Frequencies --   1501.2315              1511.0633              1524.3939
 Red. masses --      2.1292                 2.9408                 1.3718
 Frc consts  --      2.8272                 3.9562                 1.8782
 IR Inten    --     22.1793               361.2899                52.1709

                     94                     95                     96
                      A                      A                      A
 Frequencies --   1561.6364              1575.1775              1584.2523
 Red. masses --      5.0014                 6.1759                 5.2641
 Frc consts  --      7.1863                 9.0284                 7.7844
 IR Inten    --    111.5981               332.8212                 1.4815

                     97                     98                     99
                      A                      A                      A
 Frequencies --   1604.1803              1605.0743              1623.5809
 Red. masses --      5.0789                 5.4745                 5.4860
 Frc consts  --      7.7006                 8.3097                 8.5202
 IR Inten    --    429.7698                17.4965                41.5463

                    100                    101                    102
                      A                      A                      A
 Frequencies --   3005.6924              3045.0537              3079.8550
 Red. masses --      1.0306                 1.0401                 1.1083
 Frc consts  --      5.4854                 5.6821                 6.1942
 IR Inten    --     62.6157                21.3773                29.6677

                    103                    104                    105
                      A                      A                      A
 Frequencies --   3127.3206              3130.3559              3132.4091
 Red. masses --      1.1035                 1.1003                 1.0851
 Frc consts  --      6.3588                 6.3527                 6.2730
 IR Inten    --     16.7780                 5.7327                 0.2436

                    106                    107                    108
                      A                      A                      A
 Frequencies --   3138.4178              3146.6845              3152.7392
 Red. masses --      1.0872                 1.0912                 1.0946
 Frc consts  --      6.3092                 6.3660                 6.4104
 IR Inten    --      1.2770                14.9197                40.3863

                    109                    110                    111
                      A                      A                      A
 Frequencies --   3152.8439              3155.3601              3159.8023
 Red. masses --      1.0881                 1.0901                 1.0980
 Frc consts  --      6.3727                 6.3944                 6.4593
 IR Inten    --      6.7009                12.1620                19.5037

                    112                    113                    114
                      A                      A                      A
 Frequencies --   3165.2189              3168.3360              3184.0631
 Red. masses --      1.0927                 1.1005                 1.0934
 Frc consts  --      6.4498                 6.5086                 6.5314
 IR Inten    --     13.7119                 1.8349                10.3951

                    115                    116                    117
                      A                      A                      A
 Frequencies --   3194.2877              3205.1501              3220.5972
 Red. masses --      1.0913                 1.0915                 1.0912
 Frc consts  --      6.5605                 6.6065                 6.6685
 IR Inten    --      2.6714                 2.9079                 0.7874

 - Thermochemistry -
 -------------------
 Temperature   298.150 Kelvin.  Pressure   1.00000 Atm.
 Atom     1 has atomic number  6 and mass  12.00000

 Molecular mass:   300.13884 amu.
 Principal axes and moments of inertia in atomic units:
                           1         2         3
     Eigenvalues --  5276.836556581.28525**********
           X            0.99961   0.02808   0.00116
           Y           -0.02809   0.99957   0.00890
           Z           -0.00091  -0.00893   0.99996
 This molecule is an asymmetric top.
 Rotational symmetry number  1.
 Warning -- assumption of classical behavior for rotation
           may cause significant error
 Rotational temperatures (Kelvin)      0.01641     0.01316     0.00775
 Rotational constants (GHZ):           0.34201     0.27422     0.16146
 Zero-point vibrational energy     869556.3 (Joules/Mol)
                                  207.82894 (Kcal/Mol)
 Warning -- explicit consideration of  30 degrees of freedom as
           vibrations may cause significant error
 Vibrational temperatures:     28.85    62.17    86.89    94.40   119.49
          (Kelvin)            152.46   203.02   205.63   237.21   247.29
                              312.98   320.31   378.49   383.97   424.04
                              455.62   495.57   550.67   571.37   579.54
                              603.22   639.37   695.11   702.23   720.12
                              769.53   774.77   847.84   877.16   881.22
                              907.32   919.27   945.97   968.61  1014.65
                             1058.46  1071.94  1090.57  1096.97  1120.21
                             1160.76  1173.99  1224.07  1238.38  1244.13
                             1292.77  1313.77  1335.79  1347.19  1390.57
                             1395.93  1412.07  1420.63  1432.85  1436.48
                             1455.34  1489.28  1506.35  1558.79  1564.92
                             1601.03  1614.18  1637.00  1652.22  1665.61
                             1674.31  1693.07  1699.11  1709.80  1714.18
                             1741.25  1805.15  1843.44  1860.19  1881.70
                             1883.48  1926.99  1950.85  1968.18  1989.40
                             2018.47  2064.62  2068.18  2084.87  2090.87
                             2112.89  2128.52  2131.67  2140.17  2150.61
                             2159.93  2174.08  2193.26  2246.84  2266.33
                             2279.38  2308.05  2309.34  2335.97  4324.52
                             4381.15  4431.22  4499.51  4503.88  4506.83
                             4515.48  4527.37  4536.08  4536.23  4539.85
                             4546.25  4554.04  4558.52  4581.15  4595.86
                             4611.49  4633.72

 Zero-point correction=                           0.331197 (Hartree/Particle)
 Thermal correction to Energy=                    0.350117
 Thermal correction to Enthalpy=                  0.351062
 Thermal correction to Gibbs Free Energy=         0.283540
 Sum of electronic and zero-point Energies=           -941.093663
 Sum of electronic and thermal Energies=              -941.074743
 Sum of electronic and thermal Enthalpies=            -941.073798
 Sum of electronic and thermal Free Energies=         -941.141320

                     E (Thermal)             CV                S
                      KCal/Mol        Cal/Mol-Kelvin    Cal/Mol-Kelvin
 Total                  219.702             76.046            142.112
 Electronic               0.000              0.000              0.000
 Translational            0.889              2.981             42.994
 Rotational               0.889              2.981             34.317
 Vibrational            217.925             70.084             64.800
 Vibration     1          0.593              1.986              6.629
 Vibration     2          0.595              1.980              5.106
 Vibration     3          0.597              1.973              4.444
 Vibration     4          0.597              1.971              4.281
 Vibration     5          0.600              1.961              3.817
 Vibration     6          0.605              1.944              3.342
 Vibration     7          0.615              1.912              2.789
 Vibration     8          0.616              1.910              2.764
 Vibration     9          0.623              1.886              2.493
 Vibration    10          0.626              1.877              2.415
 Vibration    11          0.646              1.814              1.980
 Vibration    12          0.648              1.807              1.938
 Vibration    13          0.670              1.741              1.641
 Vibration    14          0.672              1.734              1.616
 Vibration    15          0.689              1.684              1.447
 Vibration    16          0.704              1.642              1.327
 Vibration    17          0.723              1.587              1.192
 Vibration    18          0.752              1.507              1.028
 Vibration    19          0.764              1.476              0.973
 Vibration    20          0.768              1.464              0.952
 Vibration    21          0.782              1.428              0.894
 Vibration    22          0.804              1.373              0.813
 Vibration    23          0.839              1.287              0.702
 Vibration    24          0.844              1.276              0.689
 Vibration    25          0.856              1.249              0.657
 Vibration    26          0.890              1.173              0.576
 Vibration    27          0.894              1.165              0.569
 Vibration    28          0.947              1.055              0.468
 Vibration    29          0.969              1.011              0.433
 Vibration    30          0.972              1.005              0.429

 Optimization completed.
    -- Stationary point found.
 Normal termination of Gaussian 09 at Wed Mar 31 05:56:31 2021.
 Gaussian 09:  ES64L-G09RevE.01 30-Nov-2015

 ----------------------------------------------------------------------
 #p TPSSTPSS chkbasis geom=allcheck Guess=Read int=ultrafine scrf=(SMD,
 solvent=Acetonitrile) td=(NStates=30)
 ----------------------------------------------------------------------

 Structure from the checkpoint file:  "cp.chk"
 -----
 Title
 -----
 Charge =  1 Multiplicity = 1

                         Standard orientation:
 ---------------------------------------------------------------------
 Center     Atomic      Atomic             Coordinates (Angstroms)
 Number     Number       Type             X           Y           Z
 ---------------------------------------------------------------------
      1          6           0       -3.102163   -3.078939   -0.151218
      2          6           0       -3.388012   -1.732528   -0.078655
      3          6           0       -2.336855   -0.787647    0.005329
      4          6           0       -0.978333   -1.241576   -0.019952
      5          6           0       -0.735444   -2.644966   -0.075957
      6          6           0       -1.769735   -3.545949   -0.135722
      7          6           0        0.090376   -0.306686    0.009701
      8          6           0       -0.201410    1.070824   -0.001399
      9          6           0       -1.584733    1.498326    0.015251
     10          6           0       -1.913304    2.866507   -0.058688
     11          1           0       -2.943272    3.189600   -0.105278
     12          6           0       -0.906323    3.807004   -0.116636
     13          6           0        0.449722    3.450378   -0.090919
     14          6           0        0.810043    2.115466   -0.035753
     15          1           0       -4.420798   -1.413112   -0.118295
     16          1           0        0.290788   -2.992568   -0.080212
     17          1           0       -1.566528   -4.611248   -0.183745
     18          1           0       -1.170284    4.858371   -0.188264
     19          1           0        1.206355    4.224401   -0.126686
     20          7           0       -2.589542    0.559852    0.101338
     21          6           0       -3.978859    1.027326    0.307715
     22          1           0       -3.962401    1.889915    0.971552
     23          1           0       -4.437802    1.292697   -0.648386
     24          1           0       -4.547184    0.239233    0.792773
     25          6           0        1.477521   -0.865838    0.034470
     26          6           0        2.137403   -1.174004   -1.162450
     27          6           0        2.094231   -1.156898    1.258089
     28          6           0        3.410263   -1.744753   -1.132834
     29          6           0        3.367380   -1.728230    1.281531
     30          6           0        4.030506   -2.020576    0.087816
     31          1           0        3.915309   -1.976631   -2.067005
     32          1           0        3.838637   -1.947490    2.236162
     33          1           0        1.656673   -0.962188   -2.113725
     34          1           0        1.580249   -0.932755    2.188958
     35          1           0        5.021481   -2.466139    0.108450
     36          8           0        2.089971    1.704894   -0.019974
     37          6           0        3.136887    2.702715   -0.066054
     38          1           0        3.070479    3.284885   -0.990712
     39          1           0        3.076783    3.361135    0.806624
     40          1           0        4.065171    2.131842   -0.045008
     41          1           0       -3.921614   -3.787796   -0.228763
 ---------------------------------------------------------------------

 SCF Done:  E(RTPSS-TPSS) =  -941.424832970     A.U. after    6 cycles

 Excitation energies and oscillator strengths:

 Excited State   1:      Singlet-A      2.2992 eV  539.25 nm  f=0.0788  <S**2>=0.000
      79 -> 80         0.69773
 This state for optimization and/or second-order correction.
 Total Energy, E(TD-HF/TD-KS) =  -941.340338491
 Copying the excited state density for this state as the 1-particle RhoCI density.

 Excited State   2:      Singlet-A      2.6126 eV  474.56 nm  f=0.0001  <S**2>=0.000
      78 -> 80         0.70682

 Excited State   3:      Singlet-A      2.8184 eV  439.91 nm  f=0.0046  <S**2>=0.000
      76 -> 80         0.13148
      77 -> 80         0.69105

 Excited State   4:      Singlet-A      3.2095 eV  386.30 nm  f=0.0312  <S**2>=0.000
      76 -> 80         0.67349
      77 -> 80        -0.12201

 Excited State   5:      Singlet-A      3.6063 eV  343.80 nm  f=0.0517  <S**2>=0.000
      75 -> 80         0.57327
      79 -> 81         0.39601

 Excited State   6:      Singlet-A      4.1352 eV  299.82 nm  f=0.6583  <S**2>=0.000
      75 -> 80        -0.34496
      76 -> 81         0.18301
      79 -> 81         0.53649
      79 -> 84         0.16303

 Excited State   7:      Singlet-A      4.2942 eV  288.72 nm  f=0.0046  <S**2>=0.000
      78 -> 81         0.70242

 Excited State   8:      Singlet-A      4.3900 eV  282.42 nm  f=0.0118  <S**2>=0.000
      79 -> 82        -0.37973
      79 -> 83         0.56262
      79 -> 84         0.10026

 Excited State   9:      Singlet-A      4.3939 eV  282.18 nm  f=0.0188  <S**2>=0.000
      73 -> 80        -0.10554
      77 -> 81         0.10483
      79 -> 82         0.49565
      79 -> 83         0.42657
      79 -> 84        -0.15426

 Excited State  10:      Singlet-A      4.4973 eV  275.69 nm  f=0.0026  <S**2>=0.000
      73 -> 80         0.13378
      74 -> 80        -0.10925
      76 -> 81         0.11406
      77 -> 81         0.65929
      79 -> 82        -0.11398

 Excited State  11:      Singlet-A      4.5625 eV  271.75 nm  f=0.0408  <S**2>=0.000
      70 -> 80         0.16882
      74 -> 80         0.56244
      76 -> 81         0.15157
      79 -> 84        -0.29448
      79 -> 85        -0.14254

 Excited State  12:      Singlet-A      4.6201 eV  268.36 nm  f=0.0005  <S**2>=0.000
      72 -> 80         0.70417

 Excited State  13:      Singlet-A      4.6503 eV  266.61 nm  f=0.0201  <S**2>=0.000
      71 -> 80         0.10197
      73 -> 80         0.33398
      74 -> 80         0.24145
      76 -> 81        -0.20015
      76 -> 82         0.10291
      79 -> 82         0.19948
      79 -> 84         0.43783
      79 -> 85         0.13001

 Excited State  14:      Singlet-A      4.6764 eV  265.13 nm  f=0.1143  <S**2>=0.000
      70 -> 80        -0.14701
      71 -> 80         0.29803
      73 -> 80         0.46980
      74 -> 80        -0.13397
      77 -> 81        -0.10701
      79 -> 81         0.10196
      79 -> 84        -0.27821
      79 -> 85        -0.15518

 Excited State  15:      Singlet-A      4.7352 eV  261.84 nm  f=0.0322  <S**2>=0.000
      71 -> 80         0.62883
      73 -> 80        -0.26346

 Excited State  16:      Singlet-A      4.9270 eV  251.64 nm  f=0.0011  <S**2>=0.000
      77 -> 83         0.10302
      78 -> 82         0.68342
      78 -> 84         0.13893

 Excited State  17:      Singlet-A      4.9459 eV  250.68 nm  f=0.4769  <S**2>=0.000
      70 -> 80        -0.37510
      75 -> 80         0.14698
      76 -> 81         0.50010
      79 -> 81        -0.10778
      79 -> 84         0.14613

 Excited State  18:      Singlet-A      5.0657 eV  244.75 nm  f=0.1118  <S**2>=0.000
      70 -> 80         0.49746
      74 -> 80        -0.14635
      75 -> 81         0.21016
      75 -> 82         0.15411
      76 -> 81         0.28177
      77 -> 82         0.11225
      79 -> 86        -0.16668

 Excited State  19:      Singlet-A      5.1414 eV  241.15 nm  f=0.0088  <S**2>=0.000
      76 -> 82         0.14791
      77 -> 82         0.63414
      77 -> 84         0.22099

 Excited State  20:      Singlet-A      5.2149 eV  237.75 nm  f=0.0001  <S**2>=0.000
      77 -> 83        -0.46757
      78 -> 84         0.52628

 Excited State  21:      Singlet-A      5.2614 eV  235.65 nm  f=0.0578  <S**2>=0.000
      69 -> 80         0.30534
      76 -> 82         0.16306
      76 -> 85        -0.17532
      77 -> 85         0.11740
      79 -> 82        -0.11668
      79 -> 84        -0.17222
      79 -> 85         0.49754

 Excited State  22:      Singlet-A      5.3191 eV  233.09 nm  f=0.0032  <S**2>=0.000
      68 -> 80         0.60742
      69 -> 80        -0.31478
      76 -> 82         0.10381
      79 -> 85         0.11009

 Excited State  23:      Singlet-A      5.3346 eV  232.42 nm  f=0.0002  <S**2>=0.000
      76 -> 83         0.67721
      77 -> 83        -0.13176
      78 -> 84        -0.13350

 Excited State  24:      Singlet-A      5.4029 eV  229.48 nm  f=0.0357  <S**2>=0.000
      68 -> 80        -0.21972
      69 -> 80        -0.24063
      76 -> 82         0.41590
      76 -> 84        -0.39252
      77 -> 82        -0.10733
      77 -> 84         0.16160

 Excited State  25:      Singlet-A      5.4486 eV  227.55 nm  f=0.0590  <S**2>=0.000
      68 -> 80         0.16206
      69 -> 80         0.21891
      75 -> 81         0.44283
      75 -> 82        -0.26195
      76 -> 84        -0.25014
      77 -> 84         0.14727
      79 -> 86        -0.13041

 Excited State  26:      Singlet-A      5.4819 eV  226.17 nm  f=0.0384  <S**2>=0.000
      69 -> 80        -0.20702
      75 -> 81         0.16066
      76 -> 84         0.13610
      77 -> 83        -0.11535
      78 -> 85         0.56711

 Excited State  27:      Singlet-A      5.4908 eV  225.80 nm  f=0.0757  <S**2>=0.000
      68 -> 80         0.18142
      69 -> 80         0.30475
      74 -> 80        -0.10256
      75 -> 81        -0.22485
      75 -> 82         0.10786
      76 -> 84        -0.23267
      77 -> 84         0.11294
      78 -> 85         0.37693
      79 -> 85        -0.11110
      79 -> 86         0.15493

 Excited State  28:      Singlet-A      5.5314 eV  224.15 nm  f=0.0022  <S**2>=0.000
      67 -> 80         0.70018

 Excited State  29:      Singlet-A      5.6331 eV  220.10 nm  f=0.0004  <S**2>=0.000
      66 -> 80         0.69170
      77 -> 85        -0.10657

 Excited State  30:      Singlet-A      5.6620 eV  218.98 nm  f=0.0004  <S**2>=0.000
      75 -> 82         0.16168
      76 -> 82        -0.12477
      76 -> 84        -0.27133
      76 -> 85         0.18338
      77 -> 84        -0.21401
      77 -> 85         0.46202
      78 -> 83        -0.15399
      79 -> 86         0.15409

 The electronic state is 1-A.
 Alpha  occ. eigenvalues --  -18.93291 -14.19744 -10.07643 -10.07034 -10.06826
 Alpha  occ. eigenvalues --  -10.05215 -10.03895 -10.03878 -10.03121 -10.03067
 Alpha  occ. eigenvalues --  -10.01403 -10.01268 -10.01119 -10.00947 -10.00925
 Alpha  occ. eigenvalues --  -10.00335 -10.00057  -9.99878  -9.99477  -9.99473
 Alpha  occ. eigenvalues --   -9.99237  -9.99229  -9.99098  -1.01625  -0.95293
 Alpha  occ. eigenvalues --   -0.82877  -0.81954  -0.79986  -0.77055  -0.73009
 Alpha  occ. eigenvalues --   -0.71803  -0.71160  -0.69984  -0.69451  -0.66926
 Alpha  occ. eigenvalues --   -0.66035  -0.62606  -0.61440  -0.57882  -0.56110
 Alpha  occ. eigenvalues --   -0.56054  -0.53886  -0.52742  -0.52536  -0.49761
 Alpha  occ. eigenvalues --   -0.47433  -0.46529  -0.45803  -0.45196  -0.44832
 Alpha  occ. eigenvalues --   -0.43471  -0.43183  -0.43034  -0.41668  -0.41502
 Alpha  occ. eigenvalues --   -0.40897  -0.40261  -0.38926  -0.38233  -0.37795
 Alpha  occ. eigenvalues --   -0.37544  -0.37032  -0.36235  -0.35912  -0.34247
 Alpha  occ. eigenvalues --   -0.33970  -0.33548  -0.32821  -0.32536  -0.31316
 Alpha  occ. eigenvalues --   -0.30568  -0.30210  -0.29709  -0.29028  -0.25330
 Alpha  occ. eigenvalues --   -0.24069  -0.23557  -0.22880  -0.20568
 Alpha virt. eigenvalues --   -0.13290  -0.07148  -0.04863  -0.04440  -0.03886
 Alpha virt. eigenvalues --   -0.02685  -0.00279   0.03115   0.03555   0.04431
 Alpha virt. eigenvalues --    0.04941   0.05085   0.06221   0.06762   0.07479

 Mulliken charges:
               1
     1  C   -0.079053
     2  C   -0.246778
     3  C    0.095051
     4  C    0.084521
     5  C   -0.164834
     6  C   -0.149864
     7  C    0.275303
     8  C    0.055130
     9  C    0.148661
    10  C   -0.283556
    11  H    0.160400
    12  C   -0.105680
    13  C   -0.253473
    14  C    0.210151
    15  H    0.153804
    16  H    0.171529
    17  H    0.150231
    18  H    0.157233
    19  H    0.160721
    20  N    0.131106
    21  C   -0.306617
    22  H    0.180747
    23  H    0.178761
    24  H    0.181257
    25  C    0.062337
    26  C   -0.177894
    27  C   -0.180380
    28  C   -0.174929
    29  C   -0.176639
    30  C   -0.100418
    31  H    0.139386
    32  H    0.139385
    33  H    0.134266
    34  H    0.135265
    35  H    0.142547
    36  O   -0.231723
    37  C   -0.266087
    38  H    0.162153
    39  H    0.162389
    40  H    0.167771
    41  H    0.157821
 Sum of Mulliken charges =   1.00000

 Dipole moment (field-independent basis, Debye):
    X=             -5.7197    Y=              3.3864    Z=              0.0301  Tot=              6.6471
 Quadrupole moment (field-independent basis, Debye-Ang):
   XX=            -72.2303   YY=            -88.9815   ZZ=           -128.3206
   XY=              4.2521   XZ=             -1.2463   YZ=              0.2810

 Normal termination of Gaussian 09 at Wed Mar 31 08:51:19 2021.
