                         Program Version 5.0.2 -  RELEASE  -
|  1> %maxcore 3200
|  2> %pal
|  3>  nprocs= 8
|  4> end
|  5> ! RI-wB2PLYP def2-TZVP def2/J def2-TZVP/C RIJCOSX CPCM TightSCF
|  6> %TDDFT DCORR 1
|  7>    NROOTS   30
|  8>
|  9>    TDA      FALSE
| 10> END
| 11>
| 12> %CPCM
| 13>    SMD          TRUE
| 14>    SMDsolvent   "ACETONITRILE"
| 15> END
| 16>
| 17>
| 18> * xyz 1 1
| 19> C                  -3.14769200   -3.00562300   -0.16049300
| 20> C                  -3.40382700   -1.66285200   -0.08385600
| 21> C                  -2.34161900   -0.74416600    0.00500800
| 22> C                  -1.00147800   -1.22363900   -0.02194200
| 23> C                  -0.78893000   -2.62356500   -0.07962500
| 24> C                  -1.83406400   -3.49759400   -0.14343500
| 25> C                   0.07741800   -0.31461000    0.00914600
| 26> C                  -0.18355100    1.06034500   -0.00273200
| 27> C                  -1.54795000    1.51382800    0.02087000
| 28> C                  -1.84226300    2.88158700   -0.04765200
| 29> H                  -2.86102700    3.22639700   -0.08787400
| 30> C                  -0.82096900    3.79298100   -0.10894600
| 31> C                   0.51812500    3.40910100   -0.09534500
| 32> C                   0.84611900    2.07411700   -0.04664800
| 33> H                  -4.42544500   -1.32196100   -0.12379800
| 34> H                   0.22672800   -2.99208100   -0.08195200
| 35> H                  -1.65307300   -4.56252100   -0.19312900
| 36> H                  -1.06171900    4.84616800   -0.17618200
| 37> H                   1.29115300    4.16070500   -0.13633000
| 38> N                  -2.56494300    0.60043800    0.10866500
| 39> C                  -3.92831600    1.09003600    0.31949500
| 40> H                  -3.90316400    1.94415000    0.98608400
| 41> H                  -4.39038400    1.37603500   -0.62407400
| 42> H                  -4.52008400    0.32179100    0.79708900
| 43> C                   1.44535500   -0.88951100    0.04048300
| 44> C                   2.09452900   -1.22643500   -1.14356200
| 45> C                   2.06418300   -1.14418400    1.26035400
| 46> C                   3.36138500   -1.78761300   -1.10590400
| 47> C                   3.33046700   -1.70794200    1.29249100
| 48> C                   3.98425000   -2.02710300    0.11094100
| 49> H                   3.86139700   -2.04150200   -2.03214800
| 50> H                   3.80588700   -1.90009700    2.24614300
| 51> H                   1.60736800   -1.03816300   -2.09270500
| 52> H                   1.55457200   -0.89202900    2.18241000
| 53> H                   4.97339000   -2.46606200    0.13829300
| 54> O                   2.10431100    1.63501100   -0.04875600
| 55> C                   3.16204100    2.58601200   -0.11067600
| 56> H                   3.10759500    3.17709500   -1.02618200
| 57> H                   3.14703300    3.24955700    0.75544000
| 58> H                   4.07934700    2.00445900   -0.10715100
| 59> H                  -3.97872600   -3.69411500   -0.24236800
| 60> *
| 61>
| 62>
| 63>                          ****END OF INPUT****

CARTESIAN COORDINATES (ANGSTROEM)
---------------------------------
  C     -3.147692   -3.005623   -0.160493
  C     -3.403827   -1.662852   -0.083856
  C     -2.341619   -0.744166    0.005008
  C     -1.001478   -1.223639   -0.021942
  C     -0.788930   -2.623565   -0.079625
  C     -1.834064   -3.497594   -0.143435
  C      0.077418   -0.314610    0.009146
  C     -0.183551    1.060345   -0.002732
  C     -1.547950    1.513828    0.020870
  C     -1.842263    2.881587   -0.047652
  H     -2.861027    3.226397   -0.087874
  C     -0.820969    3.792981   -0.108946
  C      0.518125    3.409101   -0.095345
  C      0.846119    2.074117   -0.046648
  H     -4.425445   -1.321961   -0.123798
  H      0.226728   -2.992081   -0.081952
  H     -1.653073   -4.562521   -0.193129
  H     -1.061719    4.846168   -0.176182
  H      1.291153    4.160705   -0.136330
  N     -2.564943    0.600438    0.108665
  C     -3.928316    1.090036    0.319495
  H     -3.903164    1.944150    0.986084
  H     -4.390384    1.376035   -0.624074
  H     -4.520084    0.321791    0.797089
  C      1.445355   -0.889511    0.040483
  C      2.094529   -1.226435   -1.143562
  C      2.064183   -1.144184    1.260354
  C      3.361385   -1.787613   -1.105904
  C      3.330467   -1.707942    1.292491
  C      3.984250   -2.027103    0.110941
  H      3.861397   -2.041502   -2.032148
  H      3.805887   -1.900097    2.246143
  H      1.607368   -1.038163   -2.092705
  H      1.554572   -0.892029    2.182410
  H      4.973390   -2.466062    0.138293
  O      2.104311    1.635011   -0.048756
  C      3.162041    2.586012   -0.110676
  H      3.107595    3.177095   -1.026182
  H      3.147033    3.249557    0.755440
  H      4.079347    2.004459   -0.107151
  H     -3.978726   -3.694115   -0.242368

 Total Charge           Charge          ....    1
 Multiplicity           Mult            ....    1
 Number of Electrons    NEL             ....  158
 Basis Dimension        Dim             ....  821

ORBITAL ENERGIES
----------------

  NO   OCC          E(Eh)            E(eV)
   0   2.0000     -19.844302      -539.9909
   1   2.0000     -15.007776      -408.3824
   2   2.0000     -10.789760      -293.6043
   3   2.0000     -10.784069      -293.4494
   4   2.0000     -10.779271      -293.3189
   5   2.0000     -10.769904      -293.0640
   6   2.0000     -10.737291      -292.1766
   7   2.0000     -10.732527      -292.0469
   8   2.0000     -10.729301      -291.9591
   9   2.0000     -10.722696      -291.7794
  10   2.0000     -10.720909      -291.7308
  11   2.0000     -10.716374      -291.6074
  12   2.0000     -10.712175      -291.4931
  13   2.0000     -10.712164      -291.4928
  14   2.0000     -10.704892      -291.2949
  15   2.0000     -10.699311      -291.1430
  16   2.0000     -10.695248      -291.0325
  17   2.0000     -10.694050      -290.9999
  18   2.0000     -10.693975      -290.9978
  19   2.0000     -10.692989      -290.9710
  20   2.0000     -10.691806      -290.9388
  21   2.0000     -10.691560      -290.9321
  22   2.0000     -10.690000      -290.8897
  23   2.0000      -1.319931       -35.9172
  24   2.0000      -1.243212       -33.8295
  25   2.0000      -1.107003       -30.1231
  26   2.0000      -1.094652       -29.7870
  27   2.0000      -1.073244       -29.2045
  28   2.0000      -1.037746       -28.2385
  29   2.0000      -0.985531       -26.8177
  30   2.0000      -0.972615       -26.4662
  31   2.0000      -0.963724       -26.2243
  32   2.0000      -0.950699       -25.8698
  33   2.0000      -0.947016       -25.7696
  34   2.0000      -0.909753       -24.7556
  35   2.0000      -0.898325       -24.4447
  36   2.0000      -0.858537       -23.3620
  37   2.0000      -0.843868       -22.9628
  38   2.0000      -0.801678       -21.8148
  39   2.0000      -0.781848       -21.2752
  40   2.0000      -0.779416       -21.2090
  41   2.0000      -0.752203       -20.4685
  42   2.0000      -0.736000       -20.0276
  43   2.0000      -0.735371       -20.0105
  44   2.0000      -0.701498       -19.0887
  45   2.0000      -0.671511       -18.2727
  46   2.0000      -0.660930       -17.9848
  47   2.0000      -0.652138       -17.7456
  48   2.0000      -0.648168       -17.6376
  49   2.0000      -0.643752       -17.5174
  50   2.0000      -0.630233       -17.1495
  51   2.0000      -0.624498       -16.9935
  52   2.0000      -0.619644       -16.8614
  53   2.0000      -0.607862       -16.5408
  54   2.0000      -0.602455       -16.3936
  55   2.0000      -0.594425       -16.1751
  56   2.0000      -0.587387       -15.9836
  57   2.0000      -0.572900       -15.5894
  58   2.0000      -0.562972       -15.3192
  59   2.0000      -0.555903       -15.1269
  60   2.0000      -0.548476       -14.9248
  61   2.0000      -0.544412       -14.8142
  62   2.0000      -0.536549       -14.6002
  63   2.0000      -0.526236       -14.3196
  64   2.0000      -0.511943       -13.9307
  65   2.0000      -0.507741       -13.8163
  66   2.0000      -0.507477       -13.8091
  67   2.0000      -0.495957       -13.4957
  68   2.0000      -0.487043       -13.2531
  69   2.0000      -0.477244       -12.9865
  70   2.0000      -0.472703       -12.8629
  71   2.0000      -0.470321       -12.7981
  72   2.0000      -0.450748       -12.2655
  73   2.0000      -0.431868       -11.7517
  74   2.0000      -0.368483       -10.0269
  75   2.0000      -0.360759        -9.8167
  76   2.0000      -0.352740        -9.5986
  77   2.0000      -0.349349        -9.5063
  78   2.0000      -0.314522        -8.5586
  79   0.0000      -0.031886        -0.8677
  80   0.0000       0.042606         1.1594
  81   0.0000       0.075380         2.0512
  82   0.0000       0.077076         2.0973
  83   0.0000       0.088673         2.4129

MULLIKEN ATOMIC CHARGES
-----------------------
   0 C :   -0.098526
   1 C :   -0.292177
   2 C :    0.155862
   3 C :    0.112428
   4 C :   -0.211962
   5 C :   -0.208197
   6 C :    0.268220
   7 C :    0.067949
   8 C :    0.203914
   9 C :   -0.344989
  10 H :    0.206951
  11 C :   -0.099231
  12 C :   -0.312878
  13 C :    0.272220
  14 H :    0.201529
  15 H :    0.215419
  16 H :    0.189912
  17 H :    0.198297
  18 H :    0.199550
  19 N :    0.002392
  20 C :   -0.362891
  21 H :    0.189646
  22 H :    0.198403
  23 H :    0.189613
  24 C :    0.036284
  25 C :   -0.227209
  26 C :   -0.226204
  27 C :   -0.204497
  28 C :   -0.205620
  29 C :   -0.147146
  30 H :    0.180919
  31 H :    0.180985
  32 H :    0.183317
  33 H :    0.182928
  34 H :    0.182404
  35 O :   -0.302304
  36 C :   -0.282008
  37 H :    0.168179
  38 H :    0.167919
  39 H :    0.174206
  40 H :    0.196394
Sum of atomic charges:    1.0000000

LOEWDIN ATOMIC CHARGES
----------------------
   0 C :   -0.084438
   1 C :   -0.111209
   2 C :   -0.071457
   3 C :   -0.058514
   4 C :   -0.060650
   5 C :   -0.133986
   6 C :    0.068720
   7 C :   -0.022933
   8 C :   -0.062769
   9 C :   -0.140190
  10 H :    0.167741
  11 C :   -0.078160
  12 C :   -0.142111
  13 C :   -0.177552
  14 H :    0.167751
  15 H :    0.174190
  16 H :    0.161818
  17 H :    0.170127
  18 H :    0.168091
  19 N :    0.304215
  20 C :   -0.220137
  21 H :    0.139447
  22 H :    0.137197
  23 H :    0.138544
  24 C :   -0.107503
  25 C :   -0.099324
  26 C :   -0.098698
  27 C :   -0.142440
  28 C :   -0.142247
  29 C :   -0.144417
  30 H :    0.156890
  31 H :    0.156884
  32 H :    0.163156
  33 H :    0.163039
  34 H :    0.155613
  35 O :    0.264097
  36 C :   -0.291558
  37 H :    0.121159
  38 H :    0.121106
  39 H :    0.123460
  40 H :    0.167047

  Mayer bond orders larger than 0.100000
B(  0-C ,  1-C ) :   1.5582 B(  0-C ,  5-C ) :   1.2429 B(  0-C , 40-H ) :   0.9650
B(  1-C ,  2-C ) :   1.2226 B(  1-C , 14-H ) :   0.9594 B(  2-C ,  3-C ) :   1.2920
B(  2-C , 19-N ) :   1.2436 B(  3-C ,  4-C ) :   1.1702 B(  3-C ,  6-C ) :   1.2180
B(  4-C ,  5-C ) :   1.6075 B(  4-C , 15-H ) :   0.9442 B(  5-C , 16-H ) :   0.9723
B(  6-C ,  7-C ) :   1.2710 B(  6-C , 24-C ) :   0.7709 B(  7-C ,  8-C ) :   1.2341
B(  7-C , 13-C ) :   1.1182 B(  8-C ,  9-C ) :   1.2397 B(  8-C , 19-N ) :   1.2584
B(  9-C , 10-H ) :   0.9621 B(  9-C , 11-C ) :   1.5427 B( 11-C , 12-C ) :   1.2815
B( 11-C , 17-H ) :   0.9586 B( 12-C , 13-C ) :   1.4870 B( 12-C , 18-H ) :   0.9639
B( 13-C , 35-O ) :   1.1815 B( 19-N , 20-C ) :   0.8826 B( 20-C , 21-H ) :   0.9592
B( 20-C , 22-H ) :   0.9579 B( 20-C , 23-H ) :   0.9568 B( 24-C , 25-C ) :   1.3895
B( 24-C , 26-C ) :   1.3952 B( 25-C , 27-C ) :   1.4405 B( 25-C , 32-H ) :   0.9764
B( 26-C , 28-C ) :   1.4406 B( 26-C , 33-H ) :   0.9773 B( 27-C , 29-C ) :   1.3932
B( 27-C , 30-H ) :   0.9750 B( 28-C , 29-C ) :   1.3945 B( 28-C , 31-H ) :   0.9751
B( 29-C , 34-H ) :   0.9715 B( 35-O , 36-C ) :   0.8765 B( 36-C , 37-H ) :   0.9673
B( 36-C , 38-H ) :   0.9670 B( 36-C , 39-H ) :   0.9712

MP2 TOTAL ENERGY:     -939.368336960 Eh

-----------------------------------------------------------------------------
         ABSORPTION SPECTRUM VIA TRANSITION ELECTRIC DIPOLE MOMENTS
-----------------------------------------------------------------------------
State   Energy    Wavelength  fosc         T2        TX        TY        TZ
        (cm-1)      (nm)                 (au**2)    (au)      (au)      (au)
-----------------------------------------------------------------------------
   1   24308.6    411.4   0.226416402   3.06636  -1.70210  -0.41049   0.02667
   2   31408.1    318.4   0.313335541   3.28431  -0.29369  -1.78818  -0.02137
   3   33388.6    299.5   0.096333881   0.94985   0.03090  -0.97411   0.00346
   4   33414.3    299.3   0.000956246   0.00942   0.06538  -0.05178   0.04966
   5   38803.2    257.7   0.104713886   0.88841  -0.18077  -0.92472  -0.02492
   6   40880.2    244.6   1.120338328   9.02219   0.72366   2.91522   0.00472
   7   42851.2    233.4   0.002003557   0.01539   0.06186   0.10669   0.01355
   8   48457.4    206.4   0.115497850   0.78467   0.87413  -0.14280   0.01368
   9   48533.8    206.0   0.089470380   0.60689   0.67307  -0.39129   0.02748
  10   46430.3    215.4   0.196578543   1.39383  -1.03620  -0.56547  -0.01916
  11   49008.9    204.0   0.022471293   0.15095  -0.12639  -0.36731   0.00772
  12   49091.3    203.7   0.011100820   0.07444  -0.08970   0.24226   0.08779
  13   51045.8    195.9   0.728278090   4.69692  -2.03796   0.53203  -0.51049
  14   51435.4    194.4   0.483283316   3.09325   1.49947  -0.45455  -0.79890
  15   52984.8    188.7   0.364167905   2.26270   0.33951  -0.05178   1.46450
  16   55024.0    181.7   0.304163152   1.81983  -0.96054   0.94708  -0.01538
  17   52928.9    188.9   0.001698800   0.01057   0.05611   0.06244   0.05932
  18   54567.6    183.3   0.195344812   1.17853  -0.83703   0.68973   0.04676
  19   54622.4    183.1   0.087258250   0.52591   0.26946   0.66660  -0.09458
  20   56015.8    178.5   0.003312469   0.01947  -0.11309   0.03286   0.07483
  21   54844.5    182.3   0.055302358   0.33196  -0.10160   0.17142   0.54061
  22   56718.6    176.3   0.000952163   0.00553  -0.03103  -0.01536   0.06578
  23   57801.3    173.0   0.036982150   0.21063   0.18408  -0.03644  -0.41884
  24   57923.8    172.6   0.064417634   0.36612  -0.47119   0.37960  -0.00056
  25   57893.6    172.7   0.008191049   0.04658  -0.11494  -0.16735   0.07322
  26   58408.8    171.2   0.163176588   0.91972  -0.92514  -0.24819  -0.04728
  27   62524.2    159.9   0.006857194   0.03611  -0.01728  -0.05307   0.18163
  28   59263.9    168.7   0.035888938   0.19936  -0.17250  -0.41176  -0.00747
  29   59467.8    168.2   0.040927192   0.22657   0.36013  -0.30854   0.04104
  30   63605.9    157.2   0.066024768   0.34173   0.03624  -0.00665   0.58342

FINAL SINGLE POINT ENERGY      -938.162379547383

DIPOLE MOMENT
-------------
                                X             Y             Z
Electronic contribution:     -3.08869      -2.08119      -0.17887
Nuclear contribution   :      0.87379       3.40696       0.18037
                        -----------------------------------------
Total Dipole Moment    :     -2.21490       1.32577       0.00150
                        -----------------------------------------
Magnitude (a.u.)       :      2.58137
Magnitude (Debye)      :      6.56132

Rotational constants in cm-1:     0.011636     0.009229     0.005463
Rotational constants in MHz :   348.841277   276.680661   163.762894

                             ****ORCA TERMINATED NORMALLY****
TOTAL RUN TIME: 0 days 0 hours 36 minutes 30 seconds 168 msec
