                         Program Version 5.0.2 -  RELEASE  -
|  1> %maxcore 12800
|  2> %pal
|  3>  nprocs= 8
|  4> end
|  5> ! RI-B2PLYP D3BJ def2-TZVP def2/J def2-TZVP/C RIJCOSX CPCM TightSCF
|  6> %TDDFT DCORR 4
|  7>    NROOTS   30
|  8>   TDA      FALSE
|  9> END
| 10>
| 11>  %CPCM
| 12>    SMD          TRUE
| 13>    SMDsolvent   "METHANOL"
| 14>  END
| 15>
| 16>
| 17> * xyz 1 1
| 18> C                  -4.15545200    0.76617200    0.15833200
| 19> C                  -3.05232300    1.62872500    0.09909000
| 20> C                  -1.80121600    1.11410800   -0.13487900
| 21> C                  -1.57070600   -0.26697800   -0.33756400
| 22> C                  -2.70456200   -1.11395800   -0.24745800
| 23> C                  -3.96334800   -0.64751300   -0.00989500
| 24> C                  -0.26349200   -0.71410100   -0.57807600
| 25> C                   0.78362900    0.22173700   -0.60672900
| 26> C                   0.49399900    1.58485200   -0.36828300
| 27> C                   1.46557300    2.55545400   -0.34073800
| 28> H                   1.17968600    3.57970600   -0.15042900
| 29> C                   2.80373600    2.20128300   -0.55639000
| 30> C                   3.14202800    0.83143300   -0.82235100
| 31> C                   2.14435800   -0.09825900   -0.84534600
| 32> H                  -3.16380300    2.69359500    0.24255000
| 33> H                  -2.56128600   -2.18071700   -0.36545500
| 34> H                   2.40668600   -1.12721000   -1.06025000
| 35> O                  -0.77720000    1.99840300   -0.15425700
| 36> C                  -0.00066900   -2.14425400   -0.84763200
| 37> C                  -0.51664100   -2.70771500   -2.01235700
| 38> C                   0.80003300   -2.93880600   -0.01173400
| 39> C                  -0.24908200   -4.02532300   -2.34620200
| 40> H                  -1.12168400   -2.09437600   -2.66848400
| 41> C                   1.07199800   -4.25881700   -0.36270400
| 42> C                   0.54598100   -4.80422500   -1.52012600
| 43> H                  -0.66145700   -4.44045100   -3.25688000
| 44> H                   1.68464500   -4.86108700    0.29463900
| 45> H                   0.75440400   -5.83507300   -1.77494400
| 46> N                  -5.39037700    1.23975100    0.38153200
| 47> C                  -5.71619800    2.63782600    0.58646900
| 48> H                  -5.38675700    3.21538500   -0.28287900
| 49> H                  -5.14943600    3.01807300    1.44230000
| 50> C                  -7.19453900    2.81313800    0.81049700
| 51> H                  -7.52948200    2.26339300    1.69032300
| 52> H                  -7.42968900    3.86410700    0.96403100
| 53> H                  -7.76947000    2.46313700   -0.04706800
| 54> C                   1.31820100   -2.38918100    1.26301200
| 55> O                   0.74557400   -1.54959600    1.92860300
| 56> O                   2.48843200   -2.93376400    1.59756000
| 57> C                   3.57179100    4.53507500   -0.26531900
| 58> H                   3.06167700    4.65346400    0.69569100
| 59> H                   2.89881300    4.94745500   -1.02402500
| 60> C                   4.88390100    5.27354700   -0.26308200
| 61> H                   5.39066400    5.18370700   -1.22416500
| 62> H                   4.71998800    6.33146300   -0.06977400
| 63> H                   5.55196700    4.89149500    0.50903300
| 64> N                   3.77772700    3.12336400   -0.52362500
| 65> H                  -6.15277700    0.58245300    0.42228900
| 66> H                   4.72442400    2.82183000   -0.69016700
| 67> C                   4.56425700    0.45830800   -1.05755200
| 68> H                   4.98114600    0.97736900   -1.92428900
| 69> H                   5.19429600    0.71942500   -0.20329500
| 70> H                   4.66463300   -0.61069900   -1.22976400
| 71> C                  -5.13122600   -1.56671500    0.08512600
| 72> H                  -5.88314100   -1.34542100   -0.67674300
| 73> H                  -4.82369000   -2.60130800   -0.04420200
| 74> H                  -5.63224400   -1.48531800    1.05318100
| 75> C                   3.10564600   -2.45360300    2.81939100
| 76> H                   2.33274200   -2.33596200    3.57859000
| 77> H                   3.76589700   -3.26528900    3.11799400
| 78> C                   3.85959600   -1.17946200    2.57115300
| 79> H                   4.37449200   -0.87574100    3.48192200
| 80> H                   4.60854300   -1.31649500    1.79181300
| 81> H                   3.19268600   -0.36954900    2.27594200
| 82> *
| 83>
| 84>
| 85>                          ****END OF INPUT****

CARTESIAN COORDINATES (ANGSTROEM)
---------------------------------
  C     -4.155452    0.766172    0.158332
  C     -3.052323    1.628725    0.099090
  C     -1.801216    1.114108   -0.134879
  C     -1.570706   -0.266978   -0.337564
  C     -2.704562   -1.113958   -0.247458
  C     -3.963348   -0.647513   -0.009895
  C     -0.263492   -0.714101   -0.578076
  C      0.783629    0.221737   -0.606729
  C      0.493999    1.584852   -0.368283
  C      1.465573    2.555454   -0.340738
  H      1.179686    3.579706   -0.150429
  C      2.803736    2.201283   -0.556390
  C      3.142028    0.831433   -0.822351
  C      2.144358   -0.098259   -0.845346
  H     -3.163803    2.693595    0.242550
  H     -2.561286   -2.180717   -0.365455
  H      2.406686   -1.127210   -1.060250
  O     -0.777200    1.998403   -0.154257
  C     -0.000669   -2.144254   -0.847632
  C     -0.516641   -2.707715   -2.012357
  C      0.800033   -2.938806   -0.011734
  C     -0.249082   -4.025323   -2.346202
  H     -1.121684   -2.094376   -2.668484
  C      1.071998   -4.258817   -0.362704
  C      0.545981   -4.804225   -1.520126
  H     -0.661457   -4.440451   -3.256880
  H      1.684645   -4.861087    0.294639
  H      0.754404   -5.835073   -1.774944
  N     -5.390377    1.239751    0.381532
  C     -5.716198    2.637826    0.586469
  H     -5.386757    3.215385   -0.282879
  H     -5.149436    3.018073    1.442300
  C     -7.194539    2.813138    0.810497
  H     -7.529482    2.263393    1.690323
  H     -7.429689    3.864107    0.964031
  H     -7.769470    2.463137   -0.047068
  C      1.318201   -2.389181    1.263012
  O      0.745574   -1.549596    1.928603
  O      2.488432   -2.933764    1.597560
  C      3.571791    4.535075   -0.265319
  H      3.061677    4.653464    0.695691
  H      2.898813    4.947455   -1.024025
  C      4.883901    5.273547   -0.263082
  H      5.390664    5.183707   -1.224165
  H      4.719988    6.331463   -0.069774
  H      5.551967    4.891495    0.509033
  N      3.777727    3.123364   -0.523625
  H     -6.152777    0.582453    0.422289
  H      4.724424    2.821830   -0.690167
  C      4.564257    0.458308   -1.057552
  H      4.981146    0.977369   -1.924289
  H      5.194296    0.719425   -0.203295
  H      4.664633   -0.610699   -1.229764
  C     -5.131226   -1.566715    0.085126
  H     -5.883141   -1.345421   -0.676743
  H     -4.823690   -2.601308   -0.044202
  H     -5.632244   -1.485318    1.053181
  C      3.105646   -2.453603    2.819391
  H      2.332742   -2.335962    3.578590
  H      3.765897   -3.265289    3.117994
  C      3.859596   -1.179462    2.571153
  H      4.374492   -0.875741    3.481922
  H      4.608543   -1.316495    1.791813
  H      3.192686   -0.369549    2.275942

 Total Charge           Charge          ....    1
 Multiplicity           Mult            ....    1
 Number of Electrons    NEL             ....  236
 Basis Dimension        Dim             .... 1209

ORBITAL ENERGIES
----------------

  NO   OCC          E(Eh)            E(eV)
   0   2.0000     -19.814797      -539.1880
   1   2.0000     -19.779410      -538.2251
   2   2.0000     -19.726818      -536.7940
   3   2.0000     -14.867329      -404.5606
   4   2.0000     -14.866535      -404.5390
   5   2.0000     -10.771785      -293.1152
   6   2.0000     -10.717091      -291.6269
   7   2.0000     -10.716516      -291.6112
   8   2.0000     -10.691428      -290.9286
   9   2.0000     -10.690530      -290.9041
  10   2.0000     -10.689295      -290.8705
  11   2.0000     -10.667833      -290.2865
  12   2.0000     -10.656873      -289.9883
  13   2.0000     -10.650438      -289.8131
  14   2.0000     -10.646138      -289.6962
  15   2.0000     -10.645957      -289.6912
  16   2.0000     -10.643858      -289.6341
  17   2.0000     -10.643443      -289.6228
  18   2.0000     -10.636293      -289.4283
  19   2.0000     -10.636252      -289.4271
  20   2.0000     -10.635853      -289.4163
  21   2.0000     -10.635163      -289.3975
  22   2.0000     -10.635121      -289.3964
  23   2.0000     -10.633959      -289.3647
  24   2.0000     -10.632480      -289.3245
  25   2.0000     -10.629135      -289.2335
  26   2.0000     -10.619384      -288.9681
  27   2.0000     -10.619261      -288.9648
  28   2.0000     -10.607701      -288.6502
  29   2.0000     -10.607651      -288.6489
  30   2.0000     -10.600633      -288.4579
  31   2.0000     -10.600550      -288.4556
  32   2.0000     -10.598924      -288.4114
  33   2.0000      -1.281392       -34.8685
  34   2.0000      -1.268418       -34.5154
  35   2.0000      -1.175343       -31.9827
  36   2.0000      -1.096124       -29.8271
  37   2.0000      -1.095423       -29.8080
  38   2.0000      -1.028409       -27.9844
  39   2.0000      -1.002964       -27.2920
  40   2.0000      -0.997202       -27.1352
  41   2.0000      -0.949021       -25.8242
  42   2.0000      -0.926764       -25.2185
  43   2.0000      -0.910046       -24.7636
  44   2.0000      -0.893714       -24.3192
  45   2.0000      -0.892471       -24.2854
  46   2.0000      -0.885150       -24.0862
  47   2.0000      -0.872305       -23.7366
  48   2.0000      -0.864564       -23.5260
  49   2.0000      -0.848249       -23.0820
  50   2.0000      -0.818006       -22.2591
  51   2.0000      -0.803561       -21.8660
  52   2.0000      -0.782572       -21.2949
  53   2.0000      -0.763316       -20.7709
  54   2.0000      -0.750117       -20.4117
  55   2.0000      -0.742691       -20.2097
  56   2.0000      -0.737263       -20.0619
  57   2.0000      -0.726767       -19.7763
  58   2.0000      -0.716099       -19.4860
  59   2.0000      -0.693316       -18.8661
  60   2.0000      -0.687642       -18.7117
  61   2.0000      -0.669878       -18.2283
  62   2.0000      -0.663969       -18.0675
  63   2.0000      -0.651599       -17.7309
  64   2.0000      -0.628395       -17.0995
  65   2.0000      -0.613528       -16.6950
  66   2.0000      -0.606875       -16.5139
  67   2.0000      -0.587907       -15.9978
  68   2.0000      -0.582047       -15.8383
  69   2.0000      -0.576926       -15.6989
  70   2.0000      -0.569087       -15.4857
  71   2.0000      -0.561355       -15.2753
  72   2.0000      -0.558088       -15.1863
  73   2.0000      -0.549212       -14.9448
  74   2.0000      -0.546626       -14.8745
  75   2.0000      -0.545843       -14.8531
  76   2.0000      -0.544321       -14.8117
  77   2.0000      -0.542358       -14.7583
  78   2.0000      -0.539571       -14.6825
  79   2.0000      -0.523268       -14.2389
  80   2.0000      -0.517093       -14.0708
  81   2.0000      -0.512716       -13.9517
  82   2.0000      -0.509799       -13.8723
  83   2.0000      -0.507455       -13.8086
  84   2.0000      -0.503279       -13.6949
  85   2.0000      -0.497441       -13.5361
  86   2.0000      -0.493884       -13.4393
  87   2.0000      -0.481989       -13.1156
  88   2.0000      -0.476891       -12.9769
  89   2.0000      -0.461223       -12.5505
  90   2.0000      -0.458933       -12.4882
  91   2.0000      -0.453415       -12.3381
  92   2.0000      -0.453350       -12.3363
  93   2.0000      -0.451502       -12.2860
  94   2.0000      -0.448339       -12.1999
  95   2.0000      -0.446631       -12.1535
  96   2.0000      -0.444899       -12.1063
  97   2.0000      -0.440850       -11.9961
  98   2.0000      -0.436500       -11.8778
  99   2.0000      -0.434750       -11.8301
 100   2.0000      -0.432843       -11.7783
 101   2.0000      -0.430640       -11.7183
 102   2.0000      -0.428458       -11.6589
 103   2.0000      -0.422881       -11.5072
 104   2.0000      -0.421109       -11.4590
 105   2.0000      -0.418650       -11.3920
 106   2.0000      -0.406988       -11.0747
 107   2.0000      -0.403924       -10.9913
 108   2.0000      -0.392176       -10.6716
 109   2.0000      -0.380111       -10.3433
 110   2.0000      -0.368538       -10.0284
 111   2.0000      -0.366285        -9.9671
 112   2.0000      -0.317761        -8.6467
 113   2.0000      -0.313976        -8.5437
 114   2.0000      -0.310500        -8.4491
 115   2.0000      -0.289310        -7.8725
 116   2.0000      -0.279636        -7.6093
 117   2.0000      -0.236759        -6.4425
 118   0.0000      -0.057814        -1.5732
 119   0.0000      -0.006984        -0.1901
 120   0.0000       0.021621         0.5883
 121   0.0000       0.032061         0.8724
 122   0.0000       0.048328         1.3151

MULLIKEN ATOMIC CHARGES
-----------------------
   0 C :    0.301310
   1 C :   -0.461777
   2 C :    0.311827
   3 C :    0.095682
   4 C :   -0.311023
   5 C :    0.093721
   6 C :    0.342820
   7 C :    0.120778
   8 C :    0.266978
   9 C :   -0.441936
  10 H :    0.161706
  11 C :    0.293203
  12 C :    0.086414
  13 C :   -0.337825
  14 H :    0.162404
  15 H :    0.185908
  16 H :    0.186271
  17 O :   -0.266249
  18 C :    0.028800
  19 C :   -0.301091
  20 C :    0.001928
  21 C :   -0.105284
  22 H :    0.169388
  23 C :   -0.177630
  24 C :   -0.157018
  25 H :    0.168831
  26 H :    0.171607
  27 H :    0.166798
  28 N :   -0.276005
  29 C :   -0.064831
  30 H :    0.124870
  31 H :    0.124740
  32 C :   -0.390288
  33 H :    0.128836
  34 H :    0.138607
  35 H :    0.128389
  36 C :    0.434780
  37 O :   -0.509715
  38 O :   -0.332804
  39 C :   -0.063859
  40 H :    0.124347
  41 H :    0.123840
  42 C :   -0.391604
  43 H :    0.128737
  44 H :    0.138767
  45 H :    0.128436
  46 N :   -0.275626
  47 H :    0.279745
  48 H :    0.279558
  49 C :   -0.470287
  50 H :    0.154162
  51 H :    0.151019
  52 H :    0.151561
  53 C :   -0.463657
  54 H :    0.149273
  55 H :    0.150793
  56 H :    0.148669
  57 C :    0.009940
  58 H :    0.124821
  59 H :    0.137134
  60 C :   -0.376605
  61 H :    0.137783
  62 H :    0.123139
  63 H :    0.136791
Sum of atomic charges:    1.0000000

LOEWDIN ATOMIC CHARGES
----------------------
   0 C :   -0.142861
   1 C :   -0.108700
   2 C :   -0.141145
   3 C :   -0.089680
   4 C :   -0.043508
   5 C :   -0.141338
   6 C :    0.043940
   7 C :   -0.091587
   8 C :   -0.142292
   9 C :   -0.108107
  10 H :    0.164936
  11 C :   -0.144843
  12 C :   -0.141787
  13 C :   -0.045574
  14 H :    0.165034
  15 H :    0.170680
  16 H :    0.172794
  17 O :    0.376984
  18 C :   -0.047576
  19 C :   -0.077862
  20 C :   -0.084404
  21 C :   -0.109751
  22 H :    0.165467
  23 C :   -0.077138
  24 C :   -0.120156
  25 H :    0.158237
  26 H :    0.162250
  27 H :    0.157067
  28 N :    0.158952
  29 C :   -0.285561
  30 H :    0.134940
  31 H :    0.134870
  32 C :   -0.295385
  33 H :    0.121970
  34 H :    0.127227
  35 H :    0.121902
  36 C :   -0.398447
  37 O :    0.040598
  38 O :    0.248024
  39 C :   -0.285875
  40 H :    0.134978
  41 H :    0.134375
  42 C :   -0.295464
  43 H :    0.121925
  44 H :    0.127099
  45 H :    0.121811
  46 N :    0.157978
  47 H :    0.207755
  48 H :    0.207492
  49 C :   -0.245440
  50 H :    0.132523
  51 H :    0.131886
  52 H :    0.134859
  53 C :   -0.243952
  54 H :    0.132431
  55 H :    0.134396
  56 H :    0.132208
  57 C :   -0.269608
  58 H :    0.130804
  59 H :    0.133501
  60 C :   -0.298851
  61 H :    0.129754
  62 H :    0.123125
  63 H :    0.122117

  Mayer bond orders larger than 0.100000
B(  0-C ,  1-C ) :   1.2683 B(  0-C ,  5-C ) :   1.1211 B(  0-C , 28-N ) :   1.3543
B(  1-C ,  2-C ) :   1.4644 B(  1-C , 14-H ) :   0.9893 B(  2-C ,  3-C ) :   1.2542
B(  2-C , 17-O ) :   1.0767 B(  3-C ,  4-C ) :   1.1472 B(  3-C ,  6-C ) :   1.1891
B(  4-C ,  5-C ) :   1.6276 B(  4-C , 15-H ) :   0.9510 B(  5-C , 53-C ) :   0.9046
B(  6-C ,  7-C ) :   1.1349 B(  6-C , 18-C ) :   0.6522 B(  7-C ,  8-C ) :   1.2865
B(  7-C , 13-C ) :   1.1057 B(  8-C ,  9-C ) :   1.4731 B(  8-C , 17-O ) :   1.0761
B(  9-C , 10-H ) :   0.9900 B(  9-C , 11-C ) :   1.2735 B( 11-C , 12-C ) :   1.1236
B( 11-C , 46-N ) :   1.3505 B( 12-C , 13-C ) :   1.6457 B( 12-C , 49-C ) :   0.9063
B( 13-C , 16-H ) :   0.9481 B( 18-C , 19-C ) :   1.4107 B( 18-C , 20-C ) :   1.3236
B( 19-C , 21-C ) :   1.4081 B( 19-C , 22-H ) :   0.9890 B( 20-C , 23-C ) :   1.3933
B( 20-C , 36-C ) :   0.9681 B( 20-C , 38-O ) :  -0.1295 B( 21-C , 24-C ) :   1.3832
B( 21-C , 25-H ) :   0.9768 B( 23-C , 24-C ) :   1.4036 B( 23-C , 26-H ) :   0.9722
B( 24-C , 27-H ) :   0.9786 B( 28-N , 29-C ) :   0.8974 B( 28-N , 47-H ) :   0.8953
B( 29-C , 30-H ) :   0.9651 B( 29-C , 31-H ) :   0.9652 B( 29-C , 32-C ) :   0.9694
B( 32-C , 33-H ) :   0.9772 B( 32-C , 34-H ) :   0.9797 B( 32-C , 35-H ) :   0.9772
B( 36-C , 37-O ) :   1.8534 B( 36-C , 38-O ) :   1.2481 B( 38-O , 57-C ) :   0.8322
B( 39-C , 40-H ) :   0.9654 B( 39-C , 41-H ) :   0.9646 B( 39-C , 42-C ) :   0.9695
B( 39-C , 46-N ) :   0.8978 B( 42-C , 43-H ) :   0.9771 B( 42-C , 44-H ) :   0.9799
B( 42-C , 45-H ) :   0.9772 B( 46-N , 48-H ) :   0.8955 B( 49-C , 50-H ) :   0.9703
B( 49-C , 51-H ) :   0.9783 B( 49-C , 52-H ) :   0.9861 B( 53-C , 54-H ) :   0.9753
B( 53-C , 55-H ) :   0.9846 B( 53-C , 56-H ) :   0.9761 B( 57-C , 58-H ) :   0.9809
B( 57-C , 59-H ) :   0.9662 B( 57-C , 60-C ) :   0.9784 B( 60-C , 61-H ) :   0.9675
B( 60-C , 62-H ) :   0.9690 B( 60-C , 63-H ) :   0.9774

MP2 TOTAL ENERGY:    -1420.062531973 Eh

-----------------------------------------------------------------------------
         ABSORPTION SPECTRUM VIA TRANSITION ELECTRIC DIPOLE MOMENTS
-----------------------------------------------------------------------------
State   Energy    Wavelength  fosc         T2        TX        TY        TZ
        (cm-1)      (nm)                 (au**2)    (au)      (au)      (au)
-----------------------------------------------------------------------------
   1   20353.1    491.3   0.936819142  15.15311   3.79121   0.78878  -0.39708
   2   25544.7    391.5   0.001929927   0.02487   0.03112  -0.15432  -0.00949
   3   30185.1    331.3   0.375905597   4.09980   0.59773  -1.91861  -0.24788
   4   32041.4    312.1   0.010683230   0.10977   0.30840  -0.08743  -0.08373
   5   32179.5    310.8   0.044307082   0.45328  -0.53733   0.39598   0.08809
   6   33997.1    294.1   0.000228689   0.00221  -0.02810   0.03760  -0.00329
   7   34860.6    286.9   0.021458221   0.20264   0.02488   0.24409   0.37742
   8   35971.7    278.0   0.284716377   2.60571   0.12177  -1.60045  -0.17163
   9   38509.6    259.7   0.027183553   0.23239  -0.34144   0.24951  -0.23141
  10   38516.5    259.6   0.019644745   0.16791  -0.03507   0.29320   0.28410
  11   39423.8    253.7   0.012738740   0.10638  -0.24664   0.21331  -0.00640
  12   42495.7    235.3   0.125373666   0.97126   0.29571   0.52311   0.78113
  13   40575.4    246.5   0.113694596   0.92247  -0.59429  -0.72622  -0.20469
  14   39678.3    252.0   0.029072458   0.24121  -0.40150   0.16857   0.22714
  15   40164.7    249.0   0.210561473   1.72588   1.02778   0.77827  -0.25267
  16   42856.5    233.3   1.056875127   8.11863  -2.83590  -0.16410   0.22213
  17   44061.2    227.0   0.023857180   0.17825  -0.30772   0.27139  -0.09955
  18   43792.5    228.3   0.036652412   0.27554  -0.46660  -0.15350  -0.18510
  19   43650.8    229.1   0.040162799   0.30291   0.23691  -0.45243   0.20516
  20   46780.0    213.8   0.258778328   1.82114  -0.04963  -0.76455  -1.11092
  21   48926.3    204.4   0.016155992   0.10871   0.01004  -0.29722  -0.14236
  22   43943.5    227.6   0.091195375   0.68321  -0.40171  -0.65594  -0.30261
  23   46975.3    212.9   0.420862674   2.94949  -0.26982   1.69405   0.08286
  24   45495.2    219.8   0.118738031   0.85921  -0.46045  -0.46824  -0.65418
  25   50028.9    199.9   0.005811981   0.03825  -0.15516   0.09935  -0.06557
  26   47089.3    212.4   0.084982438   0.59413  -0.24157   0.65973  -0.31706
  27   48950.1    204.3   0.169586568   1.14055   0.87114  -0.15025   0.59924
  28   46946.5    213.0   0.056068090   0.39318   0.20631  -0.55433  -0.20815
  29   47767.6    209.3   0.036989941   0.25493   0.39605  -0.24913   0.18976
  30   47320.0    211.3   0.025557372   0.17781   0.28055   0.07951   0.30459

Dispersion correction           -0.068693754
FINAL SINGLE POINT ENERGY     -1418.222982090883

DIPOLE MOMENT
-------------
                                X             Y             Z
Electronic contribution:     -2.64199     -16.42237      -5.90997
Nuclear contribution   :      2.25953      17.50823       4.93684
                        -----------------------------------------
Total Dipole Moment    :     -0.38246       1.08586      -0.97313
                        -----------------------------------------
Magnitude (a.u.)       :      1.50743
Magnitude (Debye)      :      3.83158

Rotational constants in cm-1:     0.004857     0.003173     0.002222
Rotational constants in MHz :   145.624084    95.129369    66.608773

                             ****ORCA TERMINATED NORMALLY****
TOTAL RUN TIME: 0 days 3 hours 34 minutes 12 seconds 563 msec
