                         Program Version 5.0.2 -  RELEASE  -
|  1> %maxcore 20000
|  2> %pal
|  3>  nprocs= 4
|  4> end
|  5> ! RI-DSD-BLYP D3BJ def2-TZVP def2/J def2-TZVP/C RIJCOSX CPCM TightSCF
|  6> %TDDFT
|  7>    NROOTS   30
|  8>    dcorr 4
|  9>    doscs true
| 10>    scspar 0.333, 1.2, 0.43, 1.24
| 11>    TDA      FALSE
| 12> END
| 13>
| 14>  %CPCM
| 15>    SMD          TRUE
| 16>    SMDsolvent   "METHANOL"
| 17>  END
| 18>
| 19>
| 20> * xyz 1 1
| 21> C                  -4.15545200    0.76617200    0.15833200
| 22> C                  -3.05232300    1.62872500    0.09909000
| 23> C                  -1.80121600    1.11410800   -0.13487900
| 24> C                  -1.57070600   -0.26697800   -0.33756400
| 25> C                  -2.70456200   -1.11395800   -0.24745800
| 26> C                  -3.96334800   -0.64751300   -0.00989500
| 27> C                  -0.26349200   -0.71410100   -0.57807600
| 28> C                   0.78362900    0.22173700   -0.60672900
| 29> C                   0.49399900    1.58485200   -0.36828300
| 30> C                   1.46557300    2.55545400   -0.34073800
| 31> H                   1.17968600    3.57970600   -0.15042900
| 32> C                   2.80373600    2.20128300   -0.55639000
| 33> C                   3.14202800    0.83143300   -0.82235100
| 34> C                   2.14435800   -0.09825900   -0.84534600
| 35> H                  -3.16380300    2.69359500    0.24255000
| 36> H                  -2.56128600   -2.18071700   -0.36545500
| 37> H                   2.40668600   -1.12721000   -1.06025000
| 38> O                  -0.77720000    1.99840300   -0.15425700
| 39> C                  -0.00066900   -2.14425400   -0.84763200
| 40> C                  -0.51664100   -2.70771500   -2.01235700
| 41> C                   0.80003300   -2.93880600   -0.01173400
| 42> C                  -0.24908200   -4.02532300   -2.34620200
| 43> H                  -1.12168400   -2.09437600   -2.66848400
| 44> C                   1.07199800   -4.25881700   -0.36270400
| 45> C                   0.54598100   -4.80422500   -1.52012600
| 46> H                  -0.66145700   -4.44045100   -3.25688000
| 47> H                   1.68464500   -4.86108700    0.29463900
| 48> H                   0.75440400   -5.83507300   -1.77494400
| 49> N                  -5.39037700    1.23975100    0.38153200
| 50> C                  -5.71619800    2.63782600    0.58646900
| 51> H                  -5.38675700    3.21538500   -0.28287900
| 52> H                  -5.14943600    3.01807300    1.44230000
| 53> C                  -7.19453900    2.81313800    0.81049700
| 54> H                  -7.52948200    2.26339300    1.69032300
| 55> H                  -7.42968900    3.86410700    0.96403100
| 56> H                  -7.76947000    2.46313700   -0.04706800
| 57> C                   1.31820100   -2.38918100    1.26301200
| 58> O                   0.74557400   -1.54959600    1.92860300
| 59> O                   2.48843200   -2.93376400    1.59756000
| 60> C                   3.57179100    4.53507500   -0.26531900
| 61> H                   3.06167700    4.65346400    0.69569100
| 62> H                   2.89881300    4.94745500   -1.02402500
| 63> C                   4.88390100    5.27354700   -0.26308200
| 64> H                   5.39066400    5.18370700   -1.22416500
| 65> H                   4.71998800    6.33146300   -0.06977400
| 66> H                   5.55196700    4.89149500    0.50903300
| 67> N                   3.77772700    3.12336400   -0.52362500
| 68> H                  -6.15277700    0.58245300    0.42228900
| 69> H                   4.72442400    2.82183000   -0.69016700
| 70> C                   4.56425700    0.45830800   -1.05755200
| 71> H                   4.98114600    0.97736900   -1.92428900
| 72> H                   5.19429600    0.71942500   -0.20329500
| 73> H                   4.66463300   -0.61069900   -1.22976400
| 74> C                  -5.13122600   -1.56671500    0.08512600
| 75> H                  -5.88314100   -1.34542100   -0.67674300
| 76> H                  -4.82369000   -2.60130800   -0.04420200
| 77> H                  -5.63224400   -1.48531800    1.05318100
| 78> C                   3.10564600   -2.45360300    2.81939100
| 79> H                   2.33274200   -2.33596200    3.57859000
| 80> H                   3.76589700   -3.26528900    3.11799400
| 81> C                   3.85959600   -1.17946200    2.57115300
| 82> H                   4.37449200   -0.87574100    3.48192200
| 83> H                   4.60854300   -1.31649500    1.79181300
| 84> H                   3.19268600   -0.36954900    2.27594200
| 85> *
| 86>
| 87>
| 88>                          ****END OF INPUT****

CARTESIAN COORDINATES (ANGSTROEM)
---------------------------------
  C     -4.155452    0.766172    0.158332
  C     -3.052323    1.628725    0.099090
  C     -1.801216    1.114108   -0.134879
  C     -1.570706   -0.266978   -0.337564
  C     -2.704562   -1.113958   -0.247458
  C     -3.963348   -0.647513   -0.009895
  C     -0.263492   -0.714101   -0.578076
  C      0.783629    0.221737   -0.606729
  C      0.493999    1.584852   -0.368283
  C      1.465573    2.555454   -0.340738
  H      1.179686    3.579706   -0.150429
  C      2.803736    2.201283   -0.556390
  C      3.142028    0.831433   -0.822351
  C      2.144358   -0.098259   -0.845346
  H     -3.163803    2.693595    0.242550
  H     -2.561286   -2.180717   -0.365455
  H      2.406686   -1.127210   -1.060250
  O     -0.777200    1.998403   -0.154257
  C     -0.000669   -2.144254   -0.847632
  C     -0.516641   -2.707715   -2.012357
  C      0.800033   -2.938806   -0.011734
  C     -0.249082   -4.025323   -2.346202
  H     -1.121684   -2.094376   -2.668484
  C      1.071998   -4.258817   -0.362704
  C      0.545981   -4.804225   -1.520126
  H     -0.661457   -4.440451   -3.256880
  H      1.684645   -4.861087    0.294639
  H      0.754404   -5.835073   -1.774944
  N     -5.390377    1.239751    0.381532
  C     -5.716198    2.637826    0.586469
  H     -5.386757    3.215385   -0.282879
  H     -5.149436    3.018073    1.442300
  C     -7.194539    2.813138    0.810497
  H     -7.529482    2.263393    1.690323
  H     -7.429689    3.864107    0.964031
  H     -7.769470    2.463137   -0.047068
  C      1.318201   -2.389181    1.263012
  O      0.745574   -1.549596    1.928603
  O      2.488432   -2.933764    1.597560
  C      3.571791    4.535075   -0.265319
  H      3.061677    4.653464    0.695691
  H      2.898813    4.947455   -1.024025
  C      4.883901    5.273547   -0.263082
  H      5.390664    5.183707   -1.224165
  H      4.719988    6.331463   -0.069774
  H      5.551967    4.891495    0.509033
  N      3.777727    3.123364   -0.523625
  H     -6.152777    0.582453    0.422289
  H      4.724424    2.821830   -0.690167
  C      4.564257    0.458308   -1.057552
  H      4.981146    0.977369   -1.924289
  H      5.194296    0.719425   -0.203295
  H      4.664633   -0.610699   -1.229764
  C     -5.131226   -1.566715    0.085126
  H     -5.883141   -1.345421   -0.676743
  H     -4.823690   -2.601308   -0.044202
  H     -5.632244   -1.485318    1.053181
  C      3.105646   -2.453603    2.819391
  H      2.332742   -2.335962    3.578590
  H      3.765897   -3.265289    3.117994
  C      3.859596   -1.179462    2.571153
  H      4.374492   -0.875741    3.481922
  H      4.608543   -1.316495    1.791813
  H      3.192686   -0.369549    2.275942

 Total Charge           Charge          ....    1
 Multiplicity           Mult            ....    1
 Number of Electrons    NEL             ....  236
 Basis Dimension        Dim             .... 1209

ORBITAL ENERGIES
----------------

  NO   OCC          E(Eh)            E(eV)
   0   2.0000     -20.100859      -546.9722
   1   2.0000     -20.064397      -545.9800
   2   2.0000     -20.012077      -544.5563
   3   2.0000     -15.114332      -411.2819
   4   2.0000     -15.113460      -411.2581
   5   2.0000     -10.988310      -299.0071
   6   2.0000     -10.932469      -297.4876
   7   2.0000     -10.931793      -297.4692
   8   2.0000     -10.906302      -296.7756
   9   2.0000     -10.906211      -296.7731
  10   2.0000     -10.905294      -296.7481
  11   2.0000     -10.879230      -296.0389
  12   2.0000     -10.869751      -295.7810
  13   2.0000     -10.862489      -295.5833
  14   2.0000     -10.856576      -295.4224
  15   2.0000     -10.856380      -295.4171
  16   2.0000     -10.854038      -295.3534
  17   2.0000     -10.853551      -295.3401
  18   2.0000     -10.848889      -295.2133
  19   2.0000     -10.848874      -295.2129
  20   2.0000     -10.848166      -295.1936
  21   2.0000     -10.845954      -295.1334
  22   2.0000     -10.845936      -295.1329
  23   2.0000     -10.845894      -295.1318
  24   2.0000     -10.844536      -295.0948
  25   2.0000     -10.840768      -294.9923
  26   2.0000     -10.829296      -294.6801
  27   2.0000     -10.829184      -294.6771
  28   2.0000     -10.817940      -294.3711
  29   2.0000     -10.817895      -294.3699
  30   2.0000     -10.810730      -294.1749
  31   2.0000     -10.810638      -294.1724
  32   2.0000     -10.809066      -294.1296
  33   2.0000      -1.353620       -36.8339
  34   2.0000      -1.340673       -36.4816
  35   2.0000      -1.244955       -33.8769
  36   2.0000      -1.159661       -31.5560
  37   2.0000      -1.158892       -31.5351
  38   2.0000      -1.090955       -29.6864
  39   2.0000      -1.063190       -28.9309
  40   2.0000      -1.057937       -28.7879
  41   2.0000      -1.007055       -27.4034
  42   2.0000      -0.983136       -26.7525
  43   2.0000      -0.965974       -26.2855
  44   2.0000      -0.949247       -25.8303
  45   2.0000      -0.947444       -25.7813
  46   2.0000      -0.940331       -25.5877
  47   2.0000      -0.926753       -25.2182
  48   2.0000      -0.918090       -24.9825
  49   2.0000      -0.901160       -24.5218
  50   2.0000      -0.867892       -23.6165
  51   2.0000      -0.854611       -23.2552
  52   2.0000      -0.831954       -22.6386
  53   2.0000      -0.811430       -22.0801
  54   2.0000      -0.797092       -21.6900
  55   2.0000      -0.789013       -21.4701
  56   2.0000      -0.783637       -21.3238
  57   2.0000      -0.772928       -21.0324
  58   2.0000      -0.760700       -20.6997
  59   2.0000      -0.737972       -20.0812
  60   2.0000      -0.731778       -19.9127
  61   2.0000      -0.709834       -19.3156
  62   2.0000      -0.705857       -19.2073
  63   2.0000      -0.695179       -18.9168
  64   2.0000      -0.669482       -18.2175
  65   2.0000      -0.653438       -17.7810
  66   2.0000      -0.645378       -17.5616
  67   2.0000      -0.628658       -17.1067
  68   2.0000      -0.618673       -16.8349
  69   2.0000      -0.615838       -16.7578
  70   2.0000      -0.607448       -16.5295
  71   2.0000      -0.597490       -16.2585
  72   2.0000      -0.595931       -16.2161
  73   2.0000      -0.585150       -15.9227
  74   2.0000      -0.582493       -15.8504
  75   2.0000      -0.581182       -15.8148
  76   2.0000      -0.580049       -15.7839
  77   2.0000      -0.578614       -15.7449
  78   2.0000      -0.576922       -15.6989
  79   2.0000      -0.558867       -15.2076
  80   2.0000      -0.551932       -15.0188
  81   2.0000      -0.547737       -14.9047
  82   2.0000      -0.543226       -14.7819
  83   2.0000      -0.542451       -14.7609
  84   2.0000      -0.536832       -14.6080
  85   2.0000      -0.529474       -14.4077
  86   2.0000      -0.526073       -14.3152
  87   2.0000      -0.515869       -14.0375
  88   2.0000      -0.509868       -13.8742
  89   2.0000      -0.493913       -13.4400
  90   2.0000      -0.491313       -13.3693
  91   2.0000      -0.484792       -13.1919
  92   2.0000      -0.484411       -13.1815
  93   2.0000      -0.482027       -13.1166
  94   2.0000      -0.479766       -13.0551
  95   2.0000      -0.477618       -12.9967
  96   2.0000      -0.475556       -12.9405
  97   2.0000      -0.472204       -12.8493
  98   2.0000      -0.468592       -12.7510
  99   2.0000      -0.465040       -12.6544
 100   2.0000      -0.463209       -12.6045
 101   2.0000      -0.461090       -12.5469
 102   2.0000      -0.459378       -12.5003
 103   2.0000      -0.452129       -12.3031
 104   2.0000      -0.450108       -12.2481
 105   2.0000      -0.448305       -12.1990
 106   2.0000      -0.437832       -11.9140
 107   2.0000      -0.434732       -11.8297
 108   2.0000      -0.421040       -11.4571
 109   2.0000      -0.410716       -11.1762
 110   2.0000      -0.401458       -10.9242
 111   2.0000      -0.392106       -10.6697
 112   2.0000      -0.337377        -9.1805
 113   2.0000      -0.333402        -9.0723
 114   2.0000      -0.328916        -8.9503
 115   2.0000      -0.308724        -8.4008
 116   2.0000      -0.299328        -8.1451
 117   2.0000      -0.251942        -6.8557
 118   0.0000      -0.035791        -0.9739
 119   0.0000       0.018521         0.5040
 120   0.0000       0.047041         1.2801
 121   0.0000       0.058455         1.5906
 122   0.0000       0.075418         2.0522

MULLIKEN ATOMIC CHARGES
-----------------------
   0 C :    0.330984
   1 C :   -0.498565
   2 C :    0.342107
   3 C :    0.098660
   4 C :   -0.313245
   5 C :    0.076322
   6 C :    0.385654
   7 C :    0.119431
   8 C :    0.292035
   9 C :   -0.475543
  10 H :    0.165899
  11 C :    0.320133
  12 C :    0.069992
  13 C :   -0.342663
  14 H :    0.166657
  15 H :    0.190014
  16 H :    0.189903
  17 O :   -0.284333
  18 C :    0.036889
  19 C :   -0.319828
  20 C :    0.005717
  21 C :   -0.104959
  22 H :    0.175079
  23 C :   -0.176438
  24 C :   -0.163646
  25 H :    0.173307
  26 H :    0.178216
  27 H :    0.171078
  28 N :   -0.298833
  29 C :   -0.059797
  30 H :    0.123396
  31 H :    0.123183
  32 C :   -0.387468
  33 H :    0.128133
  34 H :    0.138717
  35 H :    0.127641
  36 C :    0.455772
  37 O :   -0.540003
  38 O :   -0.353575
  39 C :   -0.058346
  40 H :    0.122805
  41 H :    0.122257
  42 C :   -0.389478
  43 H :    0.128121
  44 H :    0.138955
  45 H :    0.127795
  46 N :   -0.297900
  47 H :    0.286202
  48 H :    0.286109
  49 C :   -0.474081
  50 H :    0.154221
  51 H :    0.150444
  52 H :    0.153776
  53 C :   -0.468073
  54 H :    0.148888
  55 H :    0.153030
  56 H :    0.148231
  57 C :    0.018529
  58 H :    0.125595
  59 H :    0.137707
  60 C :   -0.377995
  61 H :    0.138741
  62 H :    0.122391
  63 H :    0.136055
Sum of atomic charges:    1.0000000

LOEWDIN ATOMIC CHARGES
----------------------
   0 C :   -0.134865
   1 C :   -0.112525
   2 C :   -0.132388
   3 C :   -0.093945
   4 C :   -0.038889
   5 C :   -0.143978
   6 C :    0.053733
   7 C :   -0.095997
   8 C :   -0.133751
   9 C :   -0.111832
  10 H :    0.164491
  11 C :   -0.137098
  12 C :   -0.144191
  13 C :   -0.041399
  14 H :    0.164595
  15 H :    0.170852
  16 H :    0.172927
  17 O :    0.365947
  18 C :   -0.046444
  19 C :   -0.077443
  20 C :   -0.084297
  21 C :   -0.107719
  22 H :    0.165405
  23 C :   -0.074997
  24 C :   -0.119480
  25 H :    0.158247
  26 H :    0.162485
  27 H :    0.156957
  28 N :    0.151107
  29 C :   -0.282583
  30 H :    0.133276
  31 H :    0.133195
  32 C :   -0.291986
  33 H :    0.120707
  34 H :    0.125853
  35 H :    0.120631
  36 C :   -0.382500
  37 O :    0.027914
  38 O :    0.235940
  39 C :   -0.282909
  40 H :    0.133305
  41 H :    0.132683
  42 C :   -0.292097
  43 H :    0.120660
  44 H :    0.125722
  45 H :    0.120553
  46 N :    0.150056
  47 H :    0.207863
  48 H :    0.207587
  49 C :   -0.243085
  50 H :    0.130901
  51 H :    0.130248
  52 H :    0.133726
  53 C :   -0.241623
  54 H :    0.130748
  55 H :    0.133235
  56 H :    0.130550
  57 C :   -0.262618
  58 H :    0.130240
  59 H :    0.132501
  60 C :   -0.295447
  61 H :    0.128396
  62 H :    0.121928
  63 H :    0.120918

  Mayer bond orders larger than 0.100000
B(  0-C ,  1-C ) :   1.2659 B(  0-C ,  5-C ) :   1.1214 B(  0-C , 28-N ) :   1.3594
B(  1-C ,  2-C ) :   1.4613 B(  1-C , 14-H ) :   0.9916 B(  2-C ,  3-C ) :   1.2668
B(  2-C , 17-O ) :   1.0793 B(  3-C ,  4-C ) :   1.1352 B(  3-C ,  6-C ) :   1.1941
B(  4-C ,  5-C ) :   1.6345 B(  4-C , 15-H ) :   0.9558 B(  5-C , 53-C ) :   0.9070
B(  6-C ,  7-C ) :   1.1352 B(  6-C , 18-C ) :   0.6137 B(  6-C , 19-C ) :  -0.1119
B(  7-C ,  8-C ) :   1.3038 B(  7-C , 13-C ) :   1.0932 B(  8-C ,  9-C ) :   1.4725
B(  8-C , 17-O ) :   1.0782 B(  9-C , 10-H ) :   0.9919 B(  9-C , 11-C ) :   1.2723
B( 11-C , 12-C ) :   1.1254 B( 11-C , 46-N ) :   1.3557 B( 12-C , 13-C ) :   1.6546
B( 12-C , 49-C ) :   0.9096 B( 13-C , 16-H ) :   0.9515 B( 18-C , 19-C ) :   1.4314
B( 18-C , 20-C ) :   1.3300 B( 19-C , 21-C ) :   1.4151 B( 19-C , 22-H ) :   0.9866
B( 20-C , 23-C ) :   1.4094 B( 20-C , 36-C ) :   0.9646 B( 20-C , 38-O ) :  -0.1312
B( 21-C , 24-C ) :   1.3881 B( 21-C , 25-H ) :   0.9776 B( 23-C , 24-C ) :   1.4045
B( 23-C , 26-H ) :   0.9712 B( 24-C , 27-H ) :   0.9799 B( 28-N , 29-C ) :   0.8893
B( 28-N , 47-H ) :   0.8941 B( 29-C , 30-H ) :   0.9699 B( 29-C , 31-H ) :   0.9701
B( 29-C , 32-C ) :   0.9712 B( 32-C , 33-H ) :   0.9798 B( 32-C , 34-H ) :   0.9821
B( 32-C , 35-H ) :   0.9797 B( 36-C , 37-O ) :   1.8369 B( 36-C , 38-O ) :   1.2457
B( 38-O , 57-C ) :   0.8231 B( 39-C , 40-H ) :   0.9703 B( 39-C , 41-H ) :   0.9695
B( 39-C , 42-C ) :   0.9710 B( 39-C , 46-N ) :   0.8896 B( 42-C , 43-H ) :   0.9798
B( 42-C , 44-H ) :   0.9823 B( 42-C , 45-H ) :   0.9797 B( 46-N , 48-H ) :   0.8942
B( 49-C , 50-H ) :   0.9746 B( 49-C , 51-H ) :   0.9827 B( 49-C , 52-H ) :   0.9888
B( 53-C , 54-H ) :   0.9799 B( 53-C , 55-H ) :   0.9872 B( 53-C , 56-H ) :   0.9805
B( 57-C , 58-H ) :   0.9844 B( 57-C , 59-H ) :   0.9691 B( 57-C , 60-C ) :   0.9818
B( 60-C , 61-H ) :   0.9706 B( 60-C , 62-H ) :   0.9716 B( 60-C , 63-H ) :   0.9790

MP2 TOTAL ENERGY:    -1419.405456805 Eh

-----------------------------------------------------------------------------
         ABSORPTION SPECTRUM VIA TRANSITION ELECTRIC DIPOLE MOMENTS
-----------------------------------------------------------------------------
State   Energy    Wavelength  fosc         T2        TX        TY        TZ
        (cm-1)      (nm)                 (au**2)    (au)      (au)      (au)
-----------------------------------------------------------------------------
   1   10566.1    946.4   0.493656429  15.38110   3.82055   0.79000  -0.40044
   2   15364.3    650.9   0.002734138   0.05858   0.05744  -0.23428  -0.01995
   3   21792.8    458.9   0.316350228   4.77892   0.64067  -2.07455  -0.25436
   4   24111.0    414.7   0.001764971   0.02410  -0.08378   0.13035  -0.00944
   5   22331.1    447.8   0.051581919   0.76044  -0.60703   0.58695   0.21781
   6   25153.7    397.6   0.014662964   0.19191   0.29767  -0.15372   0.28226
   7   25976.2    385.0   0.038080257   0.48261   0.08364  -0.57327  -0.38338
   8   26594.5    376.0   0.180767746   2.23772  -0.05124  -1.47784  -0.22602
   9   33461.4    298.9   0.066225511   0.65156  -0.36194  -0.11438  -0.71237
  10   28062.4    356.3   0.003974779   0.04663   0.18229   0.10148  -0.05570
  11   32436.2    308.3   0.036323687   0.36867  -0.09520  -0.51375  -0.30930
  12   27625.1    362.0   0.000972098   0.01158  -0.05872   0.08940   0.01200
  13   32254.3    310.0   0.033061322   0.33745  -0.36393  -0.45039  -0.04632
  14   36095.7    277.0   0.982920262   8.96476  -2.86151  -0.85477   0.21421
  15   28591.9    349.7   0.017399289   0.20034  -0.21141   0.26361   0.29352
  16   31828.4    314.2   0.241797172   2.50099  -1.26391   0.91172   0.26882
  17   36340.9    275.2   0.044988753   0.40755   0.00101  -0.59842  -0.22236
  18   43645.1    229.1   0.385161696   2.90525   0.80209   0.14550   1.49691
  19   40714.9    245.6   0.472930126   3.82401  -0.32277   1.89519   0.35790
  20   44620.3    224.1   0.005619128   0.04146   0.06579  -0.16263  -0.10336
  21   33817.6    295.7   0.002815066   0.02740   0.14296  -0.01458  -0.08219
  22   46274.3    216.1   0.002955659   0.02103  -0.02002   0.08032   0.11906
  23   36429.9    274.5   0.069885438   0.63155  -0.32351  -0.68248  -0.24719
  24   36749.3    272.1   0.021234947   0.19023   0.06326   0.35394   0.24689
  25   30476.2    328.1   0.073926780   0.79858  -0.75969   0.19010  -0.43048
  26   27116.0    368.8   0.009029674   0.10963  -0.21973  -0.21561   0.12188
  27   28985.0    345.0   0.009990449   0.11347  -0.16548   0.22538  -0.18787
  28   45290.7    220.8   0.017172905   0.12483   0.07360   0.26636   0.22015
  29   41871.9    238.8   0.022766479   0.17900   0.07999   0.41283   0.04656
  30   33877.4    295.2   0.011397505   0.11076  -0.32341  -0.02865   0.07310

Dispersion correction           -0.054642508
FINAL SINGLE POINT ENERGY     -1416.681566968094

DIPOLE MOMENT
-------------
                                X             Y             Z
Electronic contribution:     -2.62419     -16.56641      -5.94945
Nuclear contribution   :      2.25953      17.50823       4.93684
                        -----------------------------------------
Total Dipole Moment    :     -0.36466       0.94182      -1.01260
                        -----------------------------------------
Magnitude (a.u.)       :      1.43016
Magnitude (Debye)      :      3.63518

Rotational constants in cm-1:     0.004857     0.003173     0.002222
Rotational constants in MHz :   145.624084    95.129369    66.608773

                             ****ORCA TERMINATED NORMALLY****
TOTAL RUN TIME: 0 days 8 hours 57 minutes 32 seconds 184 msec
