                         Program Version 5.0.2 -  RELEASE  -
|  1> %maxcore 12800
|  2> %pal
|  3>  nprocs= 8
|  4> end
|  5> ! RI-wB2PLYP def2-TZVP def2/J def2-TZVP/C RIJCOSX CPCM TightSCF
|  6> %TDDFT DCORR 1
|  7>    NROOTS   30
|  8>   TDA      FALSE
|  9> END
| 10>
| 11>  %CPCM
| 12>    SMD          TRUE
| 13>    SMDsolvent   "METHANOL"
| 14>  END
| 15>
| 16>
| 17> * xyz 1 1
| 18> C                  -4.15545200    0.76617200    0.15833200
| 19> C                  -3.05232300    1.62872500    0.09909000
| 20> C                  -1.80121600    1.11410800   -0.13487900
| 21> C                  -1.57070600   -0.26697800   -0.33756400
| 22> C                  -2.70456200   -1.11395800   -0.24745800
| 23> C                  -3.96334800   -0.64751300   -0.00989500
| 24> C                  -0.26349200   -0.71410100   -0.57807600
| 25> C                   0.78362900    0.22173700   -0.60672900
| 26> C                   0.49399900    1.58485200   -0.36828300
| 27> C                   1.46557300    2.55545400   -0.34073800
| 28> H                   1.17968600    3.57970600   -0.15042900
| 29> C                   2.80373600    2.20128300   -0.55639000
| 30> C                   3.14202800    0.83143300   -0.82235100
| 31> C                   2.14435800   -0.09825900   -0.84534600
| 32> H                  -3.16380300    2.69359500    0.24255000
| 33> H                  -2.56128600   -2.18071700   -0.36545500
| 34> H                   2.40668600   -1.12721000   -1.06025000
| 35> O                  -0.77720000    1.99840300   -0.15425700
| 36> C                  -0.00066900   -2.14425400   -0.84763200
| 37> C                  -0.51664100   -2.70771500   -2.01235700
| 38> C                   0.80003300   -2.93880600   -0.01173400
| 39> C                  -0.24908200   -4.02532300   -2.34620200
| 40> H                  -1.12168400   -2.09437600   -2.66848400
| 41> C                   1.07199800   -4.25881700   -0.36270400
| 42> C                   0.54598100   -4.80422500   -1.52012600
| 43> H                  -0.66145700   -4.44045100   -3.25688000
| 44> H                   1.68464500   -4.86108700    0.29463900
| 45> H                   0.75440400   -5.83507300   -1.77494400
| 46> N                  -5.39037700    1.23975100    0.38153200
| 47> C                  -5.71619800    2.63782600    0.58646900
| 48> H                  -5.38675700    3.21538500   -0.28287900
| 49> H                  -5.14943600    3.01807300    1.44230000
| 50> C                  -7.19453900    2.81313800    0.81049700
| 51> H                  -7.52948200    2.26339300    1.69032300
| 52> H                  -7.42968900    3.86410700    0.96403100
| 53> H                  -7.76947000    2.46313700   -0.04706800
| 54> C                   1.31820100   -2.38918100    1.26301200
| 55> O                   0.74557400   -1.54959600    1.92860300
| 56> O                   2.48843200   -2.93376400    1.59756000
| 57> C                   3.57179100    4.53507500   -0.26531900
| 58> H                   3.06167700    4.65346400    0.69569100
| 59> H                   2.89881300    4.94745500   -1.02402500
| 60> C                   4.88390100    5.27354700   -0.26308200
| 61> H                   5.39066400    5.18370700   -1.22416500
| 62> H                   4.71998800    6.33146300   -0.06977400
| 63> H                   5.55196700    4.89149500    0.50903300
| 64> N                   3.77772700    3.12336400   -0.52362500
| 65> H                  -6.15277700    0.58245300    0.42228900
| 66> H                   4.72442400    2.82183000   -0.69016700
| 67> C                   4.56425700    0.45830800   -1.05755200
| 68> H                   4.98114600    0.97736900   -1.92428900
| 69> H                   5.19429600    0.71942500   -0.20329500
| 70> H                   4.66463300   -0.61069900   -1.22976400
| 71> C                  -5.13122600   -1.56671500    0.08512600
| 72> H                  -5.88314100   -1.34542100   -0.67674300
| 73> H                  -4.82369000   -2.60130800   -0.04420200
| 74> H                  -5.63224400   -1.48531800    1.05318100
| 75> C                   3.10564600   -2.45360300    2.81939100
| 76> H                   2.33274200   -2.33596200    3.57859000
| 77> H                   3.76589700   -3.26528900    3.11799400
| 78> C                   3.85959600   -1.17946200    2.57115300
| 79> H                   4.37449200   -0.87574100    3.48192200
| 80> H                   4.60854300   -1.31649500    1.79181300
| 81> H                   3.19268600   -0.36954900    2.27594200
| 82> *
| 83>
| 84>
| 85>                          ****END OF INPUT****

CARTESIAN COORDINATES (ANGSTROEM)
---------------------------------
  C     -4.155452    0.766172    0.158332
  C     -3.052323    1.628725    0.099090
  C     -1.801216    1.114108   -0.134879
  C     -1.570706   -0.266978   -0.337564
  C     -2.704562   -1.113958   -0.247458
  C     -3.963348   -0.647513   -0.009895
  C     -0.263492   -0.714101   -0.578076
  C      0.783629    0.221737   -0.606729
  C      0.493999    1.584852   -0.368283
  C      1.465573    2.555454   -0.340738
  H      1.179686    3.579706   -0.150429
  C      2.803736    2.201283   -0.556390
  C      3.142028    0.831433   -0.822351
  C      2.144358   -0.098259   -0.845346
  H     -3.163803    2.693595    0.242550
  H     -2.561286   -2.180717   -0.365455
  H      2.406686   -1.127210   -1.060250
  O     -0.777200    1.998403   -0.154257
  C     -0.000669   -2.144254   -0.847632
  C     -0.516641   -2.707715   -2.012357
  C      0.800033   -2.938806   -0.011734
  C     -0.249082   -4.025323   -2.346202
  H     -1.121684   -2.094376   -2.668484
  C      1.071998   -4.258817   -0.362704
  C      0.545981   -4.804225   -1.520126
  H     -0.661457   -4.440451   -3.256880
  H      1.684645   -4.861087    0.294639
  H      0.754404   -5.835073   -1.774944
  N     -5.390377    1.239751    0.381532
  C     -5.716198    2.637826    0.586469
  H     -5.386757    3.215385   -0.282879
  H     -5.149436    3.018073    1.442300
  C     -7.194539    2.813138    0.810497
  H     -7.529482    2.263393    1.690323
  H     -7.429689    3.864107    0.964031
  H     -7.769470    2.463137   -0.047068
  C      1.318201   -2.389181    1.263012
  O      0.745574   -1.549596    1.928603
  O      2.488432   -2.933764    1.597560
  C      3.571791    4.535075   -0.265319
  H      3.061677    4.653464    0.695691
  H      2.898813    4.947455   -1.024025
  C      4.883901    5.273547   -0.263082
  H      5.390664    5.183707   -1.224165
  H      4.719988    6.331463   -0.069774
  H      5.551967    4.891495    0.509033
  N      3.777727    3.123364   -0.523625
  H     -6.152777    0.582453    0.422289
  H      4.724424    2.821830   -0.690167
  C      4.564257    0.458308   -1.057552
  H      4.981146    0.977369   -1.924289
  H      5.194296    0.719425   -0.203295
  H      4.664633   -0.610699   -1.229764
  C     -5.131226   -1.566715    0.085126
  H     -5.883141   -1.345421   -0.676743
  H     -4.823690   -2.601308   -0.044202
  H     -5.632244   -1.485318    1.053181
  C      3.105646   -2.453603    2.819391
  H      2.332742   -2.335962    3.578590
  H      3.765897   -3.265289    3.117994
  C      3.859596   -1.179462    2.571153
  H      4.374492   -0.875741    3.481922
  H      4.608543   -1.316495    1.791813
  H      3.192686   -0.369549    2.275942

 Total Charge           Charge          ....    1
 Multiplicity           Mult            ....    1
 Number of Electrons    NEL             ....  236
 Basis Dimension        Dim             .... 1209

ORBITAL ENERGIES
----------------

  NO   OCC          E(Eh)            E(eV)
   0   2.0000     -19.890396      -541.2452
   1   2.0000     -19.853795      -540.2492
   2   2.0000     -19.802047      -538.8411
   3   2.0000     -14.938136      -406.4873
   4   2.0000     -14.937247      -406.4632
   5   2.0000     -10.847769      -295.1828
   6   2.0000     -10.793557      -293.7076
   7   2.0000     -10.792874      -293.6890
   8   2.0000     -10.768691      -293.0310
   9   2.0000     -10.767140      -292.9888
  10   2.0000     -10.766150      -292.9618
  11   2.0000     -10.738825      -292.2183
  12   2.0000     -10.730861      -292.0016
  13   2.0000     -10.723863      -291.8112
  14   2.0000     -10.716018      -291.5977
  15   2.0000     -10.715816      -291.5922
  16   2.0000     -10.715013      -291.5703
  17   2.0000     -10.714546      -291.5576
  18   2.0000     -10.709848      -291.4298
  19   2.0000     -10.709706      -291.4259
  20   2.0000     -10.708400      -291.3904
  21   2.0000     -10.707523      -291.3665
  22   2.0000     -10.707320      -291.3610
  23   2.0000     -10.706410      -291.3362
  24   2.0000     -10.704693      -291.2895
  25   2.0000     -10.701055      -291.1905
  26   2.0000     -10.689739      -290.8826
  27   2.0000     -10.689675      -290.8808
  28   2.0000     -10.677445      -290.5480
  29   2.0000     -10.677241      -290.5425
  30   2.0000     -10.670044      -290.3467
  31   2.0000     -10.669944      -290.3439
  32   2.0000     -10.668862      -290.3145
  33   2.0000      -1.366144       -37.1747
  34   2.0000      -1.352722       -36.8094
  35   2.0000      -1.257418       -34.2161
  36   2.0000      -1.179357       -32.0919
  37   2.0000      -1.178569       -32.0705
  38   2.0000      -1.114791       -30.3350
  39   2.0000      -1.087672       -29.5971
  40   2.0000      -1.081983       -29.4422
  41   2.0000      -1.032823       -28.1046
  42   2.0000      -1.009593       -27.4724
  43   2.0000      -0.992724       -27.0134
  44   2.0000      -0.975786       -26.5525
  45   2.0000      -0.974119       -26.5071
  46   2.0000      -0.966624       -26.3032
  47   2.0000      -0.953390       -25.9431
  48   2.0000      -0.945392       -25.7254
  49   2.0000      -0.928365       -25.2621
  50   2.0000      -0.897404       -24.4196
  51   2.0000      -0.882607       -24.0170
  52   2.0000      -0.861303       -23.4373
  53   2.0000      -0.840781       -22.8788
  54   2.0000      -0.828433       -22.5428
  55   2.0000      -0.820048       -22.3146
  56   2.0000      -0.814086       -22.1524
  57   2.0000      -0.803972       -21.8772
  58   2.0000      -0.792224       -21.5575
  59   2.0000      -0.769410       -20.9367
  60   2.0000      -0.763041       -20.7634
  61   2.0000      -0.744074       -20.2473
  62   2.0000      -0.738586       -20.0980
  63   2.0000      -0.726357       -19.7652
  64   2.0000      -0.704066       -19.1586
  65   2.0000      -0.687643       -18.7117
  66   2.0000      -0.680076       -18.5058
  67   2.0000      -0.661992       -18.0137
  68   2.0000      -0.653385       -17.7795
  69   2.0000      -0.650027       -17.6881
  70   2.0000      -0.646058       -17.5801
  71   2.0000      -0.633249       -17.2316
  72   2.0000      -0.631268       -17.1777
  73   2.0000      -0.619267       -16.8511
  74   2.0000      -0.618654       -16.8344
  75   2.0000      -0.616797       -16.7839
  76   2.0000      -0.616137       -16.7660
  77   2.0000      -0.614151       -16.7119
  78   2.0000      -0.610654       -16.6167
  79   2.0000      -0.593009       -16.1366
  80   2.0000      -0.586810       -15.9679
  81   2.0000      -0.582138       -15.8408
  82   2.0000      -0.577413       -15.7122
  83   2.0000      -0.576476       -15.6867
  84   2.0000      -0.571493       -15.5511
  85   2.0000      -0.568310       -15.4645
  86   2.0000      -0.563902       -15.3446
  87   2.0000      -0.551676       -15.0119
  88   2.0000      -0.544113       -14.8061
  89   2.0000      -0.529613       -14.4115
  90   2.0000      -0.526192       -14.3184
  91   2.0000      -0.520562       -14.1652
  92   2.0000      -0.519361       -14.1325
  93   2.0000      -0.518901       -14.1200
  94   2.0000      -0.516485       -14.0543
  95   2.0000      -0.513267       -13.9667
  96   2.0000      -0.511873       -13.9288
  97   2.0000      -0.506333       -13.7780
  98   2.0000      -0.502657       -13.6780
  99   2.0000      -0.500038       -13.6067
 100   2.0000      -0.497844       -13.5470
 101   2.0000      -0.495265       -13.4768
 102   2.0000      -0.493311       -13.4237
 103   2.0000      -0.490753       -13.3541
 104   2.0000      -0.487630       -13.2691
 105   2.0000      -0.482531       -13.1303
 106   2.0000      -0.471151       -12.8207
 107   2.0000      -0.468183       -12.7399
 108   2.0000      -0.456912       -12.4332
 109   2.0000      -0.445981       -12.1358
 110   2.0000      -0.435712       -11.8563
 111   2.0000      -0.429391       -11.6843
 112   2.0000      -0.377408       -10.2698
 113   2.0000      -0.372185       -10.1277
 114   2.0000      -0.368195       -10.0191
 115   2.0000      -0.345930        -9.4132
 116   2.0000      -0.336820        -9.1653
 117   2.0000      -0.286165        -7.7870
 118   0.0000      -0.022520        -0.6128
 119   0.0000       0.035068         0.9542
 120   0.0000       0.063142         1.7182
 121   0.0000       0.073897         2.0108
 122   0.0000       0.092237         2.5099

MULLIKEN ATOMIC CHARGES
-----------------------
   0 C :    0.309896
   1 C :   -0.437196
   2 C :    0.278364
   3 C :    0.053828
   4 C :   -0.284194
   5 C :    0.065335
   6 C :    0.271559
   7 C :    0.100775
   8 C :    0.245803
   9 C :   -0.418393
  10 H :    0.188705
  11 C :    0.305302
  12 C :    0.052455
  13 C :   -0.329275
  14 H :    0.189523
  15 H :    0.212928
  16 H :    0.218515
  17 O :   -0.244578
  18 C :   -0.020689
  19 C :   -0.291806
  20 C :   -0.006459
  21 C :   -0.126450
  22 H :    0.195894
  23 C :   -0.175741
  24 C :   -0.181882
  25 H :    0.191573
  26 H :    0.193406
  27 H :    0.189255
  28 N :   -0.288627
  29 C :   -0.111332
  30 H :    0.145045
  31 H :    0.144940
  32 C :   -0.443953
  33 H :    0.146253
  34 H :    0.155257
  35 H :    0.145857
  36 C :    0.414174
  37 O :   -0.484155
  38 O :   -0.318257
  39 C :   -0.110277
  40 H :    0.144333
  41 H :    0.144208
  42 C :   -0.445278
  43 H :    0.146166
  44 H :    0.155406
  45 H :    0.145887
  46 N :   -0.287917
  47 H :    0.290789
  48 H :    0.290581
  49 C :   -0.522088
  50 H :    0.175291
  51 H :    0.171077
  52 H :    0.169358
  53 C :   -0.511880
  54 H :    0.168962
  55 H :    0.167054
  56 H :    0.168137
  57 C :   -0.042054
  58 H :    0.147817
  59 H :    0.157097
  60 C :   -0.424380
  61 H :    0.157466
  62 H :    0.141806
  63 H :    0.150784
Sum of atomic charges:    1.0000000

LOEWDIN ATOMIC CHARGES
----------------------
   0 C :   -0.139102
   1 C :   -0.116776
   2 C :   -0.138414
   3 C :   -0.096529
   4 C :   -0.041846
   5 C :   -0.146687
   6 C :    0.051920
   7 C :   -0.098744
   8 C :   -0.139838
   9 C :   -0.116006
  10 H :    0.168704
  11 C :   -0.141417
  12 C :   -0.147274
  13 C :   -0.044942
  14 H :    0.168791
  15 H :    0.175195
  16 H :    0.177349
  17 O :    0.379202
  18 C :   -0.050155
  19 C :   -0.080921
  20 C :   -0.087079
  21 C :   -0.111775
  22 H :    0.170004
  23 C :   -0.078982
  24 C :   -0.122805
  25 H :    0.162610
  26 H :    0.166506
  27 H :    0.161339
  28 N :    0.153736
  29 C :   -0.294634
  30 H :    0.138351
  31 H :    0.138278
  32 C :   -0.305581
  33 H :    0.125689
  34 H :    0.131006
  35 H :    0.125624
  36 C :   -0.399425
  37 O :    0.042457
  38 O :    0.248438
  39 C :   -0.294976
  40 H :    0.138352
  41 H :    0.137790
  42 C :   -0.305661
  43 H :    0.125638
  44 H :    0.130870
  45 H :    0.125535
  46 N :    0.152611
  47 H :    0.209750
  48 H :    0.209465
  49 C :   -0.255127
  50 H :    0.136354
  51 H :    0.135370
  52 H :    0.138783
  53 C :   -0.253439
  54 H :    0.136020
  55 H :    0.138249
  56 H :    0.135797
  57 C :   -0.277350
  58 H :    0.134737
  59 H :    0.137578
  60 C :   -0.308560
  61 H :    0.134093
  62 H :    0.126709
  63 H :    0.125138

  Mayer bond orders larger than 0.100000
B(  0-C ,  1-C ) :   1.2942 B(  0-C ,  5-C ) :   1.1166 B(  0-C , 28-N ) :   1.3471
B(  1-C ,  2-C ) :   1.5133 B(  1-C , 14-H ) :   0.9454 B(  2-C ,  3-C ) :   1.2563
B(  2-C , 17-O ) :   1.0850 B(  3-C ,  4-C ) :   1.1573 B(  3-C ,  6-C ) :   1.2250
B(  4-C ,  5-C ) :   1.6659 B(  4-C , 15-H ) :   0.9238 B(  5-C , 53-C ) :   0.8886
B(  6-C ,  7-C ) :   1.1648 B(  6-C , 18-C ) :   0.6968 B(  7-C ,  8-C ) :   1.2836
B(  7-C , 13-C ) :   1.0971 B(  8-C ,  9-C ) :   1.5198 B(  8-C , 17-O ) :   1.0849
B(  9-C , 10-H ) :   0.9459 B(  9-C , 11-C ) :   1.2987 B( 11-C , 12-C ) :   1.1185
B( 11-C , 46-N ) :   1.3425 B( 12-C , 13-C ) :   1.6794 B( 12-C , 49-C ) :   0.8919
B( 13-C , 16-H ) :   0.9269 B( 18-C , 19-C ) :   1.4276 B( 18-C , 20-C ) :   1.3178
B( 19-C , 21-C ) :   1.4125 B( 19-C , 22-H ) :   0.9723 B( 20-C , 23-C ) :   1.4027
B( 20-C , 36-C ) :   0.9503 B( 20-C , 38-O ) :  -0.1316 B( 21-C , 24-C ) :   1.3918
B( 21-C , 25-H ) :   0.9693 B( 23-C , 24-C ) :   1.4114 B( 23-C , 26-H ) :   0.9589
B( 24-C , 27-H ) :   0.9716 B( 28-N , 29-C ) :   0.8867 B( 28-N , 47-H ) :   0.8965
B( 29-C , 30-H ) :   0.9682 B( 29-C , 31-H ) :   0.9685 B( 29-C , 32-C ) :   0.9588
B( 32-C , 33-H ) :   0.9770 B( 32-C , 34-H ) :   0.9795 B( 32-C , 35-H ) :   0.9769
B( 36-C , 37-O ) :   1.8875 B( 36-C , 38-O ) :   1.2604 B( 38-O , 57-C ) :   0.8303
B( 39-C , 40-H ) :   0.9687 B( 39-C , 41-H ) :   0.9679 B( 39-C , 42-C ) :   0.9583
B( 39-C , 46-N ) :   0.8873 B( 42-C , 43-H ) :   0.9770 B( 42-C , 44-H ) :   0.9796
B( 42-C , 45-H ) :   0.9769 B( 46-N , 48-H ) :   0.8968 B( 49-C , 50-H ) :   0.9709
B( 49-C , 51-H ) :   0.9805 B( 49-C , 52-H ) :   0.9852 B( 53-C , 54-H ) :   0.9768
B( 53-C , 55-H ) :   0.9831 B( 53-C , 56-H ) :   0.9778 B( 57-C , 58-H ) :   0.9846
B( 57-C , 59-H ) :   0.9659 B( 57-C , 60-C ) :   0.9623 B( 60-C , 61-H ) :   0.9687
B( 60-C , 62-H ) :   0.9680 B( 60-C , 63-H ) :   0.9742

MP2 TOTAL ENERGY:    -1418.497115233 Eh

-----------------------------------------------------------------------------
         ABSORPTION SPECTRUM VIA TRANSITION ELECTRIC DIPOLE MOMENTS
-----------------------------------------------------------------------------
State   Energy    Wavelength  fosc         T2        TX        TY        TZ
        (cm-1)      (nm)                 (au**2)    (au)      (au)      (au)
-----------------------------------------------------------------------------
   1   22379.9    446.8   1.056726909  15.54463   3.84215   0.78757  -0.40277
   2   30001.8    333.3   0.004846736   0.05318   0.05716  -0.22279  -0.01671
   3   35477.9    281.9   0.576219660   5.34695  -0.65581   2.20160   0.26423
   4   37199.5    268.8   0.009644341   0.08535   0.21543  -0.19578  -0.02469
   5   39694.3    251.9   0.026177172   0.21711  -0.19499   0.30358   0.29483
   6   39858.6    250.9   0.124672795   1.02973  -0.49173   0.88261  -0.09451
   7   41331.8    241.9   0.226623046   1.80508  -0.07773   1.22358   0.54944
   8   40852.2    244.8   0.077121167   0.62149  -0.56348  -0.55075  -0.02545
   9   44392.9    225.3   0.101132526   0.74999  -0.33141  -0.26665  -0.75435
  10   44254.9    226.0   0.019075269   0.14190  -0.13369   0.22695  -0.26930
  11   44391.3    225.3   0.007335565   0.05440   0.10479   0.13530   0.15848
  12   45371.4    220.4   0.018724397   0.13586  -0.04523  -0.36439   0.03224
  13   45069.6    221.9   0.061903903   0.45218  -0.29588  -0.59865  -0.07909
  14   48446.7    206.4   1.458503656   9.91103  -3.05609  -0.72032   0.22910
  15   49118.4    203.6   0.049260927   0.33017  -0.40043   0.30383   0.27841
  16   52070.9    192.0   0.535841841   3.38779  -0.28029  -1.18232  -1.38251
  17   51221.9    195.2   0.460493833   2.95967  -0.96266   1.35687  -0.43803
  18   50819.6    196.8   0.025685045   0.16639  -0.04104  -0.37670  -0.15099
  19   51291.6    195.0   0.103220515   0.66251   0.09515   0.56782   0.57536
  20   52297.2    191.2   0.253403046   1.59518   0.36828  -1.20287   0.11253
  21   52607.6    190.1   0.020393658   0.12762   0.10254  -0.20843   0.27141
  22   55137.4    181.4   0.004367409   0.02608  -0.03028  -0.05132   0.15009
  23   53518.2    186.9   0.080258284   0.49370  -0.55560  -0.29102  -0.31673
  24   51382.8    194.6   0.023596817   0.15119  -0.28225   0.05189  -0.26235
  25   54579.1    183.2   0.010017668   0.06042  -0.16727  -0.07920  -0.16178
  26   52748.5    189.6   0.046235349   0.28856   0.52725   0.03157   0.09786
  27   55022.1    181.7   0.017182570   0.10281  -0.10025  -0.20029  -0.22944
  28   59253.6    168.8   0.007862249   0.04368  -0.00465   0.14498   0.15047
  29   56047.4    178.4   0.054327667   0.31911  -0.18698   0.53284   0.01521
  30   57529.6    173.8   0.008584965   0.04913   0.03255   0.18719   0.11415

FINAL SINGLE POINT ENERGY     -1416.753565184096

DIPOLE MOMENT
-------------
                                X             Y             Z
Electronic contribution:     -2.61787     -16.55986      -5.92709
Nuclear contribution   :      2.25953      17.50823       4.93684
                        -----------------------------------------
Total Dipole Moment    :     -0.35833       0.94836      -0.99025
                        -----------------------------------------
Magnitude (a.u.)       :      1.41718
Magnitude (Debye)      :      3.60218

Rotational constants in cm-1:     0.004857     0.003173     0.002222
Rotational constants in MHz :   145.624084    95.129369    66.608773

                             ****ORCA TERMINATED NORMALLY****
TOTAL RUN TIME: 0 days 3 hours 27 minutes 32 seconds 486 msec
