                         Program Version 5.0.2 -  RELEASE  -
|  1> %maxcore 20000
|  2> %pal
|  3>  nprocs= 4
|  4> end
|  5> ! RI-wPBEPP86   def2-TZVP def2/J def2-TZVP/C RIJCOSX CPCM TightSCF
|  6> %TDDFT
|  7>    NROOTS   30
|  8>    dcorr 1
|  9>    TDA      FALSE
| 10> END
| 11>
| 12>  %CPCM
| 13>    SMD          TRUE
| 14>    SMDsolvent   "METHANOL"
| 15>  END
| 16>
| 17>
| 18> * xyz 1 1
| 19> C                  -4.15545200    0.76617200    0.15833200
| 20> C                  -3.05232300    1.62872500    0.09909000
| 21> C                  -1.80121600    1.11410800   -0.13487900
| 22> C                  -1.57070600   -0.26697800   -0.33756400
| 23> C                  -2.70456200   -1.11395800   -0.24745800
| 24> C                  -3.96334800   -0.64751300   -0.00989500
| 25> C                  -0.26349200   -0.71410100   -0.57807600
| 26> C                   0.78362900    0.22173700   -0.60672900
| 27> C                   0.49399900    1.58485200   -0.36828300
| 28> C                   1.46557300    2.55545400   -0.34073800
| 29> H                   1.17968600    3.57970600   -0.15042900
| 30> C                   2.80373600    2.20128300   -0.55639000
| 31> C                   3.14202800    0.83143300   -0.82235100
| 32> C                   2.14435800   -0.09825900   -0.84534600
| 33> H                  -3.16380300    2.69359500    0.24255000
| 34> H                  -2.56128600   -2.18071700   -0.36545500
| 35> H                   2.40668600   -1.12721000   -1.06025000
| 36> O                  -0.77720000    1.99840300   -0.15425700
| 37> C                  -0.00066900   -2.14425400   -0.84763200
| 38> C                  -0.51664100   -2.70771500   -2.01235700
| 39> C                   0.80003300   -2.93880600   -0.01173400
| 40> C                  -0.24908200   -4.02532300   -2.34620200
| 41> H                  -1.12168400   -2.09437600   -2.66848400
| 42> C                   1.07199800   -4.25881700   -0.36270400
| 43> C                   0.54598100   -4.80422500   -1.52012600
| 44> H                  -0.66145700   -4.44045100   -3.25688000
| 45> H                   1.68464500   -4.86108700    0.29463900
| 46> H                   0.75440400   -5.83507300   -1.77494400
| 47> N                  -5.39037700    1.23975100    0.38153200
| 48> C                  -5.71619800    2.63782600    0.58646900
| 49> H                  -5.38675700    3.21538500   -0.28287900
| 50> H                  -5.14943600    3.01807300    1.44230000
| 51> C                  -7.19453900    2.81313800    0.81049700
| 52> H                  -7.52948200    2.26339300    1.69032300
| 53> H                  -7.42968900    3.86410700    0.96403100
| 54> H                  -7.76947000    2.46313700   -0.04706800
| 55> C                   1.31820100   -2.38918100    1.26301200
| 56> O                   0.74557400   -1.54959600    1.92860300
| 57> O                   2.48843200   -2.93376400    1.59756000
| 58> C                   3.57179100    4.53507500   -0.26531900
| 59> H                   3.06167700    4.65346400    0.69569100
| 60> H                   2.89881300    4.94745500   -1.02402500
| 61> C                   4.88390100    5.27354700   -0.26308200
| 62> H                   5.39066400    5.18370700   -1.22416500
| 63> H                   4.71998800    6.33146300   -0.06977400
| 64> H                   5.55196700    4.89149500    0.50903300
| 65> N                   3.77772700    3.12336400   -0.52362500
| 66> H                  -6.15277700    0.58245300    0.42228900
| 67> H                   4.72442400    2.82183000   -0.69016700
| 68> C                   4.56425700    0.45830800   -1.05755200
| 69> H                   4.98114600    0.97736900   -1.92428900
| 70> H                   5.19429600    0.71942500   -0.20329500
| 71> H                   4.66463300   -0.61069900   -1.22976400
| 72> C                  -5.13122600   -1.56671500    0.08512600
| 73> H                  -5.88314100   -1.34542100   -0.67674300
| 74> H                  -4.82369000   -2.60130800   -0.04420200
| 75> H                  -5.63224400   -1.48531800    1.05318100
| 76> C                   3.10564600   -2.45360300    2.81939100
| 77> H                   2.33274200   -2.33596200    3.57859000
| 78> H                   3.76589700   -3.26528900    3.11799400
| 79> C                   3.85959600   -1.17946200    2.57115300
| 80> H                   4.37449200   -0.87574100    3.48192200
| 81> H                   4.60854300   -1.31649500    1.79181300
| 82> H                   3.19268600   -0.36954900    2.27594200
| 83> *
| 84>
| 85>
| 86>                          ****END OF INPUT****

CARTESIAN COORDINATES (ANGSTROEM)
---------------------------------
  C     -4.155452    0.766172    0.158332
  C     -3.052323    1.628725    0.099090
  C     -1.801216    1.114108   -0.134879
  C     -1.570706   -0.266978   -0.337564
  C     -2.704562   -1.113958   -0.247458
  C     -3.963348   -0.647513   -0.009895
  C     -0.263492   -0.714101   -0.578076
  C      0.783629    0.221737   -0.606729
  C      0.493999    1.584852   -0.368283
  C      1.465573    2.555454   -0.340738
  H      1.179686    3.579706   -0.150429
  C      2.803736    2.201283   -0.556390
  C      3.142028    0.831433   -0.822351
  C      2.144358   -0.098259   -0.845346
  H     -3.163803    2.693595    0.242550
  H     -2.561286   -2.180717   -0.365455
  H      2.406686   -1.127210   -1.060250
  O     -0.777200    1.998403   -0.154257
  C     -0.000669   -2.144254   -0.847632
  C     -0.516641   -2.707715   -2.012357
  C      0.800033   -2.938806   -0.011734
  C     -0.249082   -4.025323   -2.346202
  H     -1.121684   -2.094376   -2.668484
  C      1.071998   -4.258817   -0.362704
  C      0.545981   -4.804225   -1.520126
  H     -0.661457   -4.440451   -3.256880
  H      1.684645   -4.861087    0.294639
  H      0.754404   -5.835073   -1.774944
  N     -5.390377    1.239751    0.381532
  C     -5.716198    2.637826    0.586469
  H     -5.386757    3.215385   -0.282879
  H     -5.149436    3.018073    1.442300
  C     -7.194539    2.813138    0.810497
  H     -7.529482    2.263393    1.690323
  H     -7.429689    3.864107    0.964031
  H     -7.769470    2.463137   -0.047068
  C      1.318201   -2.389181    1.263012
  O      0.745574   -1.549596    1.928603
  O      2.488432   -2.933764    1.597560
  C      3.571791    4.535075   -0.265319
  H      3.061677    4.653464    0.695691
  H      2.898813    4.947455   -1.024025
  C      4.883901    5.273547   -0.263082
  H      5.390664    5.183707   -1.224165
  H      4.719988    6.331463   -0.069774
  H      5.551967    4.891495    0.509033
  N      3.777727    3.123364   -0.523625
  H     -6.152777    0.582453    0.422289
  H      4.724424    2.821830   -0.690167
  C      4.564257    0.458308   -1.057552
  H      4.981146    0.977369   -1.924289
  H      5.194296    0.719425   -0.203295
  H      4.664633   -0.610699   -1.229764
  C     -5.131226   -1.566715    0.085126
  H     -5.883141   -1.345421   -0.676743
  H     -4.823690   -2.601308   -0.044202
  H     -5.632244   -1.485318    1.053181
  C      3.105646   -2.453603    2.819391
  H      2.332742   -2.335962    3.578590
  H      3.765897   -3.265289    3.117994
  C      3.859596   -1.179462    2.571153
  H      4.374492   -0.875741    3.481922
  H      4.608543   -1.316495    1.791813
  H      3.192686   -0.369549    2.275942

 Total Charge           Charge          ....    1
 Multiplicity           Mult            ....    1
 Number of Electrons    NEL             ....  236
 Basis Dimension        Dim             .... 1209

ORBITAL ENERGIES
----------------

  NO   OCC          E(Eh)            E(eV)
   0   2.0000     -20.153645      -548.4086
   1   2.0000     -20.116039      -547.3852
   2   2.0000     -20.063050      -545.9433
   3   2.0000     -15.161182      -412.5567
   4   2.0000     -15.160294      -412.5326
   5   2.0000     -11.027996      -300.0870
   6   2.0000     -10.975008      -298.6452
   7   2.0000     -10.974347      -298.6272
   8   2.0000     -10.950893      -297.9890
   9   2.0000     -10.948376      -297.9205
  10   2.0000     -10.947410      -297.8942
  11   2.0000     -10.916948      -297.0653
  12   2.0000     -10.912471      -296.9434
  13   2.0000     -10.904714      -296.7324
  14   2.0000     -10.895774      -296.4891
  15   2.0000     -10.895342      -296.4773
  16   2.0000     -10.894402      -296.4517
  17   2.0000     -10.894202      -296.4463
  18   2.0000     -10.890850      -296.3551
  19   2.0000     -10.890572      -296.3475
  20   2.0000     -10.888975      -296.3041
  21   2.0000     -10.888216      -296.2834
  22   2.0000     -10.887832      -296.2730
  23   2.0000     -10.886928      -296.2484
  24   2.0000     -10.885011      -296.1962
  25   2.0000     -10.881145      -296.0910
  26   2.0000     -10.869781      -295.7818
  27   2.0000     -10.869748      -295.7809
  28   2.0000     -10.855489      -295.3929
  29   2.0000     -10.855183      -295.3845
  30   2.0000     -10.847281      -295.1695
  31   2.0000     -10.847180      -295.1668
  32   2.0000     -10.846030      -295.1355
  33   2.0000      -1.407017       -38.2869
  34   2.0000      -1.392901       -37.9028
  35   2.0000      -1.295916       -35.2637
  36   2.0000      -1.211057       -32.9545
  37   2.0000      -1.210279       -32.9334
  38   2.0000      -1.143253       -31.1095
  39   2.0000      -1.115011       -30.3410
  40   2.0000      -1.109551       -30.1924
  41   2.0000      -1.058029       -28.7904
  42   2.0000      -1.033723       -28.1290
  43   2.0000      -1.015849       -27.6426
  44   2.0000      -0.999112       -27.1872
  45   2.0000      -0.996885       -27.1266
  46   2.0000      -0.989660       -26.9300
  47   2.0000      -0.975310       -26.5395
  48   2.0000      -0.966873       -26.3100
  49   2.0000      -0.949587       -25.8396
  50   2.0000      -0.916581       -24.9414
  51   2.0000      -0.902533       -24.5592
  52   2.0000      -0.880018       -23.9465
  53   2.0000      -0.858841       -23.3702
  54   2.0000      -0.844907       -22.9911
  55   2.0000      -0.835938       -22.7470
  56   2.0000      -0.831105       -22.6155
  57   2.0000      -0.820032       -22.3142
  58   2.0000      -0.807277       -21.9671
  59   2.0000      -0.784666       -21.3518
  60   2.0000      -0.777815       -21.1654
  61   2.0000      -0.756963       -20.5980
  62   2.0000      -0.752268       -20.4702
  63   2.0000      -0.741458       -20.1761
  64   2.0000      -0.716360       -19.4932
  65   2.0000      -0.700134       -19.0516
  66   2.0000      -0.691266       -18.8103
  67   2.0000      -0.674830       -18.3631
  68   2.0000      -0.663630       -18.0583
  69   2.0000      -0.661021       -17.9873
  70   2.0000      -0.655763       -17.8442
  71   2.0000      -0.643359       -17.5067
  72   2.0000      -0.640922       -17.4404
  73   2.0000      -0.629208       -17.1216
  74   2.0000      -0.626467       -17.0470
  75   2.0000      -0.625658       -17.0250
  76   2.0000      -0.624593       -16.9960
  77   2.0000      -0.623176       -16.9575
  78   2.0000      -0.621017       -16.8987
  79   2.0000      -0.601712       -16.3734
  80   2.0000      -0.595151       -16.1949
  81   2.0000      -0.590371       -16.0648
  82   2.0000      -0.585721       -15.9383
  83   2.0000      -0.584758       -15.9121
  84   2.0000      -0.579598       -15.7717
  85   2.0000      -0.573694       -15.6110
  86   2.0000      -0.569677       -15.5017
  87   2.0000      -0.559071       -15.2131
  88   2.0000      -0.551453       -15.0058
  89   2.0000      -0.536675       -14.6037
  90   2.0000      -0.533941       -14.5293
  91   2.0000      -0.526077       -14.3153
  92   2.0000      -0.525299       -14.2941
  93   2.0000      -0.524432       -14.2705
  94   2.0000      -0.521986       -14.2040
  95   2.0000      -0.519918       -14.1477
  96   2.0000      -0.517626       -14.0853
  97   2.0000      -0.512457       -13.9447
  98   2.0000      -0.509441       -13.8626
  99   2.0000      -0.505686       -13.7604
 100   2.0000      -0.503516       -13.7014
 101   2.0000      -0.501100       -13.6356
 102   2.0000      -0.499315       -13.5871
 103   2.0000      -0.496246       -13.5035
 104   2.0000      -0.492349       -13.3975
 105   2.0000      -0.488459       -13.2917
 106   2.0000      -0.476982       -12.9793
 107   2.0000      -0.474207       -12.9038
 108   2.0000      -0.462421       -12.5831
 109   2.0000      -0.452722       -12.3192
 110   2.0000      -0.443660       -12.0726
 111   2.0000      -0.433794       -11.8041
 112   2.0000      -0.380026       -10.3410
 113   2.0000      -0.375448       -10.2165
 114   2.0000      -0.370902       -10.0927
 115   2.0000      -0.349661        -9.5148
 116   2.0000      -0.340425        -9.2634
 117   2.0000      -0.289776        -7.8852
 118   0.0000      -0.029296        -0.7972
 119   0.0000       0.028162         0.7663
 120   0.0000       0.056719         1.5434
 121   0.0000       0.068036         1.8514
 122   0.0000       0.086103         2.3430

MULLIKEN ATOMIC CHARGES
-----------------------
   0 C :    0.354439
   1 C :   -0.515689
   2 C :    0.317568
   3 C :    0.073382
   4 C :   -0.307223
   5 C :    0.047597
   6 C :    0.307078
   7 C :    0.111752
   8 C :    0.281435
   9 C :   -0.494138
  10 H :    0.199964
  11 C :    0.348957
  12 C :    0.032001
  13 C :   -0.349931
  14 H :    0.200749
  15 H :    0.221510
  16 H :    0.224480
  17 O :   -0.253471
  18 C :   -0.016718
  19 C :   -0.326441
  20 C :    0.002454
  21 C :   -0.122165
  22 H :    0.204157
  23 C :   -0.183166
  24 C :   -0.189785
  25 H :    0.196504
  26 H :    0.202305
  27 H :    0.194427
  28 N :   -0.312167
  29 C :   -0.130168
  30 H :    0.152081
  31 H :    0.151912
  32 C :   -0.457108
  33 H :    0.153390
  34 H :    0.163753
  35 H :    0.152956
  36 C :    0.431522
  37 O :   -0.520920
  38 O :   -0.324645
  39 C :   -0.128463
  40 H :    0.151285
  41 H :    0.151143
  42 C :   -0.459204
  43 H :    0.153374
  44 H :    0.164012
  45 H :    0.153122
  46 N :   -0.310811
  47 H :    0.307338
  48 H :    0.307206
  49 C :   -0.545803
  50 H :    0.184758
  51 H :    0.179963
  52 H :    0.181606
  53 C :   -0.533563
  54 H :    0.177111
  55 H :    0.178536
  56 H :    0.176238
  57 C :   -0.053703
  58 H :    0.154167
  59 H :    0.163129
  60 C :   -0.448956
  61 H :    0.167116
  62 H :    0.149374
  63 H :    0.158389
Sum of atomic charges:    1.0000000

LOEWDIN ATOMIC CHARGES
----------------------
   0 C :   -0.140272
   1 C :   -0.116595
   2 C :   -0.136614
   3 C :   -0.099462
   4 C :   -0.041750
   5 C :   -0.150304
   6 C :    0.050991
   7 C :   -0.101665
   8 C :   -0.138062
   9 C :   -0.115703
  10 H :    0.170925
  11 C :   -0.142574
  12 C :   -0.151001
  13 C :   -0.045423
  14 H :    0.171002
  15 H :    0.176846
  16 H :    0.179049
  17 O :    0.373077
  18 C :   -0.052827
  19 C :   -0.081624
  20 C :   -0.088969
  21 C :   -0.111229
  22 H :    0.172177
  23 C :   -0.078134
  24 C :   -0.122999
  25 H :    0.164706
  26 H :    0.168781
  27 H :    0.163400
  28 N :    0.150955
  29 C :   -0.297054
  30 H :    0.139699
  31 H :    0.139627
  32 C :   -0.307107
  33 H :    0.126876
  34 H :    0.132207
  35 H :    0.126802
  36 C :   -0.393407
  37 O :    0.035168
  38 O :    0.241262
  39 C :   -0.297363
  40 H :    0.139690
  41 H :    0.139154
  42 C :   -0.307212
  43 H :    0.126827
  44 H :    0.132075
  45 H :    0.126727
  46 N :    0.149858
  47 H :    0.211763
  48 H :    0.211481
  49 C :   -0.256353
  50 H :    0.138093
  51 H :    0.137092
  52 H :    0.140498
  53 C :   -0.254346
  54 H :    0.137597
  55 H :    0.139800
  56 H :    0.137376
  57 C :   -0.276405
  58 H :    0.135970
  59 H :    0.138582
  60 C :   -0.310716
  61 H :    0.135359
  62 H :    0.127782
  63 H :    0.125900

  Mayer bond orders larger than 0.100000
B(  0-C ,  1-C ) :   1.2637 B(  0-C ,  5-C ) :   1.1295 B(  0-C , 28-N ) :   1.3626
B(  1-C ,  2-C ) :   1.4955 B(  1-C , 14-H ) :   0.9473 B(  2-C ,  3-C ) :   1.2796
B(  2-C , 17-O ) :   1.0911 B(  3-C ,  4-C ) :   1.1601 B(  3-C ,  6-C ) :   1.2240
B(  4-C ,  5-C ) :   1.6514 B(  4-C , 15-H ) :   0.9203 B(  5-C , 53-C ) :   0.9008
B(  6-C ,  7-C ) :   1.1597 B(  6-C , 18-C ) :   0.6499 B(  6-C , 19-C ) :  -0.1181
B(  7-C ,  8-C ) :   1.3139 B(  7-C , 13-C ) :   1.1002 B(  8-C ,  9-C ) :   1.5048
B(  8-C , 17-O ) :   1.0894 B(  9-C , 10-H ) :   0.9474 B(  9-C , 11-C ) :   1.2704
B( 11-C , 12-C ) :   1.1322 B( 11-C , 46-N ) :   1.3585 B( 12-C , 13-C ) :   1.6687
B( 12-C , 49-C ) :   0.9047 B( 13-C , 16-H ) :   0.9191 B( 18-C , 19-C ) :   1.4521
B( 18-C , 20-C ) :   1.3170 B( 19-C , 21-C ) :   1.4091 B( 19-C , 22-H ) :   0.9693
B( 20-C , 23-C ) :   1.4127 B( 20-C , 36-C ) :   0.9567 B( 20-C , 38-O ) :  -0.1188
B( 21-C , 24-C ) :   1.3853 B( 21-C , 25-H ) :   0.9704 B( 23-C , 24-C ) :   1.4026
B( 23-C , 26-H ) :   0.9590 B( 24-C , 27-H ) :   0.9732 B( 28-N , 29-C ) :   0.8884
B( 28-N , 47-H ) :   0.8821 B( 29-C , 30-H ) :   0.9630 B( 29-C , 31-H ) :   0.9633
B( 29-C , 32-C ) :   0.9784 B( 32-C , 33-H ) :   0.9741 B( 32-C , 34-H ) :   0.9737
B( 32-C , 35-H ) :   0.9740 B( 36-C , 37-O ) :   1.8400 B( 36-C , 38-O ) :   1.2494
B( 38-O , 57-C ) :   0.8294 B( 39-C , 40-H ) :   0.9634 B( 39-C , 41-H ) :   0.9627
B( 39-C , 42-C ) :   0.9780 B( 39-C , 46-N ) :   0.8886 B( 42-C , 43-H ) :   0.9740
B( 42-C , 44-H ) :   0.9739 B( 42-C , 45-H ) :   0.9740 B( 46-N , 48-H ) :   0.8823
B( 49-C , 50-H ) :   0.9662 B( 49-C , 51-H ) :   0.9781 B( 49-C , 52-H ) :   0.9782
B( 53-C , 54-H ) :   0.9742 B( 53-C , 55-H ) :   0.9759 B( 53-C , 56-H ) :   0.9748
B( 57-C , 58-H ) :   0.9787 B( 57-C , 59-H ) :   0.9601 B( 57-C , 60-C ) :   0.9913
B( 60-C , 61-H ) :   0.9641 B( 60-C , 62-H ) :   0.9647 B( 60-C , 63-H ) :   0.9684

MP2 TOTAL ENERGY:    -1420.155495137 Eh

-----------------------------------------------------------------------------
         ABSORPTION SPECTRUM VIA TRANSITION ELECTRIC DIPOLE MOMENTS
-----------------------------------------------------------------------------
State   Energy    Wavelength  fosc         T2        TX        TY        TZ
        (cm-1)      (nm)                 (au**2)    (au)      (au)      (au)
-----------------------------------------------------------------------------
   1   20681.0    483.5   0.979425636  15.59105  -3.84784  -0.78923   0.40288
   2   27447.6    364.3   0.005143085   0.06169  -0.05947   0.24038   0.01916
   3   33263.0    300.6   0.533153316   5.27674   0.65729  -2.18527  -0.26330
   4   35263.8    283.6   0.007683934   0.07173   0.18319  -0.19488  -0.01411
   5   37570.7    266.2   0.035408438   0.31026   0.24161  -0.37286  -0.33595
   6   37351.2    267.7   0.085135397   0.75038   0.53659  -0.65983   0.16454
   7   39266.0    254.7   0.218473466   1.83171   0.15738  -1.24074  -0.51721
   8   37746.4    264.9   0.092301805   0.80503  -0.46825  -0.76258  -0.06516
   9   43038.8    232.3   0.097849046   0.74847  -0.35268  -0.23507  -0.75420
  10   41365.1    241.7   0.017168013   0.13663  -0.00748  -0.34650   0.12851
  11   41248.6    242.4   0.010318826   0.08236  -0.07522   0.27424  -0.03860
  12   42230.9    236.8   0.003400801   0.02651   0.09523   0.13206   0.00204
  13   43110.9    232.0   0.052855162   0.40362  -0.25183  -0.57697  -0.08553
  14   46873.7    213.3   1.383017663   9.71347  -3.01231  -0.77184   0.20916
  15   45955.8    217.6   0.077198696   0.55303  -0.51090   0.35688   0.40576
  16   49018.3    204.0   0.522044640   3.50610  -0.45920   1.65310   0.74999
  17   49676.6    201.3   0.361662875   2.39678  -0.96633   0.16601  -1.19809
  18   47757.3    209.4   0.073183700   0.50449  -0.29571   0.04414  -0.64428
  19   50634.1    197.5   0.394100084   2.56235   0.33683  -1.56195  -0.09593
  20   47507.6    210.5   0.020188496   0.13990  -0.03633  -0.15896  -0.33662
  21   53288.7    187.7   0.003520619   0.02175  -0.00794  -0.07471   0.12691
  22   50569.8    197.7   0.081867924   0.53296   0.56953   0.34145   0.30334
  23   54934.2    182.0   0.003512539   0.02105   0.08034   0.06170  -0.10386
  24   49900.0    200.4   0.029353230   0.19366  -0.27774  -0.09442  -0.32803
  25   48791.8    205.0   0.001573119   0.01061   0.00715   0.10200  -0.01262
  26   47121.5    212.2   0.051832966   0.36213  -0.58200   0.00788  -0.15277
  27   50193.6    199.2   0.010671541   0.06999   0.05313   0.09601   0.24073
  28   51551.2    194.0   0.068465342   0.43723  -0.09580   0.65371   0.02664
  29   54164.2    184.6   0.002988862   0.01817   0.10405  -0.02543   0.08182
  30   59206.5    168.9   0.007821699   0.04349  -0.06898   0.09691  -0.17129

FINAL SINGLE POINT ENERGY     -1417.192061478175

DIPOLE MOMENT
-------------
                                X             Y             Z
Electronic contribution:     -2.62379     -16.57421      -5.94992
Nuclear contribution   :      2.25953      17.50823       4.93684
                        -----------------------------------------
Total Dipole Moment    :     -0.36425       0.93402      -1.01308
                        -----------------------------------------
Magnitude (a.u.)       :      1.42527
Magnitude (Debye)      :      3.62275

Rotational constants in cm-1:     0.004857     0.003173     0.002222
Rotational constants in MHz :   145.624084    95.129369    66.608773

                             ****ORCA TERMINATED NORMALLY****
TOTAL RUN TIME: 0 days 14 hours 39 minutes 48 seconds 878 msec
