                         Program Version 5.0.2 -  RELEASE  -
|  1> %maxcore 20000
|  2> %pal
|  3>  nprocs= 6
|  4> end
|  5> ! RI-SCS-PBE-QIDH   def2-TZVP def2/J def2-TZVP/C RIJCOSX CPCM TightSCF
|  6> %TDDFT
|  7>    NROOTS   30
|  8>    dcorr 4
|  9>    doscs true
| 10>    TDA      FALSE
| 11> END
| 12>
| 13>  %CPCM
| 14>    SMD          TRUE
| 15>    SMDsolvent   "METHANOL"
| 16>  END
| 17>
| 18>
| 19> * xyz 1 1
| 20> C                  -4.15545200    0.76617200    0.15833200
| 21> C                  -3.05232300    1.62872500    0.09909000
| 22> C                  -1.80121600    1.11410800   -0.13487900
| 23> C                  -1.57070600   -0.26697800   -0.33756400
| 24> C                  -2.70456200   -1.11395800   -0.24745800
| 25> C                  -3.96334800   -0.64751300   -0.00989500
| 26> C                  -0.26349200   -0.71410100   -0.57807600
| 27> C                   0.78362900    0.22173700   -0.60672900
| 28> C                   0.49399900    1.58485200   -0.36828300
| 29> C                   1.46557300    2.55545400   -0.34073800
| 30> H                   1.17968600    3.57970600   -0.15042900
| 31> C                   2.80373600    2.20128300   -0.55639000
| 32> C                   3.14202800    0.83143300   -0.82235100
| 33> C                   2.14435800   -0.09825900   -0.84534600
| 34> H                  -3.16380300    2.69359500    0.24255000
| 35> H                  -2.56128600   -2.18071700   -0.36545500
| 36> H                   2.40668600   -1.12721000   -1.06025000
| 37> O                  -0.77720000    1.99840300   -0.15425700
| 38> C                  -0.00066900   -2.14425400   -0.84763200
| 39> C                  -0.51664100   -2.70771500   -2.01235700
| 40> C                   0.80003300   -2.93880600   -0.01173400
| 41> C                  -0.24908200   -4.02532300   -2.34620200
| 42> H                  -1.12168400   -2.09437600   -2.66848400
| 43> C                   1.07199800   -4.25881700   -0.36270400
| 44> C                   0.54598100   -4.80422500   -1.52012600
| 45> H                  -0.66145700   -4.44045100   -3.25688000
| 46> H                   1.68464500   -4.86108700    0.29463900
| 47> H                   0.75440400   -5.83507300   -1.77494400
| 48> N                  -5.39037700    1.23975100    0.38153200
| 49> C                  -5.71619800    2.63782600    0.58646900
| 50> H                  -5.38675700    3.21538500   -0.28287900
| 51> H                  -5.14943600    3.01807300    1.44230000
| 52> C                  -7.19453900    2.81313800    0.81049700
| 53> H                  -7.52948200    2.26339300    1.69032300
| 54> H                  -7.42968900    3.86410700    0.96403100
| 55> H                  -7.76947000    2.46313700   -0.04706800
| 56> C                   1.31820100   -2.38918100    1.26301200
| 57> O                   0.74557400   -1.54959600    1.92860300
| 58> O                   2.48843200   -2.93376400    1.59756000
| 59> C                   3.57179100    4.53507500   -0.26531900
| 60> H                   3.06167700    4.65346400    0.69569100
| 61> H                   2.89881300    4.94745500   -1.02402500
| 62> C                   4.88390100    5.27354700   -0.26308200
| 63> H                   5.39066400    5.18370700   -1.22416500
| 64> H                   4.71998800    6.33146300   -0.06977400
| 65> H                   5.55196700    4.89149500    0.50903300
| 66> N                   3.77772700    3.12336400   -0.52362500
| 67> H                  -6.15277700    0.58245300    0.42228900
| 68> H                   4.72442400    2.82183000   -0.69016700
| 69> C                   4.56425700    0.45830800   -1.05755200
| 70> H                   4.98114600    0.97736900   -1.92428900
| 71> H                   5.19429600    0.71942500   -0.20329500
| 72> H                   4.66463300   -0.61069900   -1.22976400
| 73> C                  -5.13122600   -1.56671500    0.08512600
| 74> H                  -5.88314100   -1.34542100   -0.67674300
| 75> H                  -4.82369000   -2.60130800   -0.04420200
| 76> H                  -5.63224400   -1.48531800    1.05318100
| 77> C                   3.10564600   -2.45360300    2.81939100
| 78> H                   2.33274200   -2.33596200    3.57859000
| 79> H                   3.76589700   -3.26528900    3.11799400
| 80> C                   3.85959600   -1.17946200    2.57115300
| 81> H                   4.37449200   -0.87574100    3.48192200
| 82> H                   4.60854300   -1.31649500    1.79181300
| 83> H                   3.19268600   -0.36954900    2.27594200
| 84> *
| 85>
| 86>
| 87>                          ****END OF INPUT****

CARTESIAN COORDINATES (ANGSTROEM)
---------------------------------
  C     -4.155452    0.766172    0.158332
  C     -3.052323    1.628725    0.099090
  C     -1.801216    1.114108   -0.134879
  C     -1.570706   -0.266978   -0.337564
  C     -2.704562   -1.113958   -0.247458
  C     -3.963348   -0.647513   -0.009895
  C     -0.263492   -0.714101   -0.578076
  C      0.783629    0.221737   -0.606729
  C      0.493999    1.584852   -0.368283
  C      1.465573    2.555454   -0.340738
  H      1.179686    3.579706   -0.150429
  C      2.803736    2.201283   -0.556390
  C      3.142028    0.831433   -0.822351
  C      2.144358   -0.098259   -0.845346
  H     -3.163803    2.693595    0.242550
  H     -2.561286   -2.180717   -0.365455
  H      2.406686   -1.127210   -1.060250
  O     -0.777200    1.998403   -0.154257
  C     -0.000669   -2.144254   -0.847632
  C     -0.516641   -2.707715   -2.012357
  C      0.800033   -2.938806   -0.011734
  C     -0.249082   -4.025323   -2.346202
  H     -1.121684   -2.094376   -2.668484
  C      1.071998   -4.258817   -0.362704
  C      0.545981   -4.804225   -1.520126
  H     -0.661457   -4.440451   -3.256880
  H      1.684645   -4.861087    0.294639
  H      0.754404   -5.835073   -1.774944
  N     -5.390377    1.239751    0.381532
  C     -5.716198    2.637826    0.586469
  H     -5.386757    3.215385   -0.282879
  H     -5.149436    3.018073    1.442300
  C     -7.194539    2.813138    0.810497
  H     -7.529482    2.263393    1.690323
  H     -7.429689    3.864107    0.964031
  H     -7.769470    2.463137   -0.047068
  C      1.318201   -2.389181    1.263012
  O      0.745574   -1.549596    1.928603
  O      2.488432   -2.933764    1.597560
  C      3.571791    4.535075   -0.265319
  H      3.061677    4.653464    0.695691
  H      2.898813    4.947455   -1.024025
  C      4.883901    5.273547   -0.263082
  H      5.390664    5.183707   -1.224165
  H      4.719988    6.331463   -0.069774
  H      5.551967    4.891495    0.509033
  N      3.777727    3.123364   -0.523625
  H     -6.152777    0.582453    0.422289
  H      4.724424    2.821830   -0.690167
  C      4.564257    0.458308   -1.057552
  H      4.981146    0.977369   -1.924289
  H      5.194296    0.719425   -0.203295
  H      4.664633   -0.610699   -1.229764
  C     -5.131226   -1.566715    0.085126
  H     -5.883141   -1.345421   -0.676743
  H     -4.823690   -2.601308   -0.044202
  H     -5.632244   -1.485318    1.053181
  C      3.105646   -2.453603    2.819391
  H      2.332742   -2.335962    3.578590
  H      3.765897   -3.265289    3.117994
  C      3.859596   -1.179462    2.571153
  H      4.374492   -0.875741    3.481922
  H      4.608543   -1.316495    1.791813
  H      3.192686   -0.369549    2.275942

 Total Charge           Charge          ....    1
 Multiplicity           Mult            ....    1
 Number of Electrons    NEL             ....  236
 Basis Dimension        Dim             .... 1209

ORBITAL ENERGIES
----------------

  NO   OCC          E(Eh)            E(eV)
   0   2.0000     -20.098671      -546.9126
   1   2.0000     -20.061243      -545.8942
   2   2.0000     -20.007413      -544.4294
   3   2.0000     -15.112152      -411.2226
   4   2.0000     -15.111279      -411.1988
   5   2.0000     -10.980108      -298.7839
   6   2.0000     -10.927159      -297.3431
   7   2.0000     -10.926522      -297.3258
   8   2.0000     -10.902064      -296.6603
   9   2.0000     -10.901046      -296.6325
  10   2.0000     -10.900072      -296.6060
  11   2.0000     -10.871492      -295.8283
  12   2.0000     -10.865661      -295.6697
  13   2.0000     -10.857996      -295.4611
  14   2.0000     -10.849882      -295.2403
  15   2.0000     -10.849471      -295.2291
  16   2.0000     -10.849379      -295.2266
  17   2.0000     -10.849178      -295.2211
  18   2.0000     -10.843841      -295.0759
  19   2.0000     -10.843707      -295.0723
  20   2.0000     -10.842625      -295.0428
  21   2.0000     -10.841982      -295.0253
  22   2.0000     -10.841805      -295.0205
  23   2.0000     -10.840601      -294.9878
  24   2.0000     -10.838841      -294.9398
  25   2.0000     -10.835084      -294.8376
  26   2.0000     -10.824025      -294.5367
  27   2.0000     -10.823939      -294.5343
  28   2.0000     -10.810432      -294.1668
  29   2.0000     -10.810300      -294.1632
  30   2.0000     -10.802578      -293.9531
  31   2.0000     -10.802480      -293.9504
  32   2.0000     -10.800846      -293.9060
  33   2.0000      -1.366258       -37.1778
  34   2.0000      -1.352236       -36.7962
  35   2.0000      -1.255739       -34.1704
  36   2.0000      -1.171810       -31.8866
  37   2.0000      -1.171040       -31.8656
  38   2.0000      -1.103064       -30.0159
  39   2.0000      -1.075350       -29.2617
  40   2.0000      -1.069909       -29.1137
  41   2.0000      -1.018709       -27.7205
  42   2.0000      -0.994681       -27.0666
  43   2.0000      -0.976905       -26.5829
  44   2.0000      -0.960322       -26.1317
  45   2.0000      -0.958418       -26.0799
  46   2.0000      -0.951192       -25.8832
  47   2.0000      -0.937094       -25.4996
  48   2.0000      -0.928712       -25.2715
  49   2.0000      -0.911645       -24.8071
  50   2.0000      -0.878613       -23.9083
  51   2.0000      -0.864842       -23.5335
  52   2.0000      -0.842177       -22.9168
  53   2.0000      -0.821464       -22.3532
  54   2.0000      -0.807285       -21.9673
  55   2.0000      -0.798850       -21.7378
  56   2.0000      -0.793766       -21.5995
  57   2.0000      -0.782697       -21.2983
  58   2.0000      -0.770391       -20.9634
  59   2.0000      -0.747654       -20.3447
  60   2.0000      -0.741211       -20.1694
  61   2.0000      -0.720187       -19.5973
  62   2.0000      -0.715587       -19.4721
  63   2.0000      -0.704652       -19.1746
  64   2.0000      -0.679116       -18.4797
  65   2.0000      -0.663411       -18.0523
  66   2.0000      -0.654794       -17.8179
  67   2.0000      -0.637917       -17.3586
  68   2.0000      -0.627828       -17.0841
  69   2.0000      -0.624816       -17.0021
  70   2.0000      -0.618116       -16.8198
  71   2.0000      -0.606731       -16.5100
  72   2.0000      -0.605087       -16.4652
  73   2.0000      -0.593923       -16.1615
  74   2.0000      -0.591208       -16.0876
  75   2.0000      -0.589983       -16.0543
  76   2.0000      -0.588797       -16.0220
  77   2.0000      -0.587382       -15.9835
  78   2.0000      -0.585414       -15.9299
  79   2.0000      -0.566608       -15.4182
  80   2.0000      -0.559909       -15.2359
  81   2.0000      -0.555445       -15.1144
  82   2.0000      -0.551323       -15.0023
  83   2.0000      -0.550024       -14.9669
  84   2.0000      -0.545156       -14.8344
  85   2.0000      -0.538488       -14.6530
  86   2.0000      -0.534769       -14.5518
  87   2.0000      -0.524027       -14.2595
  88   2.0000      -0.517286       -14.0761
  89   2.0000      -0.502051       -13.6615
  90   2.0000      -0.499488       -13.5917
  91   2.0000      -0.492020       -13.3885
  92   2.0000      -0.491888       -13.3850
  93   2.0000      -0.490518       -13.3477
  94   2.0000      -0.487607       -13.2685
  95   2.0000      -0.485932       -13.2229
  96   2.0000      -0.483857       -13.1664
  97   2.0000      -0.479074       -13.0363
  98   2.0000      -0.475583       -12.9413
  99   2.0000      -0.472263       -12.8509
 100   2.0000      -0.470159       -12.7937
 101   2.0000      -0.467827       -12.7302
 102   2.0000      -0.465996       -12.6804
 103   2.0000      -0.461550       -12.5594
 104   2.0000      -0.458657       -12.4807
 105   2.0000      -0.455382       -12.3916
 106   2.0000      -0.443935       -12.0801
 107   2.0000      -0.440944       -11.9987
 108   2.0000      -0.428907       -11.6711
 109   2.0000      -0.418818       -11.3966
 110   2.0000      -0.409236       -11.1359
 111   2.0000      -0.400982       -10.9113
 112   2.0000      -0.348023        -9.4702
 113   2.0000      -0.343965        -9.3598
 114   2.0000      -0.339680        -9.2432
 115   2.0000      -0.318739        -8.6733
 116   2.0000      -0.309466        -8.4210
 117   2.0000      -0.261664        -7.1202
 118   0.0000      -0.046492        -1.2651
 119   0.0000       0.008907         0.2424
 120   0.0000       0.037747         1.0272
 121   0.0000       0.048618         1.3230
 122   0.0000       0.066119         1.7992

MULLIKEN ATOMIC CHARGES
-----------------------
   0 C :    0.344751
   1 C :   -0.548013
   2 C :    0.340016
   3 C :    0.111219
   4 C :   -0.337050
   5 C :    0.059226
   6 C :    0.369797
   7 C :    0.128283
   8 C :    0.294034
   9 C :   -0.526955
  10 H :    0.176089
  11 C :    0.334484
  12 C :    0.048488
  13 C :   -0.356972
  14 H :    0.176957
  15 H :    0.197823
  16 H :    0.195095
  17 O :   -0.243380
  18 C :    0.042960
  19 C :   -0.334498
  20 C :    0.020640
  21 C :   -0.109524
  22 H :    0.185411
  23 C :   -0.191565
  24 C :   -0.172395
  25 H :    0.181543
  26 H :    0.188744
  27 H :    0.179765
  28 N :   -0.281413
  29 C :   -0.105999
  30 H :    0.137911
  31 H :    0.137708
  32 C :   -0.418529
  33 H :    0.141763
  34 H :    0.153112
  35 H :    0.141293
  36 C :    0.418840
  37 O :   -0.531102
  38 O :   -0.322847
  39 C :   -0.104322
  40 H :    0.137265
  41 H :    0.136784
  42 C :   -0.420655
  43 H :    0.141748
  44 H :    0.153373
  45 H :    0.141458
  46 N :   -0.280171
  47 H :    0.297355
  48 H :    0.297210
  49 C :   -0.507435
  50 H :    0.169722
  51 H :    0.164759
  52 H :    0.169470
  53 C :   -0.503532
  54 H :    0.163568
  55 H :    0.168984
  56 H :    0.162894
  57 C :   -0.025969
  58 H :    0.138247
  59 H :    0.150400
  60 C :   -0.414562
  61 H :    0.154247
  62 H :    0.135255
  63 H :    0.148194
Sum of atomic charges:    1.0000000

LOEWDIN ATOMIC CHARGES
----------------------
   0 C :   -0.140833
   1 C :   -0.113095
   2 C :   -0.137158
   3 C :   -0.096718
   4 C :   -0.041296
   5 C :   -0.147815
   6 C :    0.048668
   7 C :   -0.098779
   8 C :   -0.138470
   9 C :   -0.112347
  10 H :    0.168454
  11 C :   -0.143024
  12 C :   -0.148217
  13 C :   -0.044197
  14 H :    0.168552
  15 H :    0.174412
  16 H :    0.176576
  17 O :    0.371939
  18 C :   -0.051018
  19 C :   -0.079656
  20 C :   -0.087383
  21 C :   -0.109997
  22 H :    0.169297
  23 C :   -0.077001
  24 C :   -0.121478
  25 H :    0.161828
  26 H :    0.166126
  27 H :    0.160565
  28 N :    0.153774
  29 C :   -0.291999
  30 H :    0.137635
  31 H :    0.137563
  32 C :   -0.301450
  33 H :    0.124627
  34 H :    0.129776
  35 H :    0.124552
  36 C :   -0.390958
  37 O :    0.033833
  38 O :    0.240781
  39 C :   -0.292307
  40 H :    0.137651
  41 H :    0.137064
  42 C :   -0.301557
  43 H :    0.124577
  44 H :    0.129644
  45 H :    0.124476
  46 N :    0.152714
  47 H :    0.210628
  48 H :    0.210347
  49 C :   -0.251109
  50 H :    0.135607
  51 H :    0.134892
  52 H :    0.137902
  53 C :   -0.249579
  54 H :    0.135391
  55 H :    0.137357
  56 H :    0.135186
  57 C :   -0.272164
  58 H :    0.133797
  59 H :    0.136000
  60 C :   -0.305086
  61 H :    0.132493
  62 H :    0.125623
  63 H :    0.124383

  Mayer bond orders larger than 0.100000
B(  0-C ,  1-C ) :   1.2448 B(  0-C ,  5-C ) :   1.1280 B(  0-C , 28-N ) :   1.3778
B(  1-C ,  2-C ) :   1.4443 B(  1-C , 14-H ) :   0.9909 B(  2-C ,  3-C ) :   1.2861
B(  2-C , 17-O ) :   1.0978 B(  3-C ,  4-C ) :   1.1292 B(  3-C ,  6-C ) :   1.2002
B(  4-C ,  5-C ) :   1.6253 B(  4-C , 15-H ) :   0.9550 B(  5-C , 53-C ) :   0.9359
B(  6-C ,  7-C ) :   1.1390 B(  6-C , 18-C ) :   0.6210 B(  6-C , 19-C ) :  -0.1241
B(  6-C , 20-C ) :  -0.1015 B(  7-C ,  8-C ) :   1.3251 B(  7-C , 13-C ) :   1.0918
B(  7-C , 18-C ) :  -0.1002 B(  8-C ,  9-C ) :   1.4558 B(  8-C , 17-O ) :   1.0962
B(  9-C , 10-H ) :   0.9915 B(  9-C , 11-C ) :   1.2522 B( 11-C , 12-C ) :   1.1320
B( 11-C , 46-N ) :   1.3744 B( 12-C , 13-C ) :   1.6478 B( 12-C , 49-C ) :   0.9404
B( 13-C , 16-H ) :   0.9475 B( 18-C , 19-C ) :   1.4503 B( 18-C , 20-C ) :   1.3132
B( 19-C , 21-C ) :   1.4124 B( 19-C , 22-H ) :   0.9804 B( 20-C , 23-C ) :   1.4125
B( 20-C , 36-C ) :   0.9630 B( 20-C , 38-O ) :  -0.1241 B( 21-C , 24-C ) :   1.3870
B( 21-C , 25-H ) :   0.9740 B( 23-C , 24-C ) :   1.4028 B( 23-C , 26-H ) :   0.9677
B( 24-C , 27-H ) :   0.9764 B( 28-N , 29-C ) :   0.8991 B( 28-N , 47-H ) :   0.8832
B( 29-C , 30-H ) :   0.9631 B( 29-C , 31-H ) :   0.9633 B( 29-C , 32-C ) :   0.9968
B( 32-C , 33-H ) :   0.9741 B( 32-C , 34-H ) :   0.9742 B( 32-C , 35-H ) :   0.9740
B( 36-C , 37-O ) :   1.8397 B( 36-C , 38-O ) :   1.2549 B( 38-O , 57-C ) :   0.8384
B( 39-C , 40-H ) :   0.9634 B( 39-C , 41-H ) :   0.9628 B( 39-C , 42-C ) :   0.9965
B( 39-C , 46-N ) :   0.8991 B( 42-C , 43-H ) :   0.9740 B( 42-C , 44-H ) :   0.9744
B( 42-C , 45-H ) :   0.9740 B( 46-N , 48-H ) :   0.8833 B( 49-C , 50-H ) :   0.9673
B( 49-C , 51-H ) :   0.9760 B( 49-C , 52-H ) :   0.9783 B( 53-C , 54-H ) :   0.9735
B( 53-C , 55-H ) :   0.9772 B( 53-C , 56-H ) :   0.9740 B( 57-C , 58-H ) :   0.9760
B( 57-C , 59-H ) :   0.9617 B( 57-C , 60-C ) :   1.0147 B( 60-C , 61-H ) :   0.9635
B( 60-C , 62-H ) :   0.9664 B( 60-C , 63-H ) :   0.9719

MP2 TOTAL ENERGY:    -1419.384511519 Eh

-----------------------------------------------------------------------------
         ABSORPTION SPECTRUM VIA TRANSITION ELECTRIC DIPOLE MOMENTS
-----------------------------------------------------------------------------
State   Energy    Wavelength  fosc         T2        TX        TY        TZ
        (cm-1)      (nm)                 (au**2)    (au)      (au)      (au)
-----------------------------------------------------------------------------
   1   19688.0    507.9   0.929319632  15.53957   3.84054   0.79252  -0.40219
   2   26542.1    376.8   0.003822231   0.04741   0.05089  -0.21108  -0.01627
   3   31764.8    314.8   0.467551440   4.84573  -0.63753   2.09070   0.26126
   4   33851.1    295.4   0.002116217   0.02058   0.08079  -0.11804   0.01100
   5   34650.0    288.6   0.083240251   0.79087   0.61635  -0.60643  -0.20791
   6   36032.1    277.5   0.019871759   0.18156   0.27926  -0.20921   0.24456
   7   36740.9    272.2   0.048550076   0.43503  -0.06181   0.52488   0.39459
   8   37344.6    267.8   0.251553944   2.21758  -0.05340  -1.47241  -0.21620
   9   41365.2    241.7   0.077729999   0.61863  -0.35726  -0.08328  -0.69574
  10   39791.0    251.3   0.003880030   0.03210   0.16522   0.04634  -0.05153
  11   42104.7    237.5   0.053944934   0.42179   0.13296   0.51165   0.37726
  12   40367.6    247.7   0.000758358   0.00618  -0.04214  -0.00768  -0.06596
  13   42901.9    233.1   0.046663936   0.35808  -0.35325  -0.46776  -0.12038
  14   44947.1    222.5   1.225104155   8.97320  -2.87172  -0.80873   0.26904
  15   43119.5    231.9   0.032352393   0.24701  -0.21135  -0.38109  -0.23898
  16   44956.4    222.4   0.305303902   2.23572  -1.22209   0.83554   0.20997
  17   47343.5    211.2   0.056674448   0.39410  -0.20491   0.55635   0.20637
  18   50488.6    198.1   0.419575919   2.73585  -0.76013  -0.20702  -1.45437
  19   49544.5    201.8   0.551290067   3.66320  -0.34835   1.85988   0.28755
  20   47579.0    210.2   0.044060396   0.30487  -0.03750   0.39664   0.38228
  21   49587.2    201.7   0.085051450   0.56466   0.25497   0.65947   0.25445
  22   52605.1    190.1   0.020942222   0.13106  -0.21030  -0.28367  -0.07979
  23   48626.4    205.6   0.027016431   0.18291  -0.07888  -0.33201  -0.25779
  24   47075.4    212.4   0.132638096   0.92758   0.83236  -0.21174   0.43580
  25   51795.5    193.1   0.005039891   0.03203  -0.13111  -0.11129  -0.04957
  26   48091.1    207.9   0.008845465   0.06055  -0.06360   0.23670  -0.02191
  27   49797.4    200.8   0.025674347   0.16973   0.03996   0.30617  -0.27275
  28   52041.1    192.2   0.044924770   0.28419   0.10418   0.49940   0.15472
  29   51183.2    195.4   0.015873416   0.10210   0.29576   0.03099  -0.11690
  30   51923.6    192.6   0.035921754   0.22776  -0.30275   0.21248  -0.30157

FINAL SINGLE POINT ENERGY     -1417.233931178131

DIPOLE MOMENT
-------------
                                X             Y             Z
Electronic contribution:     -2.63313     -16.51832      -5.94266
Nuclear contribution   :      2.25953      17.50823       4.93684
                        -----------------------------------------
Total Dipole Moment    :     -0.37359       0.98991      -1.00581
                        -----------------------------------------
Magnitude (a.u.)       :      1.45985
Magnitude (Debye)      :      3.71064

Rotational constants in cm-1:     0.004857     0.003173     0.002222
Rotational constants in MHz :   145.624084    95.129369    66.608773

                             ****ORCA TERMINATED NORMALLY****
TOTAL RUN TIME: 1 days 7 hours 30 minutes 13 seconds 928 msec
