                         Program Version 5.0.2 -  RELEASE  -
|  1> %maxcore 20000
|  2> %pal
|  3>  nprocs= 4
|  4> end
|  5> ! RI-B2GP-PLYP   def2-TZVP def2/J def2-TZVP/C RIJCOSX CPCM TightSCF
|  6> %TDDFT
|  7>    NROOTS   30
|  8>    dcorr 4
|  9>    TDA      FALSE
| 10> END
| 11>
| 12>  %CPCM
| 13>    SMD          TRUE
| 14>    SMDsolvent   "METHANOL"
| 15>  END
| 16>
| 17>
| 18> * xyz 1 1
| 19> C                  -4.15545200    0.76617200    0.15833200
| 20> C                  -3.05232300    1.62872500    0.09909000
| 21> C                  -1.80121600    1.11410800   -0.13487900
| 22> C                  -1.57070600   -0.26697800   -0.33756400
| 23> C                  -2.70456200   -1.11395800   -0.24745800
| 24> C                  -3.96334800   -0.64751300   -0.00989500
| 25> C                  -0.26349200   -0.71410100   -0.57807600
| 26> C                   0.78362900    0.22173700   -0.60672900
| 27> C                   0.49399900    1.58485200   -0.36828300
| 28> C                   1.46557300    2.55545400   -0.34073800
| 29> H                   1.17968600    3.57970600   -0.15042900
| 30> C                   2.80373600    2.20128300   -0.55639000
| 31> C                   3.14202800    0.83143300   -0.82235100
| 32> C                   2.14435800   -0.09825900   -0.84534600
| 33> H                  -3.16380300    2.69359500    0.24255000
| 34> H                  -2.56128600   -2.18071700   -0.36545500
| 35> H                   2.40668600   -1.12721000   -1.06025000
| 36> O                  -0.77720000    1.99840300   -0.15425700
| 37> C                  -0.00066900   -2.14425400   -0.84763200
| 38> C                  -0.51664100   -2.70771500   -2.01235700
| 39> C                   0.80003300   -2.93880600   -0.01173400
| 40> C                  -0.24908200   -4.02532300   -2.34620200
| 41> H                  -1.12168400   -2.09437600   -2.66848400
| 42> C                   1.07199800   -4.25881700   -0.36270400
| 43> C                   0.54598100   -4.80422500   -1.52012600
| 44> H                  -0.66145700   -4.44045100   -3.25688000
| 45> H                   1.68464500   -4.86108700    0.29463900
| 46> H                   0.75440400   -5.83507300   -1.77494400
| 47> N                  -5.39037700    1.23975100    0.38153200
| 48> C                  -5.71619800    2.63782600    0.58646900
| 49> H                  -5.38675700    3.21538500   -0.28287900
| 50> H                  -5.14943600    3.01807300    1.44230000
| 51> C                  -7.19453900    2.81313800    0.81049700
| 52> H                  -7.52948200    2.26339300    1.69032300
| 53> H                  -7.42968900    3.86410700    0.96403100
| 54> H                  -7.76947000    2.46313700   -0.04706800
| 55> C                   1.31820100   -2.38918100    1.26301200
| 56> O                   0.74557400   -1.54959600    1.92860300
| 57> O                   2.48843200   -2.93376400    1.59756000
| 58> C                   3.57179100    4.53507500   -0.26531900
| 59> H                   3.06167700    4.65346400    0.69569100
| 60> H                   2.89881300    4.94745500   -1.02402500
| 61> C                   4.88390100    5.27354700   -0.26308200
| 62> H                   5.39066400    5.18370700   -1.22416500
| 63> H                   4.71998800    6.33146300   -0.06977400
| 64> H                   5.55196700    4.89149500    0.50903300
| 65> N                   3.77772700    3.12336400   -0.52362500
| 66> H                  -6.15277700    0.58245300    0.42228900
| 67> H                   4.72442400    2.82183000   -0.69016700
| 68> C                   4.56425700    0.45830800   -1.05755200
| 69> H                   4.98114600    0.97736900   -1.92428900
| 70> H                   5.19429600    0.71942500   -0.20329500
| 71> H                   4.66463300   -0.61069900   -1.22976400
| 72> C                  -5.13122600   -1.56671500    0.08512600
| 73> H                  -5.88314100   -1.34542100   -0.67674300
| 74> H                  -4.82369000   -2.60130800   -0.04420200
| 75> H                  -5.63224400   -1.48531800    1.05318100
| 76> C                   3.10564600   -2.45360300    2.81939100
| 77> H                   2.33274200   -2.33596200    3.57859000
| 78> H                   3.76589700   -3.26528900    3.11799400
| 79> C                   3.85959600   -1.17946200    2.57115300
| 80> H                   4.37449200   -0.87574100    3.48192200
| 81> H                   4.60854300   -1.31649500    1.79181300
| 82> H                   3.19268600   -0.36954900    2.27594200
| 83> *
| 84>
| 85>
| 86>                          ****END OF INPUT****

CARTESIAN COORDINATES (ANGSTROEM)
---------------------------------
  C     -4.155452    0.766172    0.158332
  C     -3.052323    1.628725    0.099090
  C     -1.801216    1.114108   -0.134879
  C     -1.570706   -0.266978   -0.337564
  C     -2.704562   -1.113958   -0.247458
  C     -3.963348   -0.647513   -0.009895
  C     -0.263492   -0.714101   -0.578076
  C      0.783629    0.221737   -0.606729
  C      0.493999    1.584852   -0.368283
  C      1.465573    2.555454   -0.340738
  H      1.179686    3.579706   -0.150429
  C      2.803736    2.201283   -0.556390
  C      3.142028    0.831433   -0.822351
  C      2.144358   -0.098259   -0.845346
  H     -3.163803    2.693595    0.242550
  H     -2.561286   -2.180717   -0.365455
  H      2.406686   -1.127210   -1.060250
  O     -0.777200    1.998403   -0.154257
  C     -0.000669   -2.144254   -0.847632
  C     -0.516641   -2.707715   -2.012357
  C      0.800033   -2.938806   -0.011734
  C     -0.249082   -4.025323   -2.346202
  H     -1.121684   -2.094376   -2.668484
  C      1.071998   -4.258817   -0.362704
  C      0.545981   -4.804225   -1.520126
  H     -0.661457   -4.440451   -3.256880
  H      1.684645   -4.861087    0.294639
  H      0.754404   -5.835073   -1.774944
  N     -5.390377    1.239751    0.381532
  C     -5.716198    2.637826    0.586469
  H     -5.386757    3.215385   -0.282879
  H     -5.149436    3.018073    1.442300
  C     -7.194539    2.813138    0.810497
  H     -7.529482    2.263393    1.690323
  H     -7.429689    3.864107    0.964031
  H     -7.769470    2.463137   -0.047068
  C      1.318201   -2.389181    1.263012
  O      0.745574   -1.549596    1.928603
  O      2.488432   -2.933764    1.597560
  C      3.571791    4.535075   -0.265319
  H      3.061677    4.653464    0.695691
  H      2.898813    4.947455   -1.024025
  C      4.883901    5.273547   -0.263082
  H      5.390664    5.183707   -1.224165
  H      4.719988    6.331463   -0.069774
  H      5.551967    4.891495    0.509033
  N      3.777727    3.123364   -0.523625
  H     -6.152777    0.582453    0.422289
  H      4.724424    2.821830   -0.690167
  C      4.564257    0.458308   -1.057552
  H      4.981146    0.977369   -1.924289
  H      5.194296    0.719425   -0.203295
  H      4.664633   -0.610699   -1.229764
  C     -5.131226   -1.566715    0.085126
  H     -5.883141   -1.345421   -0.676743
  H     -4.823690   -2.601308   -0.044202
  H     -5.632244   -1.485318    1.053181
  C      3.105646   -2.453603    2.819391
  H      2.332742   -2.335962    3.578590
  H      3.765897   -3.265289    3.117994
  C      3.859596   -1.179462    2.571153
  H      4.374492   -0.875741    3.481922
  H      4.608543   -1.316495    1.791813
  H      3.192686   -0.369549    2.275942

 Total Charge           Charge          ....    1
 Multiplicity           Mult            ....    1
 Number of Electrons    NEL             ....  236
 Basis Dimension        Dim             .... 1209

ORBITAL ENERGIES
----------------

  NO   OCC          E(Eh)            E(eV)
   0   2.0000     -20.031356      -545.0809
   1   2.0000     -19.995148      -544.0956
   2   2.0000     -19.942753      -542.6699
   3   2.0000     -15.054512      -409.6541
   4   2.0000     -15.053659      -409.6309
   5   2.0000     -10.936294      -297.5917
   6   2.0000     -10.880668      -296.0780
   7   2.0000     -10.880020      -296.0604
   8   2.0000     -10.854608      -295.3689
   9   2.0000     -10.854059      -295.3540
  10   2.0000     -10.853631      -295.3423
  11   2.0000     -10.828237      -294.6513
  12   2.0000     -10.818567      -294.3882
  13   2.0000     -10.811515      -294.1963
  14   2.0000     -10.805789      -294.0405
  15   2.0000     -10.805596      -294.0352
  16   2.0000     -10.803591      -293.9806
  17   2.0000     -10.803124      -293.9679
  18   2.0000     -10.797579      -293.8171
  19   2.0000     -10.797565      -293.8167
  20   2.0000     -10.797038      -293.8023
  21   2.0000     -10.795448      -293.7591
  22   2.0000     -10.795380      -293.7572
  23   2.0000     -10.794888      -293.7438
  24   2.0000     -10.793452      -293.7048
  25   2.0000     -10.789788      -293.6051
  26   2.0000     -10.778823      -293.3067
  27   2.0000     -10.778711      -293.3036
  28   2.0000     -10.767168      -292.9895
  29   2.0000     -10.767108      -292.9879
  30   2.0000     -10.759930      -292.7926
  31   2.0000     -10.759841      -292.7901
  32   2.0000     -10.758295      -292.7481
  33   2.0000      -1.337432       -36.3934
  34   2.0000      -1.324477       -36.0408
  35   2.0000      -1.229418       -33.4542
  36   2.0000      -1.145559       -31.1722
  37   2.0000      -1.144807       -31.1518
  38   2.0000      -1.077128       -29.3102
  39   2.0000      -1.049952       -28.5706
  40   2.0000      -1.044552       -28.4237
  41   2.0000      -0.994344       -27.0575
  42   2.0000      -0.970844       -26.4180
  43   2.0000      -0.953773       -25.9535
  44   2.0000      -0.937143       -25.5010
  45   2.0000      -0.935464       -25.4553
  46   2.0000      -0.928293       -25.2601
  47   2.0000      -0.914886       -24.8953
  48   2.0000      -0.906460       -24.6660
  49   2.0000      -0.889679       -24.2094
  50   2.0000      -0.857209       -23.3258
  51   2.0000      -0.843609       -22.9558
  52   2.0000      -0.821394       -22.3513
  53   2.0000      -0.801176       -21.8011
  54   2.0000      -0.787126       -21.4188
  55   2.0000      -0.779165       -21.2021
  56   2.0000      -0.773860       -21.0578
  57   2.0000      -0.763173       -20.7670
  58   2.0000      -0.751307       -20.4441
  59   2.0000      -0.728589       -19.8259
  60   2.0000      -0.722504       -19.6603
  61   2.0000      -0.701672       -19.0935
  62   2.0000      -0.697197       -18.9717
  63   2.0000      -0.686072       -18.6690
  64   2.0000      -0.661038       -17.9878
  65   2.0000      -0.645289       -17.5592
  66   2.0000      -0.637584       -17.3495
  67   2.0000      -0.620317       -16.8797
  68   2.0000      -0.611330       -16.6351
  69   2.0000      -0.607898       -16.5417
  70   2.0000      -0.599689       -16.3184
  71   2.0000      -0.590161       -16.0591
  72   2.0000      -0.588389       -16.0109
  73   2.0000      -0.577966       -15.7273
  74   2.0000      -0.575282       -15.6542
  75   2.0000      -0.574058       -15.6209
  76   2.0000      -0.572832       -15.5876
  77   2.0000      -0.571356       -15.5474
  78   2.0000      -0.569357       -15.4930
  79   2.0000      -0.551718       -15.0130
  80   2.0000      -0.544989       -14.8299
  81   2.0000      -0.540739       -14.7143
  82   2.0000      -0.536659       -14.6032
  83   2.0000      -0.535455       -14.5705
  84   2.0000      -0.530210       -14.4277
  85   2.0000      -0.523168       -14.2361
  86   2.0000      -0.519719       -14.1423
  87   2.0000      -0.509135       -13.8543
  88   2.0000      -0.503366       -13.6973
  89   2.0000      -0.487485       -13.2651
  90   2.0000      -0.484975       -13.1969
  91   2.0000      -0.478613       -13.0237
  92   2.0000      -0.478316       -13.0156
  93   2.0000      -0.476078       -12.9547
  94   2.0000      -0.473587       -12.8870
  95   2.0000      -0.471621       -12.8335
  96   2.0000      -0.469577       -12.7778
  97   2.0000      -0.466063       -12.6822
  98   2.0000      -0.462275       -12.5791
  99   2.0000      -0.459149       -12.4941
 100   2.0000      -0.457302       -12.4438
 101   2.0000      -0.455186       -12.3863
 102   2.0000      -0.453371       -12.3368
 103   2.0000      -0.446540       -12.1510
 104   2.0000      -0.444565       -12.0972
 105   2.0000      -0.442630       -12.0446
 106   2.0000      -0.431803       -11.7500
 107   2.0000      -0.428780       -11.6677
 108   2.0000      -0.415428       -11.3044
 109   2.0000      -0.404850       -11.0165
 110   2.0000      -0.395109       -10.7515
 111   2.0000      -0.387380       -10.5411
 112   2.0000      -0.334238        -9.0951
 113   2.0000      -0.330302        -8.9880
 114   2.0000      -0.326070        -8.8728
 115   2.0000      -0.305593        -8.3156
 116   2.0000      -0.296170        -8.0592
 117   2.0000      -0.249848        -6.7987
 118   0.0000      -0.043207        -1.1757
 119   0.0000       0.010363         0.2820
 120   0.0000       0.038964         1.0603
 121   0.0000       0.050076         1.3627
 122   0.0000       0.066897         1.8204

MULLIKEN ATOMIC CHARGES
-----------------------
   0 C :    0.322814
   1 C :   -0.486672
   2 C :    0.331974
   3 C :    0.097018
   4 C :   -0.311562
   5 C :    0.080138
   6 C :    0.369730
   7 C :    0.119789
   8 C :    0.284001
   9 C :   -0.464540
  10 H :    0.166253
  11 C :    0.312927
  12 C :    0.073166
  13 C :   -0.341075
  14 H :    0.166990
  15 H :    0.190306
  16 H :    0.190430
  17 O :   -0.279924
  18 C :    0.031576
  19 C :   -0.314617
  20 C :    0.004347
  21 C :   -0.105992
  22 H :    0.175050
  23 C :   -0.176677
  24 C :   -0.162982
  25 H :    0.173370
  26 H :    0.177679
  27 H :    0.171183
  28 N :   -0.293926
  29 C :   -0.064374
  30 H :    0.125223
  31 H :    0.125034
  32 C :   -0.391397
  33 H :    0.129486
  34 H :    0.139815
  35 H :    0.129008
  36 C :    0.450117
  37 O :   -0.531687
  38 O :   -0.348293
  39 C :   -0.063045
  40 H :    0.124637
  41 H :    0.124129
  42 C :   -0.393228
  43 H :    0.129451
  44 H :    0.140032
  45 H :    0.129135
  46 N :   -0.293110
  47 H :    0.285114
  48 H :    0.284993
  49 C :   -0.476400
  50 H :    0.155569
  51 H :    0.151907
  52 H :    0.154420
  53 C :   -0.469910
  54 H :    0.150265
  55 H :    0.153557
  56 H :    0.149609
  57 C :    0.013132
  58 H :    0.126895
  59 H :    0.138941
  60 C :   -0.380574
  61 H :    0.139791
  62 H :    0.123790
  63 H :    0.137194
Sum of atomic charges:    1.0000000

LOEWDIN ATOMIC CHARGES
----------------------
   0 C :   -0.137072
   1 C :   -0.111550
   2 C :   -0.134778
   3 C :   -0.092910
   4 C :   -0.040260
   5 C :   -0.143442
   6 C :    0.051050
   7 C :   -0.094936
   8 C :   -0.136084
   9 C :   -0.110878
  10 H :    0.164915
  11 C :   -0.139240
  12 C :   -0.143742
  13 C :   -0.042698
  14 H :    0.165016
  15 H :    0.171089
  16 H :    0.173173
  17 O :    0.368510
  18 C :   -0.047001
  19 C :   -0.077742
  20 C :   -0.084496
  21 C :   -0.108390
  22 H :    0.165756
  23 C :   -0.075680
  24 C :   -0.119790
  25 H :    0.158581
  26 H :    0.162739
  27 H :    0.157322
  28 N :    0.152751
  29 C :   -0.284018
  30 H :    0.134035
  31 H :    0.133958
  32 C :   -0.293637
  33 H :    0.121342
  34 H :    0.126521
  35 H :    0.121269
  36 C :   -0.386658
  37 O :    0.031064
  38 O :    0.238743
  39 C :   -0.284340
  40 H :    0.134065
  41 H :    0.133453
  42 C :   -0.293739
  43 H :    0.121296
  44 H :    0.126390
  45 H :    0.121187
  46 N :    0.151719
  47 H :    0.208039
  48 H :    0.207765
  49 C :   -0.244362
  50 H :    0.131665
  51 H :    0.130994
  52 H :    0.134346
  53 C :   -0.242876
  54 H :    0.131514
  55 H :    0.133854
  56 H :    0.131307
  57 C :   -0.264963
  58 H :    0.130718
  59 H :    0.133111
  60 C :   -0.297062
  61 H :    0.129092
  62 H :    0.122523
  63 H :    0.121471

  Mayer bond orders larger than 0.100000
B(  0-C ,  1-C ) :   1.2677 B(  0-C ,  5-C ) :   1.1218 B(  0-C , 28-N ) :   1.3576
B(  1-C ,  2-C ) :   1.4647 B(  1-C , 14-H ) :   0.9883 B(  2-C ,  3-C ) :   1.2637
B(  2-C , 17-O ) :   1.0784 B(  3-C ,  4-C ) :   1.1403 B(  3-C ,  6-C ) :   1.1936
B(  4-C ,  5-C ) :   1.6332 B(  4-C , 15-H ) :   0.9528 B(  5-C , 53-C ) :   0.9054
B(  6-C ,  7-C ) :   1.1361 B(  6-C , 18-C ) :   0.6249 B(  6-C , 19-C ) :  -0.1071
B(  7-C ,  8-C ) :   1.2991 B(  7-C , 13-C ) :   1.0973 B(  8-C ,  9-C ) :   1.4751
B(  8-C , 17-O ) :   1.0774 B(  9-C , 10-H ) :   0.9887 B(  9-C , 11-C ) :   1.2737
B( 11-C , 12-C ) :   1.1253 B( 11-C , 46-N ) :   1.3539 B( 12-C , 13-C ) :   1.6525
B( 12-C , 49-C ) :   0.9078 B( 13-C , 16-H ) :   0.9491 B( 18-C , 19-C ) :   1.4269
B( 18-C , 20-C ) :   1.3285 B( 19-C , 21-C ) :   1.4136 B( 19-C , 22-H ) :   0.9860
B( 20-C , 23-C ) :   1.4057 B( 20-C , 36-C ) :   0.9652 B( 20-C , 38-O ) :  -0.1302
B( 21-C , 24-C ) :   1.3874 B( 21-C , 25-H ) :   0.9766 B( 23-C , 24-C ) :   1.4049
B( 23-C , 26-H ) :   0.9704 B( 24-C , 27-H ) :   0.9787 B( 28-N , 29-C ) :   0.8910
B( 28-N , 47-H ) :   0.8942 B( 29-C , 30-H ) :   0.9685 B( 29-C , 31-H ) :   0.9686
B( 29-C , 32-C ) :   0.9705 B( 32-C , 33-H ) :   0.9789 B( 32-C , 34-H ) :   0.9812
B( 32-C , 35-H ) :   0.9788 B( 36-C , 37-O ) :   1.8412 B( 36-C , 38-O ) :   1.2460
B( 38-O , 57-C ) :   0.8251 B( 39-C , 40-H ) :   0.9688 B( 39-C , 41-H ) :   0.9680
B( 39-C , 42-C ) :   0.9704 B( 39-C , 46-N ) :   0.8913 B( 42-C , 43-H ) :   0.9789
B( 42-C , 44-H ) :   0.9813 B( 42-C , 45-H ) :   0.9788 B( 46-N , 48-H ) :   0.8944
B( 49-C , 50-H ) :   0.9732 B( 49-C , 51-H ) :   0.9815 B( 49-C , 52-H ) :   0.9878
B( 53-C , 54-H ) :   0.9785 B( 53-C , 55-H ) :   0.9862 B( 53-C , 56-H ) :   0.9792
B( 57-C , 58-H ) :   0.9834 B( 57-C , 59-H ) :   0.9680 B( 57-C , 60-C ) :   0.9806
B( 60-C , 61-H ) :   0.9696 B( 60-C , 62-H ) :   0.9706 B( 60-C , 63-H ) :   0.9782

MP2 TOTAL ENERGY:    -1419.779811947 Eh

-----------------------------------------------------------------------------
         ABSORPTION SPECTRUM VIA TRANSITION ELECTRIC DIPOLE MOMENTS
-----------------------------------------------------------------------------
State   Energy    Wavelength  fosc         T2        TX        TY        TZ
        (cm-1)      (nm)                 (au**2)    (au)      (au)      (au)
-----------------------------------------------------------------------------
   1   20584.3    485.8   0.959784930  15.35016   3.81653   0.79015  -0.39993
   2   26509.6    377.2   0.003998316   0.04965  -0.05162   0.21605   0.01759
   3   31541.5    317.0   0.442497836   4.61853   0.63066  -2.03865  -0.25439
   4   34000.3    294.1   0.001277430   0.01237  -0.03514   0.10363  -0.01986
   5   33635.5    297.3   0.075828071   0.74218   0.64064  -0.55083  -0.16834
   6   36140.7    276.7   0.010987257   0.10008   0.17959  -0.05601   0.25435
   7   36094.5    277.1   0.031195344   0.28453   0.02575  -0.38256  -0.37082
   8   37298.1    268.1   0.282813930   2.49626  -0.02289   1.56368   0.22505
   9   40867.5    244.7   0.064933430   0.52308  -0.34445  -0.04418  -0.63441
  10   39489.9    253.2   0.005613474   0.04680  -0.18523   0.06602   0.09015
  11   42542.5    235.1   0.076243693   0.59001   0.20372   0.54677   0.49954
  12   40210.2    248.7   0.000409467   0.00335  -0.01215  -0.01258  -0.05520
  13   42407.4    235.8   0.052468517   0.40732  -0.41014  -0.48186  -0.08314
  14   42021.2    238.0   0.457672363   3.58560  -1.82947  -0.35700   0.33343
  15   44079.9    226.9   0.629660781   4.70264   1.98882   0.86412  -0.02262
  16   43450.8    230.1   0.393877876   2.98428  -1.57412   0.67857   0.21442
  17   47033.2    212.6   0.030601928   0.21420   0.20976  -0.41132   0.03184
  18   50097.5    199.6   0.393935128   2.58872  -0.72607  -0.14204  -1.42876
  19   48811.0    204.9   0.548708812   3.70084  -0.22605   1.84278   0.50389
  20   50464.0    198.2   0.016243393   0.10597  -0.10155   0.29638   0.08839
  21   46002.1    217.4   0.011672615   0.08353   0.18599  -0.20091  -0.09262
  22   49737.4    201.1   0.078655606   0.52062  -0.04281  -0.70077  -0.16648
  23   49942.5    200.2   0.072660741   0.47897  -0.12944  -0.67516  -0.07984
  24   47264.6    211.6   0.029487429   0.20539   0.18814  -0.39595  -0.11497
  25   47625.4    210.0   0.164457396   1.13682  -0.87619   0.10085  -0.59912
  26   46204.5    216.4   0.022858221   0.16287   0.12960   0.34567  -0.16305
  27   46333.8    215.8   0.009896089   0.07031   0.05270  -0.23695   0.10674
  28   50757.8    197.0   0.030805050   0.19980  -0.09564  -0.36776  -0.23539
  29   55140.7    181.4   0.004856368   0.02899   0.04203   0.12737  -0.10490
  30   49579.1    201.7   0.025435102   0.16889   0.40761  -0.03532   0.03873

FINAL SINGLE POINT ENERGY     -1417.394066106114

DIPOLE MOMENT
-------------
                                X             Y             Z
Electronic contribution:     -2.62892     -16.53174      -5.94113
Nuclear contribution   :      2.25953      17.50823       4.93684
                        -----------------------------------------
Total Dipole Moment    :     -0.36939       0.97648      -1.00428
                        -----------------------------------------
Magnitude (a.u.)       :      1.44864
Magnitude (Debye)      :      3.68215

Rotational constants in cm-1:     0.004857     0.003173     0.002222
Rotational constants in MHz :   145.624084    95.129369    66.608773

                             ****ORCA TERMINATED NORMALLY****
TOTAL RUN TIME: 1 days 15 hours 31 minutes 43 seconds 570 msec
