                         Program Version 5.0.2 -  RELEASE  -
|  1> %maxcore 3200
|  2> %pal
|  3>  nprocs= 8
|  4> end
|  5> ! RI-wB2PLYP def2-TZVP def2/J def2-TZVP/C RIJCOSX CPCM TightSCF
|  6> %TDDFT DCORR 1
|  7>    NROOTS   30
|  8>
|  9>    TDA      FALSE
| 10> END
| 11>
| 12> %CPCM
| 13>    SMD          TRUE
| 14>    SMDsolvent   "N,N-DIMETHYLACETAMIDE"
| 15> END
| 16>
| 17>
| 18> * xyz 0 1
| 19> C                   0.65203800    3.62186300   -0.00084300
| 20> C                  -0.08658100    2.44394500   -0.00194200
| 21> C                   0.54696400    1.20455600   -0.00146800
| 22> C                   1.94708500    1.17979400    0.00016300
| 23> C                   2.68011500    2.34800100    0.00134900
| 24> C                   2.03414100    3.58044100    0.00088400
| 25> C                   1.94710100   -1.17977100    0.00014300
| 26> C                   0.54698100   -1.20455200   -0.00149400
| 27> C                  -0.08654800   -2.44394900   -0.00201200
| 28> H                  -1.16781900   -2.48300400   -0.00329500
| 29> C                   0.65208600   -3.62185800   -0.00093500
| 30> C                   2.03418800   -3.58041700    0.00081000
| 31> C                   2.68014600   -2.34796800    0.00130700
| 32> H                  -1.16785300    2.48298700   -0.00320800
| 33> H                   3.76040800    2.27808100    0.00268500
| 34> H                   0.13153200   -4.57070900   -0.00139800
| 35> N                  -0.15499900   -0.00000300   -0.00255200
| 36> C                  -1.58361100   -0.00001100   -0.00094300
| 37> C                  -2.27146300   -0.00016700    1.20521900
| 38> C                  -2.27450600    0.00013900   -1.20534000
| 39> C                  -3.65828800   -0.00017400    1.20409400
| 40> C                  -3.66135100    0.00013700   -1.20063600
| 41> H                  -1.71972200    0.00025900   -2.13569300
| 42> C                  -4.35311100   -0.00002100    0.00260400
| 43> H                  -4.20221700    0.00025600   -2.13846200
| 44> H                  -5.43576100   -0.00002400    0.00397300
| 45> H                   3.76043800   -2.27803500    0.00264900
| 46> H                   0.13147200    4.57070800   -0.00127400
| 47> O                   2.65010600    0.00001600    0.00064500
| 48> H                   2.61622500   -4.49228100    0.00170700
| 49> H                   2.61616500    4.49231300    0.00179600
| 50> H                  -4.19675100   -0.00029600    2.14330400
| 51> H                  -1.71429800   -0.00028300    2.13415300
| 52> *
| 53>
| 54>
| 55>                          ****END OF INPUT****

CARTESIAN COORDINATES (ANGSTROEM)
---------------------------------
  C      0.652038    3.621863   -0.000843
  C     -0.086581    2.443945   -0.001942
  C      0.546964    1.204556   -0.001468
  C      1.947085    1.179794    0.000163
  C      2.680115    2.348001    0.001349
  C      2.034141    3.580441    0.000884
  C      1.947101   -1.179771    0.000143
  C      0.546981   -1.204552   -0.001494
  C     -0.086548   -2.443949   -0.002012
  H     -1.167819   -2.483004   -0.003295
  C      0.652086   -3.621858   -0.000935
  C      2.034188   -3.580417    0.000810
  C      2.680146   -2.347968    0.001307
  H     -1.167853    2.482987   -0.003208
  H      3.760408    2.278081    0.002685
  H      0.131532   -4.570709   -0.001398
  N     -0.154999   -0.000003   -0.002552
  C     -1.583611   -0.000011   -0.000943
  C     -2.271463   -0.000167    1.205219
  C     -2.274506    0.000139   -1.205340
  C     -3.658288   -0.000174    1.204094
  C     -3.661351    0.000137   -1.200636
  H     -1.719722    0.000259   -2.135693
  C     -4.353111   -0.000021    0.002604
  H     -4.202217    0.000256   -2.138462
  H     -5.435761   -0.000024    0.003973
  H      3.760438   -2.278035    0.002649
  H      0.131472    4.570708   -0.001274
  O      2.650106    0.000016    0.000645
  H      2.616225   -4.492281    0.001707
  H      2.616165    4.492313    0.001796
  H     -4.196751   -0.000296    2.143304
  H     -1.714298   -0.000283    2.134153

 Total Charge           Charge          ....    0
 Multiplicity           Mult            ....    1
 Number of Electrons    NEL             ....  136
 Basis Dimension        Dim             ....  698

ORBITAL ENERGIES
----------------

  NO   OCC          E(Eh)            E(eV)
   0   2.0000     -19.844208      -539.9883
   1   2.0000     -14.944051      -406.6483
   2   2.0000     -10.755772      -292.6794
   3   2.0000     -10.755748      -292.6788
   4   2.0000     -10.743030      -292.3327
   5   2.0000     -10.743010      -292.3322
   6   2.0000     -10.729960      -291.9771
   7   2.0000     -10.691546      -290.9318
   8   2.0000     -10.691531      -290.9313
   9   2.0000     -10.690778      -290.9109
  10   2.0000     -10.690267      -290.8969
  11   2.0000     -10.689634      -290.8797
  12   2.0000     -10.688252      -290.8421
  13   2.0000     -10.688249      -290.8420
  14   2.0000     -10.687099      -290.8107
  15   2.0000     -10.687098      -290.8107
  16   2.0000     -10.684977      -290.7530
  17   2.0000     -10.684977      -290.7530
  18   2.0000     -10.682677      -290.6904
  19   2.0000     -10.682677      -290.6904
  20   2.0000      -1.321923       -35.9713
  21   2.0000      -1.194892       -32.5147
  22   2.0000      -1.082342       -29.4520
  23   2.0000      -1.071520       -29.1575
  24   2.0000      -1.045961       -28.4621
  25   2.0000      -0.965736       -26.2790
  26   2.0000      -0.957113       -26.0444
  27   2.0000      -0.957006       -26.0414
  28   2.0000      -0.946964       -25.7682
  29   2.0000      -0.927922       -25.2501
  30   2.0000      -0.891205       -24.2509
  31   2.0000      -0.822517       -22.3818
  32   2.0000      -0.822149       -22.3718
  33   2.0000      -0.783912       -21.3313
  34   2.0000      -0.770965       -20.9790
  35   2.0000      -0.758704       -20.6454
  36   2.0000      -0.731437       -19.9034
  37   2.0000      -0.727758       -19.8033
  38   2.0000      -0.690175       -18.7806
  39   2.0000      -0.656024       -17.8513
  40   2.0000      -0.645481       -17.5644
  41   2.0000      -0.629419       -17.1274
  42   2.0000      -0.620629       -16.8882
  43   2.0000      -0.615958       -16.7611
  44   2.0000      -0.615722       -16.7546
  45   2.0000      -0.603584       -16.4244
  46   2.0000      -0.578525       -15.7425
  47   2.0000      -0.576917       -15.6987
  48   2.0000      -0.574003       -15.6194
  49   2.0000      -0.570651       -15.5282
  50   2.0000      -0.562815       -15.3150
  51   2.0000      -0.531049       -14.4506
  52   2.0000      -0.518760       -14.1162
  53   2.0000      -0.514848       -14.0097
  54   2.0000      -0.510842       -13.9007
  55   2.0000      -0.506298       -13.7771
  56   2.0000      -0.494737       -13.4625
  57   2.0000      -0.485854       -13.2207
  58   2.0000      -0.484548       -13.1852
  59   2.0000      -0.476325       -12.9615
  60   2.0000      -0.461505       -12.5582
  61   2.0000      -0.447776       -12.1846
  62   2.0000      -0.367366        -9.9965
  63   2.0000      -0.361288        -9.8312
  64   2.0000      -0.355152        -9.6642
  65   2.0000      -0.351211        -9.5569
  66   2.0000      -0.330274        -8.9872
  67   2.0000      -0.268744        -7.3129
  68   0.0000       0.067884         1.8472
  69   0.0000       0.078431         2.1342
  70   0.0000       0.078840         2.1454
  71   0.0000       0.086968         2.3665
  72   0.0000       0.099134         2.6976

MULLIKEN ATOMIC CHARGES
-----------------------
   0 C :   -0.215293
   1 C :   -0.236413
   2 C :    0.116276
   3 C :    0.207962
   4 C :   -0.295660
   5 C :   -0.169407
   6 C :    0.207757
   7 C :    0.117170
   8 C :   -0.237635
   9 H :    0.199150
  10 C :   -0.214686
  11 C :   -0.170807
  12 C :   -0.293973
  13 H :    0.199374
  14 H :    0.175758
  15 H :    0.178329
  16 N :   -0.012795
  17 C :    0.024635
  18 C :   -0.241385
  19 C :   -0.240410
  20 C :   -0.130051
  21 C :   -0.130676
  22 H :    0.182504
  23 C :   -0.162747
  24 H :    0.181890
  25 H :    0.182358
  26 H :    0.175910
  27 H :    0.178397
  28 O :   -0.297128
  29 H :    0.178413
  30 H :    0.178424
  31 H :    0.182185
  32 H :    0.182575
Sum of atomic charges:    0.0000000

LOEWDIN ATOMIC CHARGES
----------------------
   0 C :   -0.160790
   1 C :   -0.125537
   2 C :   -0.141591
   3 C :   -0.198470
   4 C :   -0.122178
   5 C :   -0.167140
   6 C :   -0.198467
   7 C :   -0.141591
   8 C :   -0.125537
   9 H :    0.164102
  10 C :   -0.160790
  11 C :   -0.167143
  12 C :   -0.122175
  13 H :    0.164104
  14 H :    0.161094
  15 H :    0.155573
  16 N :    0.271999
  17 C :   -0.176869
  18 C :   -0.102065
  19 C :   -0.102086
  20 C :   -0.140904
  21 C :   -0.140908
  22 H :    0.163582
  23 C :   -0.141058
  24 H :    0.156880
  25 H :    0.156223
  26 H :    0.161094
  27 H :    0.155574
  28 O :    0.296341
  29 H :    0.154126
  30 H :    0.154124
  31 H :    0.156882
  32 H :    0.163601

  Mayer bond orders larger than 0.100000
B(  0-C ,  1-C ) :   1.4028 B(  0-C ,  5-C ) :   1.4345 B(  0-C , 27-H ) :   0.9750
B(  1-C ,  2-C ) :   1.3546 B(  1-C , 13-H ) :   0.9511 B(  2-C ,  3-C ) :   1.3114
B(  2-C , 16-N ) :   1.0796 B(  3-C ,  4-C ) :   1.4638 B(  3-C , 28-O ) :   1.0074
B(  4-C ,  5-C ) :   1.3731 B(  4-C , 14-H ) :   0.9756 B(  5-C , 30-H ) :   0.9799
B(  6-C ,  7-C ) :   1.3114 B(  6-C , 12-C ) :   1.4636 B(  6-C , 28-O ) :   1.0075
B(  7-C ,  8-C ) :   1.3539 B(  7-C , 16-N ) :   1.0794 B(  8-C ,  9-H ) :   0.9516
B(  8-C , 10-C ) :   1.4027 B( 10-C , 11-C ) :   1.4345 B( 10-C , 15-H ) :   0.9750
B( 11-C , 12-C ) :   1.3728 B( 11-C , 29-H ) :   0.9803 B( 12-C , 26-H ) :   0.9754
B( 16-N , 17-C ) :   0.7083 B( 17-C , 18-C ) :   1.4612 B( 17-C , 19-C ) :   1.4610
B( 18-C , 20-C ) :   1.4079 B( 18-C , 32-H ) :   0.9740 B( 19-C , 21-C ) :   1.4072
B( 19-C , 22-H ) :   0.9741 B( 20-C , 23-C ) :   1.3933 B( 20-C , 31-H ) :   0.9719
B( 21-C , 23-C ) :   1.3929 B( 21-C , 24-H ) :   0.9726 B( 23-C , 25-H ) :   0.9706

MP2 TOTAL ENERGY:     -822.400717468 Eh

-----------------------------------------------------------------------------
         ABSORPTION SPECTRUM VIA TRANSITION ELECTRIC DIPOLE MOMENTS
-----------------------------------------------------------------------------
State   Energy    Wavelength  fosc         T2        TX        TY        TZ
        (cm-1)      (nm)                 (au**2)    (au)      (au)      (au)
-----------------------------------------------------------------------------
   1   32638.1    306.4   0.054838833   0.55314  -0.00000   0.74374  -0.00000
   2   35098.6    284.9   0.254043634   2.38283   0.00000  -1.54364  -0.00006
   3   36119.7    276.9   0.000686738   0.00626   0.07911   0.00000  -0.00029
   4   38810.9    257.7   0.000000016   0.00000   0.00036   0.00006  -0.00001
   5   43402.6    230.4   0.001706347   0.01294  -0.00033   0.00010   0.11377
   6   48129.0    207.8   0.043099829   0.29481  -0.54297   0.00001   0.00049
   7   43271.0    231.1   0.014657565   0.11152  -0.00005  -0.33394  -0.00031
   8   50068.7    199.7   0.000787949   0.00518  -0.07198   0.00006   0.00055
   9   47798.9    209.2   0.023380515   0.16103   0.00078   0.10079  -0.38842
  10   46953.8    213.0   1.390950791   9.75252   0.00006  -3.12288  -0.01251
  11   50378.1    198.5   0.000109523   0.00072  -0.00002   0.02675  -0.00004
  12   51710.3    193.4   1.701776381  10.83430  -3.29155  -0.00003  -0.00203
  13   51769.8    193.2   0.342298158   2.17673  -1.47537  -0.00001  -0.00074
  14   54749.8    182.6   0.656591065   3.94810  -0.00104   0.00024  -1.98698
  15   55483.4    180.2   0.202304654   1.20038   1.09562  -0.00001  -0.00225
  16   54558.9    183.3   0.000157918   0.00095   0.00746  -0.00002   0.02995
  17   58766.1    170.2   0.000000021   0.00000  -0.00000  -0.00034   0.00002
  18   59512.1    168.0   0.001491550   0.00825   0.02864   0.00006   0.08620
  19   57350.2    174.4   0.094055231   0.53991   0.73478   0.00000  -0.00290
  20   58736.2    170.3   0.235504995   1.31999  -0.00001   1.14891  -0.00001
  21   60233.5    166.0   0.043204829   0.23614  -0.48594   0.00000  -0.00018
  22   58788.2    170.1   0.000000288   0.00000   0.00015   0.00126  -0.00003
  23   61214.5    163.4   0.003592494   0.01932   0.00014  -0.00007  -0.13900
  24   62783.8    159.3   0.000000033   0.00000  -0.00001   0.00041   0.00003
  25   63177.1    158.3   0.000578967   0.00302  -0.05490  -0.00022  -0.00177
  26   60790.9    164.5   0.011082002   0.06001   0.00003  -0.24498  -0.00002
  27   62642.0    159.6   0.000668853   0.00352  -0.00123   0.00018  -0.05928
  28   63191.0    158.3   0.000033471   0.00017   0.00033  -0.00017  -0.01320
  29   66108.2    151.3   0.000000029   0.00000   0.00003  -0.00038  -0.00001
  30   65390.0    152.9   0.011932811   0.06008   0.00001   0.24511   0.00005

FINAL SINGLE POINT ENERGY      -821.301413109738

DIPOLE MOMENT
-------------
                                X             Y             Z
Electronic contribution:      5.17622       0.00003      -0.00589
Nuclear contribution   :     -6.44909      -0.00003       0.00683
                        -----------------------------------------
Total Dipole Moment    :     -1.27287       0.00001       0.00094
                        -----------------------------------------
Magnitude (a.u.)       :      1.27287
Magnitude (Debye)      :      3.23538

Rotational constants in cm-1:     0.014520     0.012031     0.007065
Rotational constants in MHz :   435.289597   360.687687   211.804504

                             ****ORCA TERMINATED NORMALLY****
TOTAL RUN TIME: 0 days 0 hours 21 minutes 31 seconds 875 msec
