 Gaussian 09, Revision E.01,

 ----------------------------------------------------------------------
 #p cam-b3lyp/def2TZVP opt=tight freq=noraman nosymm int=ultrafine scrf
 =(SMD,solvent=n,n-DiMethylAcetamide) EmpiricalDispersion=GD3BJ
 ----------------------------------------------------------------------

 -----
 Title
 -----
 Symbolic Z-matrix:
 Charge =  0 Multiplicity = 1

 SCF Done:  E(RCAM-B3LYP) =  -823.625192422     A.U. after   15 cycles
 SCF Done:  E(RCAM-B3LYP) =  -823.626854093     A.U. after   10 cycles
 SCF Done:  E(RCAM-B3LYP) =  -823.626957062     A.U. after   10 cycles
 SCF Done:  E(RCAM-B3LYP) =  -823.626977008     A.U. after   10 cycles
 SCF Done:  E(RCAM-B3LYP) =  -823.626989800     A.U. after   10 cycles
 SCF Done:  E(RCAM-B3LYP) =  -823.627012132     A.U. after   10 cycles
 SCF Done:  E(RCAM-B3LYP) =  -823.627027382     A.U. after   10 cycles
 SCF Done:  E(RCAM-B3LYP) =  -823.627030382     A.U. after   10 cycles
 SCF Done:  E(RCAM-B3LYP) =  -823.627030678     A.U. after    9 cycles
 SCF Done:  E(RCAM-B3LYP) =  -823.627030713     A.U. after    8 cycles
 SCF Done:  E(RCAM-B3LYP) =  -823.627030720     A.U. after    7 cycles
 SCF Done:  E(RCAM-B3LYP) =  -823.627030722     A.U. after    6 cycles
 SCF Done:  E(RCAM-B3LYP) =  -823.627030723     A.U. after    5 cycles
 SCF Done:  E(RCAM-B3LYP) =  -823.627030723     A.U. after    6 cycles
 SCF Done:  E(RCAM-B3LYP) =  -823.627030723     A.U. after    4 cycles
 SCF Done:  E(RCAM-B3LYP) =  -823.627030723     A.U. after    3 cycles
 Optimization completed.
    -- Stationary point found.
 Normal termination of Gaussian 09 at Tue Nov 23 15:43:32 2021.

 ----------------------------------------------------------------------
 #P Geom=AllCheck Guess=TCheck SCRF=Check GenChk RCAM-B3LYP/def2TZVP Fr
 eq
 ----------------------------------------------------------------------

 Structure from the checkpoint file:  "cp.chk"
 -----
 Title
 -----
 Charge =  0 Multiplicity = 1

 SCF Done:  E(RCAM-B3LYP) =  -823.627030723     A.U. after    1 cycles

  Exact polarizability: 358.613  -0.001 372.562  -0.180   0.009 218.579
 Approx polarizability: 301.759   0.001 291.188   0.783   0.006 199.784

                      1                      2                      3
                      A                      A                      A
 Frequencies --     18.0087                34.6755                40.3511
 Red. masses --      6.3380                 4.5961                 3.7858
 Frc consts  --      0.0012                 0.0033                 0.0036
 IR Inten    --      1.7125                 0.2232                 0.0063

                      4                      5                      6
                      A                      A                      A
 Frequencies --     67.0156               122.6476               191.8772
 Red. masses --      4.9901                 3.7968                 5.1991
 Frc consts  --      0.0132                 0.0337                 0.1128
 IR Inten    --      0.3495                 0.0074                 0.2602

                      7                      8                      9
                      A                      A                      A
 Frequencies --    213.4072               265.9261               272.9437
 Red. masses --      5.5269                 4.2319                 4.9185
 Frc consts  --      0.1483                 0.1763                 0.2159
 IR Inten    --      0.3277                 0.6032                 0.3229

                     10                     11                     12
                      A                      A                      A
 Frequencies --    278.2899               330.9599               409.9563
 Red. masses --      5.4640                 5.7882                 6.1868
 Frc consts  --      0.2493                 0.3735                 0.6126
 IR Inten    --      2.2505                 6.9381                 0.2925

                     13                     14                     15
                      A                      A                      A
 Frequencies --    429.5963               431.0185               455.1543
 Red. masses --      2.8509                 5.2172                 4.8996
 Frc consts  --      0.3100                 0.5711                 0.5980
 IR Inten    --      0.0025                 8.1813                 0.4792

                     16                     17                     18
                      A                      A                      A
 Frequencies --    467.5107               483.3310               522.2656
 Red. masses --      3.1504                 3.5816                 4.4841
 Frc consts  --      0.4057                 0.4930                 0.7206
 IR Inten    --      0.0016                 6.8379                13.0513

                     19                     20                     21
                      A                      A                      A
 Frequencies --    572.6059               580.8571               608.0759
 Red. masses --      3.9661                 4.2560                 5.1050
 Frc consts  --      0.7662                 0.8460                 1.1121
 IR Inten    --      0.0572                 0.6755                23.0781

                     22                     23                     24
                      A                      A                      A
 Frequencies --    618.7489               639.2703               641.2420
 Red. masses --      7.9483                 6.0297                 6.4431
 Frc consts  --      1.7929                 1.4518                 1.5609
 IR Inten    --      9.9850                31.7251                 0.4046

                     25                     26                     27
                      A                      A                      A
 Frequencies --    678.7600               722.4482               728.2578
 Red. masses --      6.3222                 6.0088                 1.6969
 Frc consts  --      1.7161                 1.8478                 0.5303
 IR Inten    --     11.0400                 0.2742                92.3554

                     28                     29                     30
                      A                      A                      A
 Frequencies --    730.2499               751.1181               769.3096
 Red. masses --      4.0503                 4.1677                 1.2444
 Frc consts  --      1.2726                 1.3854                 0.4339
 IR Inten    --     14.0114                 0.9937               308.8089

                     31                     32                     33
                      A                      A                      A
 Frequencies --    770.6604               800.7214               820.6547
 Red. masses --      1.2356                 2.2096                 6.3116
 Frc consts  --      0.4324                 0.8347                 2.5044
 IR Inten    --      1.9855                10.2036                11.8588

                     34                     35                     36
                      A                      A                      A
 Frequencies --    877.6586               879.5186               881.9727
 Red. masses --      1.3945                 1.2477                 1.4740
 Frc consts  --      0.6329                 0.5687                 0.6755
 IR Inten    --      0.0147                 0.0013                 0.3040

                     37                     38                     39
                      A                      A                      A
 Frequencies --    898.7146               938.5158               956.4956
 Red. masses --      5.5094                 2.4951                 1.3544
 Frc consts  --      2.6218                 1.2949                 0.7300
 IR Inten    --     12.8551                 5.0210                 0.0087

                     40                     41                     42
                      A                      A                      A
 Frequencies --    958.4383               960.3250               988.8377
 Red. masses --      1.3811                 5.8309                 1.2793
 Frc consts  --      0.7475                 3.1683                 0.7370
 IR Inten    --     18.8557                 3.7853                 0.2482

                     43                     44                     45
                      A                      A                      A
 Frequencies --    988.9384               991.1655              1020.5346
 Red. masses --      1.2655                 2.2080                 1.3801
 Frc consts  --      0.7292                 1.2781                 0.8469
 IR Inten    --      1.1716                 6.8691                 0.0071

                     46                     47                     48
                      A                      A                      A
 Frequencies --   1038.0875              1040.4950              1062.1286
 Red. masses --      6.2644                 1.3455                 2.0034
 Frc consts  --      3.9774                 0.8582                 1.3316
 IR Inten    --      2.1886                 0.0010                15.0283

                     49                     50                     51
                      A                      A                      A
 Frequencies --   1077.4921              1082.8002              1107.7272
 Red. masses --      2.0998                 1.7772                 1.4655
 Frc consts  --      1.4363                 1.2276                 1.0595
 IR Inten    --      6.0458                57.1159                18.5618

                     52                     53                     54
                      A                      A                      A
 Frequencies --   1130.7142              1148.7621              1174.6906
 Red. masses --      1.8254                 1.4507                 1.1386
 Frc consts  --      1.3751                 1.1279                 0.9257
 IR Inten    --      3.0681                30.1134                 4.4201

                     55                     56                     57
                      A                      A                      A
 Frequencies --   1175.4070              1178.0946              1191.8000
 Red. masses --      1.1282                 1.1453                 1.1198
 Frc consts  --      0.9183                 0.9365                 0.9371
 IR Inten    --      0.7010                 1.3412                 0.0750

                     58                     59                     60
                      A                      A                      A
 Frequencies --   1220.8920              1245.7079              1249.3890
 Red. masses --      3.6433                 2.3639                 3.3651
 Frc consts  --      3.1997                 2.1613                 3.0949
 IR Inten    --      0.3651                14.1208                20.5987

                     61                     62                     63
                      A                      A                      A
 Frequencies --   1307.5800              1312.4506              1323.2423
 Red. masses --      5.2640                 4.8708                 2.2203
 Frc consts  --      5.3028                 4.9433                 2.2905
 IR Inten    --    689.9127                 7.0081                18.6523

                     64                     65                     66
                      A                      A                      A
 Frequencies --   1323.6193              1351.4512              1358.0039
 Red. masses --      1.7228                 6.4486                 1.4486
 Frc consts  --      1.7783                 6.9393                 1.5740
 IR Inten    --     24.1318                 0.1795                 0.1218

                     67                     68                     69
                      A                      A                      A
 Frequencies --   1374.8989              1379.1613              1500.9581
 Red. masses --      3.0194                 3.5698                 2.5995
 Frc consts  --      3.3629                 4.0006                 3.4504
 IR Inten    --    131.5108               896.7104                 1.7750

                     70                     71                     72
                      A                      A                      A
 Frequencies --   1501.1017              1516.3724              1539.7918
 Red. masses --      2.2963                 2.6521                 3.0896
 Frc consts  --      3.0486                 3.5930                 4.3160
 IR Inten    --      6.7452                29.4523              1328.6254

                     73                     74                     75
                      A                      A                      A
 Frequencies --   1550.4273              1573.0344              1644.8596
 Red. masses --      2.5064                 3.3048                 6.2281
 Frc consts  --      3.5498                 4.8180                 9.9281
 IR Inten    --     64.4987                58.7914                 3.5245

                     76                     77                     78
                      A                      A                      A
 Frequencies --   1663.9901              1664.3022              1675.2693
 Red. masses --      6.2597                 6.8139                 6.1949
 Frc consts  --     10.2119                11.1202                10.2436
 IR Inten    --      5.4545                60.9928                53.1008

                     79                     80                     81
                      A                      A                      A
 Frequencies --   1683.5602              1704.4859              3196.0228
 Red. masses --      7.6926                 7.4934                 1.0871
 Frc consts  --     12.8464                12.8268                 6.5426
 IR Inten    --      0.1743                29.4793                 0.3408

                     82                     83                     84
                      A                      A                      A
 Frequencies --   3201.2584              3201.4502              3202.7454
 Red. masses --      1.0872                 1.0873                 1.0894
 Frc consts  --      6.5645                 6.5661                 6.5839
 IR Inten    --      1.2214                 1.0623                 2.1171

                     85                     86                     87
                      A                      A                      A
 Frequencies --   3209.1884              3209.9503              3210.0485
 Red. masses --      1.0928                 1.0915                 1.0916
 Frc consts  --      6.6310                 6.6260                 6.6271
 IR Inten    --     13.1577                19.0264                 2.8051

                     88                     89                     90
                      A                      A                      A
 Frequencies --   3215.6280              3221.6212              3221.7245
 Red. masses --      1.0961                 1.0988                 1.0961
 Frc consts  --      6.6775                 6.7192                 6.7030
 IR Inten    --     13.1726                 9.4730                13.3584

                     91                     92                     93
                      A                      A                      A
 Frequencies --   3221.8845              3231.5311              3232.0057
 Red. masses --      1.0965                 1.0940                 1.0940
 Frc consts  --      6.7060                 6.7313                 6.7332
 IR Inten    --      3.3433                 0.8273                 2.2964

 - Thermochemistry -
 -------------------
 Temperature   298.150 Kelvin.  Pressure   1.00000 Atm.
 Atom     1 has atomic number  6 and mass  12.00000

 Molecular mass:   259.09971 amu.
 Principal axes and moments of inertia in atomic units:
                           1         2         3
     Eigenvalues --  4122.877994992.929018477.35847
           X            0.99998  -0.00005   0.00579
           Y            0.00005   1.00000  -0.00005
           Z           -0.00579   0.00005   0.99998
 This molecule is an asymmetric top.
 Rotational symmetry number  1.
 Warning -- assumption of classical behavior for rotation
           may cause significant error
 Rotational temperatures (Kelvin)      0.02101     0.01735     0.01022
 Rotational constants (GHZ):           0.43774     0.36146     0.21289
 Zero-point vibrational energy     691781.5 (Joules/Mol)
                                  165.33975 (Kcal/Mol)
 Warning -- explicit consideration of  22 degrees of freedom as
           vibrations may cause significant error
 Vibrational temperatures:     25.91    49.89    58.06    96.42   176.46
          (Kelvin)            276.07   307.05   382.61   392.70   400.40
                              476.18   589.84   618.09   620.14   654.86
                              672.64   695.40   751.42   823.85   835.72
                              874.88   890.24   919.77   922.60   976.58
                             1039.44  1047.80  1050.67  1080.69  1106.86
                             1108.81  1152.06  1180.74  1262.75  1265.43
                             1268.96  1293.05  1350.31  1376.18  1378.98
                             1381.69  1422.72  1422.86  1426.06  1468.32
                             1493.57  1497.04  1528.16  1550.27  1557.91
                             1593.77  1626.84  1652.81  1690.12  1691.15
                             1695.01  1714.73  1756.59  1792.29  1797.59
                             1881.31  1888.32  1903.85  1904.39  1944.43
                             1953.86  1978.17  1984.30  2159.54  2159.75
                             2181.72  2215.41  2230.72  2263.24  2366.58
                             2394.11  2394.56  2410.34  2422.26  2452.37
                             4598.36  4605.89  4606.17  4608.03  4617.30
                             4618.40  4618.54  4626.57  4635.19  4635.34
                             4635.57  4649.45  4650.13

 Zero-point correction=                           0.263486 (Hartree/Particle)
 Thermal correction to Energy=                    0.277894
 Thermal correction to Enthalpy=                  0.278838
 Thermal correction to Gibbs Free Energy=         0.219871
 Sum of electronic and zero-point Energies=           -823.363545
 Sum of electronic and thermal Energies=              -823.349137
 Sum of electronic and thermal Enthalpies=            -823.348193
 Sum of electronic and thermal Free Energies=         -823.407160

                     E (Thermal)             CV                S
                      KCal/Mol        Cal/Mol-Kelvin    Cal/Mol-Kelvin
 Total                  174.381             59.147            124.107
 Electronic               0.000              0.000              0.000
 Translational            0.889              2.981             42.556
 Rotational               0.889              2.981             33.523
 Vibrational            172.604             53.185             48.029
 Vibration     1          0.593              1.986              6.842
 Vibration     2          0.594              1.983              5.542
 Vibration     3          0.594              1.981              5.242
 Vibration     4          0.598              1.970              4.239
 Vibration     5          0.610              1.930              3.058
 Vibration     6          0.634              1.851              2.210
 Vibration     7          0.644              1.821              2.014
 Vibration     8          0.672              1.736              1.623
 Vibration     9          0.676              1.723              1.577
 Vibration    10          0.679              1.714              1.544
 Vibration    11          0.713              1.614              1.255
 Vibration    12          0.774              1.449              0.927
 Vibration    13          0.791              1.406              0.860
 Vibration    14          0.792              1.403              0.855
 Vibration    15          0.813              1.349              0.780
 Vibration    16          0.825              1.322              0.745
 Vibration    17          0.840              1.287              0.701
 Vibration    18          0.877              1.201              0.605
 Vibration    19          0.929              1.091              0.499
 Vibration    20          0.938              1.073              0.484
 Vibration    21          0.967              1.015              0.436
 Vibration    22          0.979              0.992              0.419

 Optimization completed on the basis of negligible forces.
    -- Stationary point found.
 Normal termination of Gaussian 09 at Tue Nov 23 18:08:11 2021.
 Gaussian 09:  ES64L-G09RevE.01 30-Nov-2015

 ----------------------------------------------------------------------
 #p cam-b3lyp chkbasis geom=allcheck Guess=Read int=ultrafine scrf=(SMD
 ,solvent=n,n-DiMethylAcetamide) td=(NStates=30) EmpiricalDispersion=GD
 3BJ
 ----------------------------------------------------------------------

 Structure from the checkpoint file:  "cp.chk"
 -----
 Title
 -----
 Charge =  0 Multiplicity = 1

                         Standard orientation:
 ---------------------------------------------------------------------
 Center     Atomic      Atomic             Coordinates (Angstroms)
 Number     Number       Type             X           Y           Z
 ---------------------------------------------------------------------
      1          6           0       -0.657554    3.609960   -0.122014
      2          6           0        0.083599    2.437169   -0.060508
      3          6           0       -0.545211    1.203537    0.035478
      4          6           0       -1.941303    1.178652    0.066609
      5          6           0       -2.677841    2.338262   -0.003357
      6          6           0       -2.037109    3.567412   -0.095441
      7          6           0       -1.941302   -1.178653    0.066605
      8          6           0       -0.545211   -1.203537    0.035473
      9          6           0        0.083600   -2.437169   -0.060519
     10          1           0        1.162508   -2.483228   -0.082257
     11          6           0       -0.657553   -3.609960   -0.122028
     12          6           0       -2.037108   -3.567412   -0.095452
     13          6           0       -2.677840   -2.338263   -0.003364
     14          1           0        1.162508    2.483230   -0.082243
     15          1           0       -3.757381    2.267233    0.023309
     16          1           0       -0.140027   -4.557502   -0.192091
     17          7           0        0.158137   -0.000000    0.110692
     18          6           0        1.583773   -0.000000    0.059801
     19          6           0        2.234435    0.000024   -1.163718
     20          6           0        2.308641   -0.000025    1.239316
     21          6           0        3.618323    0.000026   -1.205228
     22          6           0        3.693352   -0.000024    1.195039
     23          1           0        1.782562   -0.000044    2.185120
     24          6           0        4.348169    0.000001   -0.026284
     25          1           0        4.261194   -0.000043    2.116215
     26          1           0        5.429924    0.000002   -0.060111
     27          1           0       -3.757381   -2.267235    0.023303
     28          1           0       -0.140029    4.557503   -0.192073
     29          8           0       -2.633241   -0.000001    0.196026
     30          1           0       -2.620402   -4.476789   -0.144283
     31          1           0       -2.620403    4.476789   -0.144268
     32          1           0        4.128194    0.000045   -2.159723
     33          1           0        1.652545    0.000043   -2.076403
 ---------------------------------------------------------------------

 SCF Done:  E(RCAM-B3LYP) =  -823.627031719     A.U. after    4 cycles

 Excitation energies and oscillator strengths:

 Excited State   1:      Singlet-A      3.9266 eV  315.76 nm  f=0.0316  <S**2>=0.000
      68 -> 69         0.59045
      68 -> 70        -0.14090
      68 -> 71         0.31491
      68 -> 73        -0.13540
 This state for optimization and/or second-order correction.
 Total Energy, E(TD-HF/TD-KS) =  -823.482732125
 Copying the excited state density for this state as the 1-particle RhoCI density.

 Excited State   2:      Singlet-A      4.3022 eV  288.19 nm  f=0.2356  <S**2>=0.000
      67 -> 69        -0.13341
      68 -> 69        -0.27753
      68 -> 70        -0.29628
      68 -> 71         0.48630
      68 -> 73         0.23676

 Excited State   3:      Singlet-A      4.4779 eV  276.88 nm  f=0.0068  <S**2>=0.000
      67 -> 70         0.10209
      68 -> 70         0.60277
      68 -> 71         0.32282

 Excited State   4:      Singlet-A      4.4916 eV  276.03 nm  f=0.0017  <S**2>=0.000
      67 -> 74         0.11285
      68 -> 72         0.66974

 Excited State   5:      Singlet-A      4.9725 eV  249.34 nm  f=0.0369  <S**2>=0.000
      67 -> 71        -0.13647
      68 -> 69         0.24775
      68 -> 71        -0.17766
      68 -> 73         0.60538

 Excited State   6:      Singlet-A      5.5131 eV  224.89 nm  f=0.0011  <S**2>=0.000
      63 -> 70        -0.24768
      65 -> 69         0.37293
      65 -> 71        -0.18986
      65 -> 73         0.24455
      66 -> 70         0.39170
      66 -> 71         0.16777

 Excited State   7:      Singlet-A      5.7339 eV  216.23 nm  f=1.1016  <S**2>=0.000
      63 -> 74        -0.11683
      67 -> 69         0.51570
      67 -> 70        -0.14525
      67 -> 71         0.32345
      67 -> 73        -0.12439
      68 -> 71         0.11693
      68 -> 73         0.17619

 Excited State   8:      Singlet-A      5.7785 eV  214.56 nm  f=0.1723  <S**2>=0.000
      63 -> 71        -0.10593
      64 -> 69        -0.10344
      65 -> 70        -0.10615
      67 -> 72        -0.25953
      68 -> 74         0.60331

 Excited State   9:      Singlet-A      5.9334 eV  208.96 nm  f=0.0104  <S**2>=0.000
      68 -> 75         0.41485
      68 -> 76         0.42534
      68 -> 78         0.33412

 Excited State  10:      Singlet-A      6.1422 eV  201.86 nm  f=0.0057  <S**2>=0.000
      63 -> 69         0.19448
      63 -> 71        -0.10586
      63 -> 73         0.11121
      65 -> 70         0.44042
      65 -> 71         0.17380
      66 -> 69        -0.35224
      66 -> 70        -0.10422
      66 -> 71         0.15734
      66 -> 73        -0.19119

 Excited State  11:      Singlet-A      6.1728 eV  200.86 nm  f=0.0297  <S**2>=0.000
      63 -> 72         0.16069
      64 -> 72        -0.13827
      66 -> 72         0.14153
      67 -> 69        -0.29901
      67 -> 70        -0.20486
      67 -> 71         0.44576
      67 -> 73         0.28211

 Excited State  12:      Singlet-A      6.2820 eV  197.37 nm  f=0.4391  <S**2>=0.000
      63 -> 69         0.11058
      63 -> 71         0.14289
      64 -> 69         0.13003
      64 -> 71        -0.11624
      64 -> 73        -0.14066
      66 -> 71         0.15418
      67 -> 72         0.48456
      67 -> 74        -0.13138
      68 -> 74         0.31676

 Excited State  13:      Singlet-A      6.3091 eV  196.52 nm  f=0.3230  <S**2>=0.000
      63 -> 69         0.23442
      63 -> 73        -0.15695
      64 -> 69        -0.10381
      64 -> 70         0.11340
      64 -> 71        -0.26289
      65 -> 70         0.14979
      66 -> 69         0.31183
      66 -> 73        -0.11645
      67 -> 72        -0.25380
      67 -> 74        -0.24401
      68 -> 72         0.17790

 Excited State  14:      Singlet-A      6.5182 eV  190.21 nm  f=0.0024  <S**2>=0.000
      68 -> 75        -0.44222
      68 -> 76         0.48817
      68 -> 78        -0.12149

 Excited State  15:      Singlet-A      6.5938 eV  188.03 nm  f=0.0002  <S**2>=0.000
      67 -> 70         0.63423
      67 -> 71         0.26319
      68 -> 70        -0.10572

 Excited State  16:      Singlet-A      6.7888 eV  182.63 nm  f=0.4789  <S**2>=0.000
      63 -> 70         0.14386
      65 -> 69         0.46136
      65 -> 71        -0.16359
      65 -> 73         0.11523
      66 -> 70        -0.42951
      66 -> 71        -0.13874

 Excited State  17:      Singlet-A      6.7970 eV  182.41 nm  f=1.0487  <S**2>=0.000
      64 -> 69         0.23203
      64 -> 70        -0.13943
      64 -> 71         0.31379
      65 -> 70         0.33706
      65 -> 71         0.12460
      66 -> 69         0.36404
      66 -> 73         0.12732
      68 -> 74         0.10149

 Excited State  18:      Singlet-A      6.8975 eV  179.75 nm  f=0.0029  <S**2>=0.000
      63 -> 72         0.16842
      66 -> 72         0.20905
      67 -> 69         0.32866
      67 -> 71        -0.19653
      67 -> 73         0.50306

 Excited State  19:      Singlet-A      6.9385 eV  178.69 nm  f=0.0013  <S**2>=0.000
      64 -> 76         0.13617
      68 -> 77         0.67061

 Excited State  20:      Singlet-A      6.9571 eV  178.21 nm  f=0.0023  <S**2>=0.000
      63 -> 69         0.15982
      64 -> 69         0.48028
      64 -> 73        -0.15747
      65 -> 70        -0.24104
      66 -> 71         0.20170
      67 -> 72        -0.27786

 Excited State  21:      Singlet-A      7.0328 eV  176.29 nm  f=0.3830  <S**2>=0.000
      62 -> 73        -0.10852
      63 -> 72         0.12323
      64 -> 72         0.56024
      66 -> 72         0.26420
      67 -> 71         0.16885
      67 -> 73        -0.16792

 Excited State  22:      Singlet-A      7.0732 eV  175.29 nm  f=0.0014  <S**2>=0.000
      68 -> 75        -0.20855
      68 -> 76        -0.15328
      68 -> 78         0.45888
      68 -> 79        -0.35362
      68 -> 82         0.17930
      68 -> 83         0.11538

 Excited State  23:      Singlet-A      7.1513 eV  173.37 nm  f=0.0161  <S**2>=0.000
      65 -> 69         0.29478
      65 -> 70        -0.18737
      65 -> 71         0.56868
      66 -> 70         0.13178
      66 -> 71        -0.12080

 Excited State  24:      Singlet-A      7.2569 eV  170.85 nm  f=0.1127  <S**2>=0.000
      63 -> 70        -0.11995
      64 -> 69        -0.30172
      64 -> 71         0.10652
      64 -> 73         0.10504
      65 -> 70        -0.15257
      65 -> 71         0.12957
      66 -> 70        -0.19860
      66 -> 71         0.48327

 Excited State  25:      Singlet-A      7.2703 eV  170.53 nm  f=0.0041  <S**2>=0.000
      67 -> 76        -0.16630
      68 -> 75        -0.14209
      68 -> 76        -0.14425
      68 -> 78         0.15022
      68 -> 79         0.53271
      68 -> 82         0.15926
      68 -> 83         0.19971
      68 -> 88        -0.13118

 Excited State  26:      Singlet-A      7.3386 eV  168.95 nm  f=0.0299  <S**2>=0.000
      63 -> 69         0.33092
      63 -> 70         0.44958
      64 -> 71         0.22778
      65 -> 71        -0.10670
      66 -> 69         0.12369
      66 -> 70         0.19934

 Excited State  27:      Singlet-A      7.3584 eV  168.49 nm  f=0.0072  <S**2>=0.000
      63 -> 72         0.24264
      64 -> 72        -0.31136
      66 -> 72         0.45715
      67 -> 71        -0.12768
      67 -> 73        -0.30788

 Excited State  28:      Singlet-A      7.3627 eV  168.40 nm  f=0.0363  <S**2>=0.000
      63 -> 69         0.35578
      63 -> 70        -0.31391
      63 -> 71        -0.22959
      64 -> 70        -0.25743
      64 -> 71         0.13499
      65 -> 70        -0.10540
      66 -> 70        -0.12776
      66 -> 71        -0.22859
      67 -> 72         0.10712

 Excited State  29:      Singlet-A      7.4455 eV  166.52 nm  f=0.0000  <S**2>=0.000
      65 -> 72         0.68979

 Excited State  30:      Singlet-A      7.4799 eV  165.76 nm  f=0.0065  <S**2>=0.000
      63 -> 69         0.13463
      63 -> 70        -0.10443
      63 -> 71         0.50413
      64 -> 71         0.13671
      66 -> 69        -0.25170
      66 -> 70         0.10902
      66 -> 71        -0.14143
      66 -> 73         0.11794
      67 -> 74        -0.19279
      68 -> 80        -0.13120

 The electronic state is 1-A.
 Alpha  occ. eigenvalues --  -19.24558 -14.42542 -10.31122 -10.31119 -10.29789
 Alpha  occ. eigenvalues --  -10.29787 -10.28743 -10.25011 -10.24997 -10.24942
 Alpha  occ. eigenvalues --  -10.24915 -10.24858 -10.24544 -10.24543 -10.24456
 Alpha  occ. eigenvalues --  -10.24456 -10.24232 -10.24232 -10.24068 -10.24068
 Alpha  occ. eigenvalues --   -1.17798  -1.06286  -0.95941  -0.94954  -0.92598
 Alpha  occ. eigenvalues --   -0.85375  -0.84616  -0.84493  -0.83563  -0.81739
 Alpha  occ. eigenvalues --   -0.78540  -0.72728  -0.72722  -0.69131  -0.67879
 Alpha  occ. eigenvalues --   -0.66829  -0.65157  -0.63975  -0.61194  -0.57744
 Alpha  occ. eigenvalues --   -0.56741  -0.55302  -0.54337  -0.54156  -0.54065
 Alpha  occ. eigenvalues --   -0.52783  -0.50638  -0.50618  -0.50356  -0.50009
 Alpha  occ. eigenvalues --   -0.49314  -0.45905  -0.45447  -0.44944  -0.44721
 Alpha  occ. eigenvalues --   -0.44202  -0.42934  -0.42155  -0.42088  -0.41412
 Alpha  occ. eigenvalues --   -0.39723  -0.39118  -0.32753  -0.32149  -0.31767
 Alpha  occ. eigenvalues --   -0.31399  -0.29100  -0.23202
 Alpha virt. eigenvalues --    0.01727   0.02515   0.02749   0.03670   0.04383
 Alpha virt. eigenvalues --    0.07407   0.09300   0.09758   0.10859   0.11199
 Alpha virt. eigenvalues --    0.11807   0.12626   0.13590   0.14010   0.14497

 Mulliken charges:
               1
     1  C   -0.207739
     2  C   -0.201996
     3  C    0.076894
     4  C    0.210195
     5  C   -0.279745
     6  C   -0.161219
     7  C    0.210195
     8  C    0.076893
     9  C   -0.201995
    10  H    0.189127
    11  C   -0.207739
    12  C   -0.161218
    13  C   -0.279745
    14  H    0.189127
    15  H    0.159013
    16  H    0.163163
    17  N    0.002096
    18  C    0.020136
    19  C   -0.217343
    20  C   -0.200536
    21  C   -0.123210
    22  C   -0.129698
    23  H    0.164885
    24  C   -0.147624
    25  H    0.167583
    26  H    0.169045
    27  H    0.159013
    28  H    0.163163
    29  O   -0.263147
    30  H    0.163428
    31  H    0.163427
    32  H    0.168279
    33  H    0.167291
 Sum of Mulliken charges =  -0.00000

 Dipole moment (field-independent basis, Debye):
    X=              3.2451    Y=              0.0000    Z=             -0.2842  Tot=              3.2575
 Quadrupole moment (field-independent basis, Debye-Ang):
   XX=           -100.8048   YY=           -109.7898   ZZ=           -115.4179
   XY=             -0.0000   XZ=              0.2937   YZ=             -0.0002

 Normal termination of Gaussian 09 at Tue Nov 23 19:44:08 2021.
