 Gaussian 09, Revision E.01,

 ----------------------------------------------------------------------
 #p wB97XD/def2TZVP opt=tight freq=noraman nosymm int=(Acc2E=11,ultrafi
 ne) scrf=(SMD,solvent=n,n-DiMethylAcetamide)
 ----------------------------------------------------------------------

 -----
 Title
 -----
 Symbolic Z-matrix:
 Charge =  0 Multiplicity = 1

 SCF Done:  E(RwB97XD) =  -823.740991138     A.U. after   15 cycles
 SCF Done:  E(RwB97XD) =  -823.742483161     A.U. after   10 cycles
 SCF Done:  E(RwB97XD) =  -823.742591518     A.U. after   10 cycles
 SCF Done:  E(RwB97XD) =  -823.742609588     A.U. after   10 cycles
 SCF Done:  E(RwB97XD) =  -823.742622078     A.U. after   10 cycles
 SCF Done:  E(RwB97XD) =  -823.742643101     A.U. after   11 cycles
 SCF Done:  E(RwB97XD) =  -823.742660006     A.U. after   11 cycles
 SCF Done:  E(RwB97XD) =  -823.742663109     A.U. after   11 cycles
 SCF Done:  E(RwB97XD) =  -823.742663470     A.U. after    9 cycles
 SCF Done:  E(RwB97XD) =  -823.742663513     A.U. after    9 cycles
 SCF Done:  E(RwB97XD) =  -823.742663523     A.U. after    8 cycles
 SCF Done:  E(RwB97XD) =  -823.742663526     A.U. after    7 cycles
 SCF Done:  E(RwB97XD) =  -823.742663528     A.U. after    6 cycles
 SCF Done:  E(RwB97XD) =  -823.742663528     A.U. after    6 cycles
 SCF Done:  E(RwB97XD) =  -823.742663528     A.U. after    3 cycles
 SCF Done:  E(RwB97XD) =  -823.742663528     A.U. after    4 cycles
 SCF Done:  E(RwB97XD) =  -823.742663528     A.U. after    4 cycles
 Optimization completed.
    -- Stationary point found.
 Normal termination of Gaussian 09 at Tue Nov 23 23:23:32 2021.

 ---------------------------------------------------------------------
 #P Geom=AllCheck Guess=TCheck SCRF=Check GenChk RwB97XD/def2TZVP Freq
 ---------------------------------------------------------------------

 Structure from the checkpoint file:  "cp.chk"
 -----
 Title
 -----
 Charge =  0 Multiplicity = 1

 SCF Done:  E(RwB97XD) =  -823.742663528     A.U. after    1 cycles

  Exact polarizability: 360.710  -0.001 375.023  -0.535   0.009 221.616
 Approx polarizability: 276.244   0.001 264.763   0.440   0.005 183.973

                      1                      2                      3
                      A                      A                      A
 Frequencies --     17.7677                34.8900                40.8211
 Red. masses --      6.3443                 4.5983                 3.7839
 Frc consts  --      0.0012                 0.0033                 0.0037
 IR Inten    --      1.5791                 0.2306                 0.0068

                      4                      5                      6
                      A                      A                      A
 Frequencies --     66.7801               121.3521               190.5709
 Red. masses --      4.9812                 3.7953                 5.2211
 Frc consts  --      0.0131                 0.0329                 0.1117
 IR Inten    --      0.3630                 0.0064                 0.2540

                      7                      8                      9
                      A                      A                      A
 Frequencies --    212.4673               264.9294               272.8829
 Red. masses --      5.5208                 4.2239                 4.8856
 Frc consts  --      0.1468                 0.1747                 0.2144
 IR Inten    --      0.2915                 0.5870                 0.3268

                     10                     11                     12
                      A                      A                      A
 Frequencies --    278.0141               329.7667               408.5723
 Red. masses --      5.4195                 5.7949                 6.1898
 Frc consts  --      0.2468                 0.3713                 0.6088
 IR Inten    --      2.5770                 6.6976                 0.3547

                     13                     14                     15
                      A                      A                      A
 Frequencies --    426.3466               429.2336               454.6974
 Red. masses --      2.8503                 5.2283                 4.8880
 Frc consts  --      0.3053                 0.5675                 0.5954
 IR Inten    --      0.0040                 8.2934                 0.4062

                     16                     17                     18
                      A                      A                      A
 Frequencies --    465.8010               481.1401               518.8645
 Red. masses --      3.1719                 3.6074                 4.5400
 Frc consts  --      0.4055                 0.4920                 0.7201
 IR Inten    --      0.0003                 7.5412                13.0402

                     19                     20                     21
                      A                      A                      A
 Frequencies --    570.6031               578.4608               604.7641
 Red. masses --      3.9649                 4.2480                 5.0987
 Frc consts  --      0.7606                 0.8375                 1.0987
 IR Inten    --      0.0586                 0.6148                22.7801

                     22                     23                     24
                      A                      A                      A
 Frequencies --    615.5242               634.6572               636.9745
 Red. masses --      7.9413                 6.0227                 6.4561
 Frc consts  --      1.7727                 1.4293                 1.5434
 IR Inten    --     10.0508                31.6885                 0.4049

                     25                     26                     27
                      A                      A                      A
 Frequencies --    675.4285               717.5175               725.7623
 Red. masses --      6.3215                 6.0368                 1.6151
 Frc consts  --      1.6992                 1.8311                 0.5012
 IR Inten    --     10.8075                 0.2437               102.9862

                     28                     29                     30
                      A                      A                      A
 Frequencies --    729.8055               747.5838               768.0401
 Red. masses --      4.7178                 4.2714                 1.2449
 Frc consts  --      1.4805                 1.4065                 0.4327
 IR Inten    --      3.3072                 1.0119               314.8881

                     31                     32                     33
                      A                      A                      A
 Frequencies --    769.6402               797.3462               817.7202
 Red. masses --      1.2369                 2.2110                 6.3335
 Frc consts  --      0.4317                 0.8282                 2.4952
 IR Inten    --      1.9605                12.5454                11.2289

                     34                     35                     36
                      A                      A                      A
 Frequencies --    874.0847               877.0498               877.5634
 Red. masses --      1.3911                 1.4517                 1.2492
 Frc consts  --      0.6262                 0.6579                 0.5668
 IR Inten    --      0.0099                 0.2654                 0.0018

                     37                     38                     39
                      A                      A                      A
 Frequencies --    894.4090               934.4340               954.2205
 Red. masses --      5.5164                 2.5495                 6.1285
 Frc consts  --      2.6000                 1.3116                 3.2878
 IR Inten    --     10.6068                 4.0406                 2.5011

                     40                     41                     42
                      A                      A                      A
 Frequencies --    955.9735               957.5507               985.2087
 Red. masses --      1.3607                 1.3745                 2.1980
 Frc consts  --      0.7326                 0.7425                 1.2570
 IR Inten    --      0.0059                19.0968                 5.6506

                     43                     44                     45
                      A                      A                      A
 Frequencies --    992.5765               992.7734              1019.7429
 Red. masses --      1.2650                 1.2665                 1.3799
 Frc consts  --      0.7343                 0.7355                 0.8454
 IR Inten    --      0.0046                 0.4319                 0.0046

                     46                     47                     48
                      A                      A                      A
 Frequencies --   1029.5228              1039.8446              1057.7272
 Red. masses --      6.2624                 1.3369                 2.0167
 Frc consts  --      3.9108                 0.8517                 1.3294
 IR Inten    --      2.1320                 0.0035                14.4973

                     49                     50                     51
                      A                      A                      A
 Frequencies --   1073.2103              1079.4229              1105.6992
 Red. masses --      2.1212                 1.7834                 1.4743
 Frc consts  --      1.4395                 1.2243                 1.0620
 IR Inten    --      5.6991                58.6714                19.2639

                     52                     53                     54
                      A                      A                      A
 Frequencies --   1127.9797              1147.5187              1175.9664
 Red. masses --      1.8466                 1.4798                 1.1249
 Frc consts  --      1.3843                 1.1481                 0.9165
 IR Inten    --      2.6245                31.5705                 3.6211

                     55                     56                     57
                      A                      A                      A
 Frequencies --   1177.1127              1178.7781              1191.6423
 Red. masses --      1.1199                 1.1305                 1.1230
 Frc consts  --      0.9143                 0.9255                 0.9395
 IR Inten    --      0.5715                 0.5974                 0.1451

                     58                     59                     60
                      A                      A                      A
 Frequencies --   1217.4780              1245.0988              1249.5026
 Red. masses --      3.4328                 2.2381                 3.3237
 Frc consts  --      2.9979                 2.0443                 3.0574
 IR Inten    --      0.1066                13.8153                20.8727

                     61                     62                     63
                      A                      A                      A
 Frequencies --   1311.6221              1316.6418              1318.2927
 Red. masses --      3.5384                 3.9982                 1.6229
 Frc consts  --      3.5866                 4.0837                 1.6617
 IR Inten    --    687.3111                 6.6438                15.7769

                     64                     65                     66
                      A                      A                      A
 Frequencies --   1321.4240              1352.3331              1355.6858
 Red. masses --      2.8752                 1.5809                 6.5915
 Frc consts  --      2.9580                 1.7034                 7.1376
 IR Inten    --     27.0027                 0.3893                 0.0014

                     67                     68                     69
                      A                      A                      A
 Frequencies --   1373.8004              1378.7060              1493.4917
 Red. masses --      3.1948                 3.5124                 2.2845
 Frc consts  --      3.5526                 3.9336                 3.0022
 IR Inten    --    131.2116               835.7225                 6.5052

                     70                     71                     72
                      A                      A                      A
 Frequencies --   1494.3977              1508.8312              1535.4553
 Red. masses --      2.6373                 2.6535                 3.1879
 Frc consts  --      3.4700                 3.5591                 4.4282
 IR Inten    --      2.3984                29.6239              1433.1087

                     73                     74                     75
                      A                      A                      A
 Frequencies --   1543.5687              1568.4143              1640.5281
 Red. masses --      2.5172                 3.3810                 6.2958
 Frc consts  --      3.5336                 4.9002                 9.9831
 IR Inten    --     64.8097                61.9264                 2.0794

                     76                     77                     78
                      A                      A                      A
 Frequencies --   1658.3849              1659.0409              1670.1898
 Red. masses --      6.2381                 6.8228                 6.1811
 Frc consts  --     10.1081                11.0644                10.1589
 IR Inten    --      5.6531                68.9562                55.2030

                     79                     80                     81
                      A                      A                      A
 Frequencies --   1679.7466              1699.4773              3198.4723
 Red. masses --      7.7423                 7.5125                 1.0868
 Frc consts  --     12.8709                12.7840                 6.5504
 IR Inten    --      0.1914                30.1584                 0.3595

                     82                     83                     84
                      A                      A                      A
 Frequencies --   3203.0417              3203.2434              3205.2681
 Red. masses --      1.0868                 1.0869                 1.0893
 Frc consts  --      6.5691                 6.5709                 6.5938
 IR Inten    --      1.3213                 0.8171                 1.3519

                     85                     86                     87
                      A                      A                      A
 Frequencies --   3211.3952              3211.9070              3212.0028
 Red. masses --      1.0929                 1.0912                 1.0914
 Frc consts  --      6.6406                 6.6328                 6.6339
 IR Inten    --     14.6477                20.8995                 2.8674

                     88                     89                     90
                      A                      A                      A
 Frequencies --   3218.4530              3222.9719              3223.1860
 Red. masses --      1.0964                 1.0944                 1.0946
 Frc consts  --      6.6914                 6.6977                 6.6998
 IR Inten    --     17.3254                 8.9074                13.6675

                     91                     92                     93
                      A                      A                      A
 Frequencies --   3225.1095              3229.5952              3229.9507
 Red. masses --      1.0994                 1.0967                 1.0966
 Frc consts  --      6.7374                 6.7398                 6.7405
 IR Inten    --      6.2718                 7.6564                 0.6302

 - Thermochemistry -
 -------------------
 Temperature   298.150 Kelvin.  Pressure   1.00000 Atm.
 Atom     1 has atomic number  6 and mass  12.00000

 Molecular mass:   259.09971 amu.
 Principal axes and moments of inertia in atomic units:
                           1         2         3
     Eigenvalues --  4127.688935002.231428490.30701
           X            0.99998  -0.00005   0.00614
           Y            0.00005   1.00000  -0.00005
           Z           -0.00614   0.00005   0.99998
 This molecule is an asymmetric top.
 Rotational symmetry number  1.
 Warning -- assumption of classical behavior for rotation
           may cause significant error
 Rotational temperatures (Kelvin)      0.02098     0.01732     0.01020
 Rotational constants (GHZ):           0.43723     0.36079     0.21256
 Zero-point vibrational energy     690792.3 (Joules/Mol)
                                  165.10331 (Kcal/Mol)
 Warning -- explicit consideration of  22 degrees of freedom as
           vibrations may cause significant error
 Vibrational temperatures:     25.56    50.20    58.73    96.08   174.60
          (Kelvin)            274.19   305.69   381.17   392.62   400.00
                              474.46   587.84   613.42   617.57   654.21
                              670.18   692.25   746.53   820.97   832.28
                              870.12   885.60   913.13   916.46   971.79
                             1032.35  1044.21  1050.03  1075.60  1105.04
                             1107.34  1147.20  1176.52  1257.61  1261.88
                             1262.62  1286.85  1344.44  1372.91  1375.43
                             1377.70  1417.49  1428.09  1428.38  1467.18
                             1481.25  1496.10  1521.83  1544.11  1553.05
                             1590.85  1622.91  1651.02  1691.95  1693.60
                             1696.00  1714.51  1751.68  1791.42  1797.75
                             1887.13  1894.35  1896.73  1901.23  1945.70
                             1950.53  1976.59  1983.65  2148.80  2150.10
                             2170.87  2209.18  2220.85  2256.60  2360.35
                             2386.04  2386.99  2403.03  2416.78  2445.17
                             4601.88  4608.46  4608.75  4611.66  4620.48
                             4621.21  4621.35  4630.63  4637.13  4637.44
                             4640.21  4646.66  4647.17

 Zero-point correction=                           0.263109 (Hartree/Particle)
 Thermal correction to Energy=                    0.277565
 Thermal correction to Enthalpy=                  0.278509
 Thermal correction to Gibbs Free Energy=         0.219457
 Sum of electronic and zero-point Energies=           -823.479555
 Sum of electronic and thermal Energies=              -823.465098
 Sum of electronic and thermal Enthalpies=            -823.464154
 Sum of electronic and thermal Free Energies=         -823.523207

                     E (Thermal)             CV                S
                      KCal/Mol        Cal/Mol-Kelvin    Cal/Mol-Kelvin
 Total                  174.175             59.344            124.287
 Electronic               0.000              0.000              0.000
 Translational            0.889              2.981             42.556
 Rotational               0.889              2.981             33.527
 Vibrational            172.397             53.382             48.204
 Vibration     1          0.593              1.986              6.869
 Vibration     2          0.594              1.983              5.530
 Vibration     3          0.594              1.981              5.219
 Vibration     4          0.598              1.970              4.246
 Vibration     5          0.609              1.931              3.079
 Vibration     6          0.634              1.853              2.222
 Vibration     7          0.644              1.822              2.022
 Vibration     8          0.671              1.737              1.629
 Vibration     9          0.676              1.723              1.578
 Vibration    10          0.679              1.714              1.546
 Vibration    11          0.713              1.616              1.261
 Vibration    12          0.773              1.452              0.932
 Vibration    13          0.788              1.413              0.871
 Vibration    14          0.791              1.407              0.861
 Vibration    15          0.813              1.351              0.782
 Vibration    16          0.823              1.326              0.749
 Vibration    17          0.837              1.292              0.707
 Vibration    18          0.874              1.208              0.613
 Vibration    19          0.927              1.095              0.503
 Vibration    20          0.935              1.078              0.488
 Vibration    21          0.963              1.022              0.442
 Vibration    22          0.975              0.999              0.424

 Optimization completed.
    -- Stationary point found.
 Normal termination of Gaussian 09 at Wed Nov 24 02:09:47 2021.
 Gaussian 09:  ES64L-G09RevE.01 30-Nov-2015

 ----------------------------------------------------------------------
 #p wB97XD chkbasis geom=allcheck Guess=Read int=ultrafine scrf=(SMD,so
 lvent=n,n-DiMethylAcetamide) td=(NStates=30)
 ----------------------------------------------------------------------

 Structure from the checkpoint file:  "cp.chk"
 -----
 Title
 -----
 Charge =  0 Multiplicity = 1

                         Standard orientation:
 ---------------------------------------------------------------------
 Center     Atomic      Atomic             Coordinates (Angstroms)
 Number     Number       Type             X           Y           Z
 ---------------------------------------------------------------------
      1          6           0        0.657753   -3.613222   -0.116054
      2          6           0       -0.084613   -2.439132   -0.054451
      3          6           0        0.545118   -1.203409    0.037369
      4          6           0        1.943438   -1.176341    0.063989
      5          6           0        2.680845   -2.338495   -0.006213
      6          6           0        2.039138   -3.569359   -0.093876
      7          6           0        1.943432    1.176350    0.063986
      8          6           0        0.545112    1.203411    0.037365
      9          6           0       -0.084626    2.439129   -0.054461
     10          1           0       -1.165031    2.486219   -0.072657
     11          6           0        0.657734    3.613224   -0.116067
     12          6           0        2.039118    3.569368   -0.093888
     13          6           0        2.680832    2.338509   -0.006221
     14          1           0       -1.165018   -2.486228   -0.072646
     15          1           0        3.761363   -2.269149    0.016463
     16          1           0        0.139991    4.561748   -0.182662
     17          7           0       -0.158852   -0.000001    0.113796
     18          6           0       -1.584488   -0.000004    0.060156
     19          6           0       -2.233543   -0.000027   -1.166962
     20          6           0       -2.312472    0.000018    1.240504
     21          6           0       -3.619245   -0.000031   -1.210780
     22          6           0       -3.699021    0.000015    1.192981
     23          1           0       -1.787919    0.000037    2.188120
     24          6           0       -4.352237   -0.000009   -0.031432
     25          1           0       -4.269080    0.000033    2.113668
     26          1           0       -5.434672   -0.000011   -0.067390
     27          1           0        3.761351    2.269168    0.016455
     28          1           0        0.140016   -4.561750   -0.182647
     29          8           0        2.635881    0.000007    0.187781
     30          1           0        2.623460    4.479002   -0.142650
     31          1           0        2.623483   -4.478990   -0.142635
     32          1           0       -4.127661   -0.000050   -2.166903
     33          1           0       -1.649029   -0.000044   -2.079006
 ---------------------------------------------------------------------

 SCF Done:  E(RwB97XD) =  -823.742664172     A.U. after    4 cycles

 Excitation energies and oscillator strengths:

 Excited State   1:      Singlet-A      3.9424 eV  314.49 nm  f=0.0338  <S**2>=0.000
      68 -> 69         0.58872
      68 -> 70        -0.16426
      68 -> 71         0.30203
      68 -> 73        -0.13927
 This state for optimization and/or second-order correction.
 Total Energy, E(TD-HF/TD-KS) =  -823.597783112
 Copying the excited state density for this state as the 1-particle RhoCI density.

 Excited State   2:      Singlet-A      4.3251 eV  286.66 nm  f=0.2480  <S**2>=0.000
      64 -> 72        -0.10727
      67 -> 69        -0.14017
      68 -> 69        -0.26228
      68 -> 70        -0.30114
      68 -> 71         0.46786
      68 -> 73         0.26897

 Excited State   3:      Singlet-A      4.5185 eV  274.40 nm  f=0.0017  <S**2>=0.000
      63 -> 69        -0.10265
      64 -> 71        -0.10218
      67 -> 74         0.11804
      68 -> 72         0.66490

 Excited State   4:      Singlet-A      4.5707 eV  271.26 nm  f=0.0038  <S**2>=0.000
      67 -> 70         0.11224
      68 -> 70         0.58673
      68 -> 71         0.34139

 Excited State   5:      Singlet-A      5.0550 eV  245.27 nm  f=0.0286  <S**2>=0.000
      67 -> 71        -0.13960
      68 -> 69         0.26181
      68 -> 71        -0.19967
      68 -> 73         0.58565

 Excited State   6:      Singlet-A      5.5088 eV  225.07 nm  f=0.0011  <S**2>=0.000
      63 -> 70        -0.24361
      63 -> 71        -0.11328
      65 -> 69         0.36010
      65 -> 70         0.13391
      65 -> 71        -0.18100
      65 -> 73         0.25276
      66 -> 70         0.37082
      66 -> 71         0.20377

 Excited State   7:      Singlet-A      5.7589 eV  215.29 nm  f=1.1382  <S**2>=0.000
      63 -> 74        -0.12834
      67 -> 69         0.51274
      67 -> 70        -0.16590
      67 -> 71         0.30662
      67 -> 73        -0.12884
      68 -> 71         0.11601
      68 -> 73         0.17842

 Excited State   8:      Singlet-A      5.8195 eV  213.05 nm  f=0.1715  <S**2>=0.000
      63 -> 71        -0.11488
      64 -> 69         0.12452
      65 -> 70        -0.10527
      66 -> 71        -0.10029
      67 -> 72        -0.26642
      68 -> 74         0.58701

 Excited State   9:      Singlet-A      6.1454 eV  201.75 nm  f=0.0075  <S**2>=0.000
      65 -> 70         0.23731
      65 -> 71         0.11239
      66 -> 69        -0.21644
      68 -> 75         0.36164
      68 -> 76         0.34741
      68 -> 78         0.25262

 Excited State  10:      Singlet-A      6.1614 eV  201.23 nm  f=0.0051  <S**2>=0.000
      63 -> 69         0.19127
      65 -> 70         0.35670
      65 -> 71         0.18581
      66 -> 69        -0.24295
      66 -> 70        -0.11236
      66 -> 71         0.12062
      66 -> 73        -0.18199
      68 -> 75        -0.24080
      68 -> 76        -0.23702
      68 -> 78        -0.16834

 Excited State  11:      Singlet-A      6.2077 eV  199.73 nm  f=0.0386  <S**2>=0.000
      63 -> 72         0.18700
      64 -> 72         0.15026
      66 -> 72         0.16133
      67 -> 69        -0.26435
      67 -> 70        -0.22023
      67 -> 71         0.41214
      67 -> 73         0.31853

 Excited State  12:      Singlet-A      6.3274 eV  195.95 nm  f=0.4584  <S**2>=0.000
      63 -> 69         0.12795
      63 -> 71         0.14374
      64 -> 71         0.16396
      64 -> 73         0.14498
      66 -> 69         0.10718
      66 -> 71         0.14254
      67 -> 72         0.44306
      67 -> 74        -0.16733
      68 -> 72         0.12438
      68 -> 74         0.32037

 Excited State  13:      Singlet-A      6.3451 eV  195.40 nm  f=0.4677  <S**2>=0.000
      63 -> 69         0.20446
      63 -> 73        -0.17796
      64 -> 69         0.12961
      64 -> 70        -0.11111
      64 -> 71         0.21196
      65 -> 70         0.13556
      66 -> 69         0.31503
      67 -> 72        -0.29779
      67 -> 74        -0.23418
      68 -> 72         0.17418
      68 -> 74        -0.11317

 Excited State  14:      Singlet-A      6.7859 eV  182.71 nm  f=0.0002  <S**2>=0.000
      67 -> 70         0.61223
      67 -> 71         0.29477
      68 -> 70        -0.11778

 Excited State  15:      Singlet-A      6.8068 eV  182.15 nm  f=0.5044  <S**2>=0.000
      63 -> 70         0.16953
      65 -> 69         0.42895
      65 -> 71        -0.20826
      65 -> 73         0.15309
      66 -> 70        -0.40391
      66 -> 71        -0.16147

 Excited State  16:      Singlet-A      6.8412 eV  181.23 nm  f=0.6943  <S**2>=0.000
      63 -> 69        -0.10602
      64 -> 69        -0.15401
      64 -> 70         0.11292
      64 -> 71        -0.23029
      65 -> 70         0.30345
      65 -> 71         0.14193
      66 -> 69         0.29354
      66 -> 73         0.13446
      68 -> 74         0.11409
      68 -> 75         0.21323
      68 -> 76        -0.26436

 Excited State  17:      Singlet-A      6.8530 eV  180.92 nm  f=0.2559  <S**2>=0.000
      64 -> 71        -0.14963
      65 -> 70         0.19864
      66 -> 69         0.17439
      68 -> 75        -0.35849
      68 -> 76         0.39727
      68 -> 78        -0.11957
      68 -> 88        -0.10188

 Excited State  18:      Singlet-A      7.0298 eV  176.37 nm  f=0.0229  <S**2>=0.000
      63 -> 69        -0.19981
      64 -> 69         0.48966
      64 -> 71         0.11768
      64 -> 73        -0.15317
      65 -> 70         0.18859
      66 -> 71        -0.18081
      66 -> 73         0.10682
      67 -> 72         0.25394

 Excited State  19:      Singlet-A      7.0722 eV  175.31 nm  f=0.0507  <S**2>=0.000
      62 -> 71        -0.10799
      63 -> 72         0.20510
      64 -> 72        -0.25828
      66 -> 72         0.27753
      67 -> 69         0.33277
      67 -> 71        -0.14529
      67 -> 73         0.36354
      68 -> 73        -0.11694

 Excited State  20:      Singlet-A      7.1363 eV  173.74 nm  f=0.3203  <S**2>=0.000
      62 -> 73         0.12431
      64 -> 72         0.49800
      66 -> 72        -0.14012
      67 -> 69         0.11440
      67 -> 71        -0.25034
      67 -> 73         0.32822

 Excited State  21:      Singlet-A      7.2910 eV  170.05 nm  f=0.0123  <S**2>=0.000
      65 -> 69         0.31804
      65 -> 70        -0.21441
      65 -> 71         0.52561
      66 -> 70         0.13027
      66 -> 71        -0.15925

 Excited State  22:      Singlet-A      7.3612 eV  168.43 nm  f=0.0691  <S**2>=0.000
      62 -> 72        -0.10720
      63 -> 69         0.10835
      64 -> 69         0.29463
      64 -> 70         0.13747
      64 -> 71        -0.20939
      64 -> 73        -0.19110
      65 -> 70        -0.18417
      65 -> 71         0.12656
      66 -> 70        -0.17378
      66 -> 71         0.38365

 Excited State  23:      Singlet-A      7.3867 eV  167.85 nm  f=0.0001  <S**2>=0.000
      64 -> 76         0.16200
      68 -> 77         0.65361

 Excited State  24:      Singlet-A      7.4851 eV  165.64 nm  f=0.0561  <S**2>=0.000
      63 -> 69         0.32725
      63 -> 70         0.39288
      64 -> 71        -0.20397
      66 -> 69         0.10379
      66 -> 70         0.24281
      67 -> 72         0.16335
      68 -> 78         0.12072

 Excited State  25:      Singlet-A      7.5282 eV  164.69 nm  f=0.0476  <S**2>=0.000
      63 -> 69        -0.27858
      63 -> 70         0.31602
      63 -> 71         0.25351
      64 -> 70        -0.21771
      66 -> 71         0.31298
      66 -> 73         0.10570
      67 -> 72        -0.13898

 Excited State  26:      Singlet-A      7.5358 eV  164.53 nm  f=0.0025  <S**2>=0.000
      63 -> 72         0.25317
      64 -> 72         0.28681
      66 -> 72         0.43809
      67 -> 71        -0.12811
      67 -> 73        -0.32839

 Excited State  27:      Singlet-A      7.5643 eV  163.91 nm  f=0.0028  <S**2>=0.000
      63 -> 70        -0.19733
      67 -> 75        -0.12227
      67 -> 76        -0.11953
      68 -> 75        -0.19901
      68 -> 76        -0.18018
      68 -> 78         0.40529
      68 -> 82         0.27866
      68 -> 83        -0.17271
      68 -> 88        -0.13574

 Excited State  28:      Singlet-A      7.6167 eV  162.78 nm  f=0.0006  <S**2>=0.000
      63 -> 70         0.10303
      64 -> 70         0.16179
      67 -> 76        -0.16201
      68 -> 79         0.60566

 Excited State  29:      Singlet-A      7.6238 eV  162.63 nm  f=0.0000  <S**2>=0.000
      65 -> 72         0.68021

 Excited State  30:      Singlet-A      7.6432 eV  162.22 nm  f=0.0056  <S**2>=0.000
      63 -> 69         0.12784
      63 -> 70        -0.15398
      63 -> 71         0.47416
      64 -> 71        -0.12104
      66 -> 69        -0.29079
      66 -> 70         0.14460
      66 -> 71        -0.19215
      67 -> 74        -0.20869

 The electronic state is 1-A.
 Alpha  occ. eigenvalues --  -19.29993 -14.47410 -10.35245 -10.35243 -10.33963
 Alpha  occ. eigenvalues --  -10.33961 -10.32978 -10.29162 -10.29144 -10.29081
 Alpha  occ. eigenvalues --  -10.29055 -10.28990 -10.28652 -10.28652 -10.28612
 Alpha  occ. eigenvalues --  -10.28612 -10.28356 -10.28356 -10.28194 -10.28194
 Alpha  occ. eigenvalues --   -1.20071  -1.08259  -0.97687  -0.96702  -0.94348
 Alpha  occ. eigenvalues --   -0.87258  -0.86488  -0.86363  -0.85421  -0.83607
 Alpha  occ. eigenvalues --   -0.80435  -0.74681  -0.74572  -0.70982  -0.69749
 Alpha  occ. eigenvalues --   -0.68715  -0.67025  -0.65862  -0.63022  -0.59585
 Alpha  occ. eigenvalues --   -0.58721  -0.57087  -0.56262  -0.55927  -0.55907
 Alpha  occ. eigenvalues --   -0.54600  -0.52500  -0.52369  -0.52166  -0.51830
 Alpha  occ. eigenvalues --   -0.51103  -0.47799  -0.47362  -0.46851  -0.46640
 Alpha  occ. eigenvalues --   -0.46057  -0.44746  -0.43924  -0.43897  -0.43274
 Alpha  occ. eigenvalues --   -0.41511  -0.41097  -0.34907  -0.34281  -0.33885
 Alpha  occ. eigenvalues --   -0.33541  -0.31181  -0.25235
 Alpha virt. eigenvalues --    0.03917   0.04734   0.04943   0.05976   0.06557
 Alpha virt. eigenvalues --    0.09691   0.12926   0.13086   0.14620   0.14896
 Alpha virt. eigenvalues --    0.15459   0.16573   0.17385   0.17777   0.18275

 Mulliken charges:
               1
     1  C   -0.201711
     2  C   -0.242698
     3  C    0.123033
     4  C    0.227045
     5  C   -0.302977
     6  C   -0.149471
     7  C    0.227045
     8  C    0.123032
     9  C   -0.242696
    10  H    0.184717
    11  C   -0.201712
    12  C   -0.149470
    13  C   -0.302978
    14  H    0.184717
    15  H    0.157656
    16  H    0.159679
    17  N    0.057642
    18  C    0.046167
    19  C   -0.271799
    20  C   -0.236516
    21  C   -0.099489
    22  C   -0.104934
    23  H    0.159912
    24  C   -0.144310
    25  H    0.164039
    26  H    0.166012
    27  H    0.157656
    28  H    0.159679
    29  O   -0.298815
    30  H    0.161195
    31  H    0.161195
    32  H    0.164926
    33  H    0.164229
 Sum of Mulliken charges =  -0.00000

 Dipole moment (field-independent basis, Debye):
    X=             -3.1739    Y=             -0.0000    Z=             -0.2689  Tot=              3.1853
 Quadrupole moment (field-independent basis, Debye-Ang):
   XX=            -98.5709   YY=           -108.1952   ZZ=           -114.2915
   XY=              0.0000   XZ=             -0.2884   YZ=              0.0002

 1\1\GINC-CN027\SP\RwB97XD TD-FC\Gen\C18H13N1O1\PNG4RJV\24-Nov-2021\0\\
 #p wB97XD chkbasis geom=allcheck Guess=Read int=ultrafine scrf=(SMD,so
 lvent=n,n-DiMethylAcetamide) td=(NStates=30)\\Title\\0,1\C,0,0.6553880
 268,-3.6131821332,-0.1453438438\C,0,-0.0866080951,-2.4391326025,-0.078
 7100881\C,0,0.5436620384,-1.2033834286,0.0089567707\C,0,1.9421275855,-
 1.1762457393,0.0262155524\C,0,2.6791059071,-2.3383596528,-0.0489834714
 \C,0,2.0368876068,-3.5692504214,-0.1324129025\C,0,1.9420037377,1.17644
 50828,0.0263351767\C,0,0.5435353955,1.2034369002,0.0090789783\C,0,-0.0

 Normal termination of Gaussian 09 at Wed Nov 24 03:46:48 2021.
