                         Program Version 5.0.2 -  RELEASE  -
|  1> %maxcore 3200
|  2> %pal
|  3>  nprocs= 8
|  4> end
|  5> ! RI-B2PLYP D3BJ def2-TZVP def2/J def2-TZVP/C RIJCOSX CPCM TightSCF
|  6> %TDDFT DCORR 4
|  7>    NROOTS   30
|  8>
|  9>    TDA      FALSE
| 10> END
| 11>
| 12> %CPCM
| 13>    SMD          TRUE
| 14>    SMDsolvent   "N,N-DIMETHYLACETAMIDE"
| 15> END
| 16>
| 17>
| 18> * xyz 0 1
| 19> C                   0.65203800    3.62186300   -0.00084300
| 20> C                  -0.08658100    2.44394500   -0.00194200
| 21> C                   0.54696400    1.20455600   -0.00146800
| 22> C                   1.94708500    1.17979400    0.00016300
| 23> C                   2.68011500    2.34800100    0.00134900
| 24> C                   2.03414100    3.58044100    0.00088400
| 25> C                   1.94710100   -1.17977100    0.00014300
| 26> C                   0.54698100   -1.20455200   -0.00149400
| 27> C                  -0.08654800   -2.44394900   -0.00201200
| 28> H                  -1.16781900   -2.48300400   -0.00329500
| 29> C                   0.65208600   -3.62185800   -0.00093500
| 30> C                   2.03418800   -3.58041700    0.00081000
| 31> C                   2.68014600   -2.34796800    0.00130700
| 32> H                  -1.16785300    2.48298700   -0.00320800
| 33> H                   3.76040800    2.27808100    0.00268500
| 34> H                   0.13153200   -4.57070900   -0.00139800
| 35> N                  -0.15499900   -0.00000300   -0.00255200
| 36> C                  -1.58361100   -0.00001100   -0.00094300
| 37> C                  -2.27146300   -0.00016700    1.20521900
| 38> C                  -2.27450600    0.00013900   -1.20534000
| 39> C                  -3.65828800   -0.00017400    1.20409400
| 40> C                  -3.66135100    0.00013700   -1.20063600
| 41> H                  -1.71972200    0.00025900   -2.13569300
| 42> C                  -4.35311100   -0.00002100    0.00260400
| 43> H                  -4.20221700    0.00025600   -2.13846200
| 44> H                  -5.43576100   -0.00002400    0.00397300
| 45> H                   3.76043800   -2.27803500    0.00264900
| 46> H                   0.13147200    4.57070800   -0.00127400
| 47> O                   2.65010600    0.00001600    0.00064500
| 48> H                   2.61622500   -4.49228100    0.00170700
| 49> H                   2.61616500    4.49231300    0.00179600
| 50> H                  -4.19675100   -0.00029600    2.14330400
| 51> H                  -1.71429800   -0.00028300    2.13415300
| 52> *
| 53>
| 54>
| 55>                          ****END OF INPUT****

CARTESIAN COORDINATES (ANGSTROEM)
---------------------------------
  C      0.652038    3.621863   -0.000843
  C     -0.086581    2.443945   -0.001942
  C      0.546964    1.204556   -0.001468
  C      1.947085    1.179794    0.000163
  C      2.680115    2.348001    0.001349
  C      2.034141    3.580441    0.000884
  C      1.947101   -1.179771    0.000143
  C      0.546981   -1.204552   -0.001494
  C     -0.086548   -2.443949   -0.002012
  H     -1.167819   -2.483004   -0.003295
  C      0.652086   -3.621858   -0.000935
  C      2.034188   -3.580417    0.000810
  C      2.680146   -2.347968    0.001307
  H     -1.167853    2.482987   -0.003208
  H      3.760408    2.278081    0.002685
  H      0.131532   -4.570709   -0.001398
  N     -0.154999   -0.000003   -0.002552
  C     -1.583611   -0.000011   -0.000943
  C     -2.271463   -0.000167    1.205219
  C     -2.274506    0.000139   -1.205340
  C     -3.658288   -0.000174    1.204094
  C     -3.661351    0.000137   -1.200636
  H     -1.719722    0.000259   -2.135693
  C     -4.353111   -0.000021    0.002604
  H     -4.202217    0.000256   -2.138462
  H     -5.435761   -0.000024    0.003973
  H      3.760438   -2.278035    0.002649
  H      0.131472    4.570708   -0.001274
  O      2.650106    0.000016    0.000645
  H      2.616225   -4.492281    0.001707
  H      2.616165    4.492313    0.001796
  H     -4.196751   -0.000296    2.143304
  H     -1.714298   -0.000283    2.134153

 Total Charge           Charge          ....    0
 Multiplicity           Mult            ....    1
 Number of Electrons    NEL             ....  136
 Basis Dimension        Dim             ....  698

ORBITAL ENERGIES
----------------

  NO   OCC          E(Eh)            E(eV)
   0   2.0000     -19.771714      -538.0157
   1   2.0000     -14.873335      -404.7240
   2   2.0000     -10.683037      -290.7002
   3   2.0000     -10.683017      -290.6997
   4   2.0000     -10.669809      -290.3403
   5   2.0000     -10.669792      -290.3398
   6   2.0000     -10.658239      -290.0254
   7   2.0000     -10.620248      -288.9916
   8   2.0000     -10.620224      -288.9910
   9   2.0000     -10.619476      -288.9706
  10   2.0000     -10.619012      -288.9580
  11   2.0000     -10.618342      -288.9398
  12   2.0000     -10.616165      -288.8805
  13   2.0000     -10.616163      -288.8805
  14   2.0000     -10.615139      -288.8526
  15   2.0000     -10.615138      -288.8526
  16   2.0000     -10.613034      -288.7953
  17   2.0000     -10.613034      -288.7953
  18   2.0000     -10.610972      -288.7392
  19   2.0000     -10.610972      -288.7392
  20   2.0000      -1.239448       -33.7271
  21   2.0000      -1.111687       -30.2505
  22   2.0000      -0.997724       -27.1495
  23   2.0000      -0.987675       -26.8760
  24   2.0000      -0.962360       -26.1871
  25   2.0000      -0.884329       -24.0638
  26   2.0000      -0.876356       -23.8469
  27   2.0000      -0.875928       -23.8352
  28   2.0000      -0.866435       -23.5769
  29   2.0000      -0.847608       -23.0646
  30   2.0000      -0.812444       -22.1077
  31   2.0000      -0.745398       -20.2833
  32   2.0000      -0.744933       -20.2707
  33   2.0000      -0.708068       -19.2675
  34   2.0000      -0.695590       -18.9280
  35   2.0000      -0.683849       -18.6085
  36   2.0000      -0.657032       -17.8787
  37   2.0000      -0.653923       -17.7942
  38   2.0000      -0.616792       -16.7838
  39   2.0000      -0.583222       -15.8703
  40   2.0000      -0.575627       -15.6636
  41   2.0000      -0.555024       -15.1030
  42   2.0000      -0.550293       -14.9742
  43   2.0000      -0.545521       -14.8444
  44   2.0000      -0.545024       -14.8308
  45   2.0000      -0.530871       -14.4457
  46   2.0000      -0.510318       -13.8865
  47   2.0000      -0.508274       -13.8308
  48   2.0000      -0.505023       -13.7424
  49   2.0000      -0.502831       -13.6827
  50   2.0000      -0.495140       -13.4734
  51   2.0000      -0.463231       -12.6051
  52   2.0000      -0.449091       -12.2204
  53   2.0000      -0.445346       -12.1185
  54   2.0000      -0.441793       -12.0218
  55   2.0000      -0.435756       -11.8575
  56   2.0000      -0.430212       -11.7067
  57   2.0000      -0.421701       -11.4751
  58   2.0000      -0.419583       -11.4174
  59   2.0000      -0.411416       -11.1952
  60   2.0000      -0.397765       -10.8237
  61   2.0000      -0.380418       -10.3517
  62   2.0000      -0.308621        -8.3980
  63   2.0000      -0.302915        -8.2427
  64   2.0000      -0.298246        -8.1157
  65   2.0000      -0.294541        -8.0149
  66   2.0000      -0.273803        -7.4506
  67   2.0000      -0.215206        -5.8561
  68   0.0000       0.026478         0.7205
  69   0.0000       0.035217         0.9583
  70   0.0000       0.036682         0.9982
  71   0.0000       0.044705         1.2165
  72   0.0000       0.054286         1.4772

MULLIKEN ATOMIC CHARGES
-----------------------
   0 C :   -0.196827
   1 C :   -0.228000
   2 C :    0.118694
   3 C :    0.233548
   4 C :   -0.290646
   5 C :   -0.145617
   6 C :    0.233365
   7 C :    0.119449
   8 C :   -0.229033
   9 H :    0.175698
  10 C :   -0.196321
  11 C :   -0.146561
  12 C :   -0.289503
  13 H :    0.175839
  14 H :    0.151049
  15 H :    0.155959
  16 N :    0.000141
  17 C :    0.119722
  18 C :   -0.251487
  19 C :   -0.250592
  20 C :   -0.108212
  21 C :   -0.108663
  22 H :    0.158279
  23 C :   -0.142100
  24 H :    0.159702
  25 H :    0.160331
  26 H :    0.151132
  27 H :    0.156002
  28 O :   -0.316564
  29 H :    0.156493
  30 H :    0.156491
  31 H :    0.159899
  32 H :    0.158333
Sum of atomic charges:    0.0000000

LOEWDIN ATOMIC CHARGES
----------------------
   0 C :   -0.158923
   1 C :   -0.122842
   2 C :   -0.140619
   3 C :   -0.195462
   4 C :   -0.120786
   5 C :   -0.164437
   6 C :   -0.195461
   7 C :   -0.140619
   8 C :   -0.122843
   9 H :    0.160252
  10 C :   -0.158923
  11 C :   -0.164439
  12 C :   -0.120784
  13 H :    0.160253
  14 H :    0.156640
  15 H :    0.151303
  16 N :    0.275713
  17 C :   -0.170856
  18 C :   -0.098422
  19 C :   -0.098444
  20 C :   -0.137294
  21 C :   -0.137296
  22 H :    0.159366
  23 C :   -0.137775
  24 H :    0.152870
  25 H :    0.152215
  26 H :    0.156640
  27 H :    0.151304
  28 O :    0.297536
  29 H :    0.149940
  30 H :    0.149939
  31 H :    0.152871
  32 H :    0.159384

  Mayer bond orders larger than 0.100000
B(  0-C ,  1-C ) :   1.3907 B(  0-C ,  5-C ) :   1.4239 B(  0-C , 27-H ) :   0.9833
B(  1-C ,  2-C ) :   1.3591 B(  1-C , 13-H ) :   0.9594 B(  2-C ,  3-C ) :   1.3177
B(  2-C , 16-N ) :   1.0830 B(  3-C ,  4-C ) :   1.4486 B(  3-C , 28-O ) :   0.9952
B(  4-C ,  5-C ) :   1.3616 B(  4-C , 14-H ) :   0.9943 B(  5-C , 30-H ) :   0.9865
B(  6-C ,  7-C ) :   1.3178 B(  6-C , 12-C ) :   1.4484 B(  6-C , 28-O ) :   0.9953
B(  7-C ,  8-C ) :   1.3585 B(  7-C , 16-N ) :   1.0829 B(  8-C ,  9-H ) :   0.9597
B(  8-C , 10-C ) :   1.3907 B( 10-C , 11-C ) :   1.4240 B( 10-C , 15-H ) :   0.9833
B( 11-C , 12-C ) :   1.3614 B( 11-C , 29-H ) :   0.9867 B( 12-C , 26-H ) :   0.9942
B( 16-N , 17-C ) :   0.7048 B( 17-C , 18-C ) :   1.4596 B( 17-C , 19-C ) :   1.4593
B( 18-C , 20-C ) :   1.4064 B( 18-C , 32-H ) :   0.9844 B( 19-C , 21-C ) :   1.4060
B( 19-C , 22-H ) :   0.9845 B( 20-C , 23-C ) :   1.3885 B( 20-C , 31-H ) :   0.9784
B( 21-C , 23-C ) :   1.3882 B( 21-C , 24-H ) :   0.9789 B( 23-C , 25-H ) :   0.9760

MP2 TOTAL ENERGY:     -823.324640615 Eh

-----------------------------------------------------------------------------
         ABSORPTION SPECTRUM VIA TRANSITION ELECTRIC DIPOLE MOMENTS
-----------------------------------------------------------------------------
State   Energy    Wavelength  fosc         T2        TX        TY        TZ
        (cm-1)      (nm)                 (au**2)    (au)      (au)      (au)
-----------------------------------------------------------------------------
   1   29057.3    344.1   0.036357057   0.41192  -0.00000   0.64181  -0.00001
   2   30950.3    323.1   0.228462392   2.43011  -0.00000   1.55888   0.00006
   3   32871.3    304.2   0.000978914   0.00980   0.09901   0.00002  -0.00024
   4   31419.5    318.3   0.000000331   0.00000   0.00003   0.00186  -0.00000
   5   34869.0    286.8   0.032337819   0.30531   0.00002  -0.55255   0.00008
   6   42094.1    237.6   0.001095813   0.00857  -0.00070   0.00005   0.09257
   7   45263.7    220.9   0.086365097   0.62815  -0.79256   0.00003   0.00051
   8   42750.7    233.9   1.073944934   8.27017   0.00001  -2.87579  -0.00003
   9   45052.1    222.0   0.018392953   0.13440   0.00067  -0.00008  -0.36661
  10   49421.1    202.3   0.002044580   0.01362  -0.11668   0.00000  -0.00226
  11   47464.6    210.7   0.019130704   0.13269  -0.00005   0.36427  -0.00010
  12   47548.3    210.3   1.022890985   7.08223  -2.66125  -0.00002  -0.00207
  13   46963.2    212.9   0.005396554   0.03783   0.19450   0.00000  -0.00044
  14   47826.4    209.1   0.000689377   0.00475  -0.00553  -0.00002   0.06866
  15   46368.0    215.7   0.000000084   0.00000  -0.00045  -0.00063  -0.00007
  16   52587.0    190.2   0.544202353   3.40689  -0.00508   0.00019  -1.84577
  17   51616.7    193.7   0.931842931   5.94331  -2.43789   0.00000   0.00307
  18   51352.5    194.7   0.000000002   0.00000  -0.00009   0.00005   0.00000
  19   49787.3    200.9   0.000666128   0.00440   0.00005   0.06637   0.00003
  20   52241.6    191.4   0.003117093   0.01964   0.14015   0.00000   0.00088
  21   52477.1    190.6   0.001254532   0.00787  -0.00257   0.00004   0.08868
  22   52340.5    191.1   0.362424406   2.27958  -0.00000  -1.50983   0.00004
  23   52297.9    191.2   0.009412919   0.05925   0.01370  -0.00037   0.24303
  24   53719.5    186.2   0.089391439   0.54782   0.74013  -0.00001  -0.00475
  25   53633.9    186.4   0.002553989   0.01568   0.00081  -0.00009  -0.12520
  26   53615.7    186.5   0.047529054   0.29184  -0.54022  -0.00000   0.00201
  27   53608.7    186.5   0.024357228   0.14958   0.00154  -0.00198  -0.38675
  28   52936.4    188.9   0.007142760   0.04442   0.00002   0.21074  -0.00338
  29   54584.5    183.2   0.000000304   0.00000   0.00000   0.00135  -0.00002
  30   54892.1    182.2   0.007009731   0.04204  -0.20504   0.00001  -0.00082

Dispersion correction           -0.037466662
FINAL SINGLE POINT ENERGY      -822.175161475714

DIPOLE MOMENT
-------------
                                X             Y             Z
Electronic contribution:      5.17028       0.00003      -0.00595
Nuclear contribution   :     -6.44909      -0.00003       0.00683
                        -----------------------------------------
Total Dipole Moment    :     -1.27881       0.00000       0.00088
                        -----------------------------------------
Magnitude (a.u.)       :      1.27881
Magnitude (Debye)      :      3.25049

Rotational constants in cm-1:     0.014520     0.012031     0.007065
Rotational constants in MHz :   435.289597   360.687687   211.804504

                             ****ORCA TERMINATED NORMALLY****
TOTAL RUN TIME: 0 days 0 hours 16 minutes 36 seconds 34 msec
