                         Program Version 5.0.2 -  RELEASE  -
|  1> %maxcore 12800
|  2> %pal
|  3>  nprocs= 8
|  4> end
|  5> ! RI-DSD-BLYP D3BJ def2-TZVP def2/J def2-TZVP/C RIJCOSX CPCM TightSCF
|  6> %TDDFT DCORR 4
|  7>    NROOTS   30
|  8>
|  9>    TDA      FALSE
| 10> END
| 11>
| 12> %CPCM
| 13>    SMD          TRUE
| 14>    SMDsolvent   "N,N-DIMETHYLACETAMIDE"
| 15> END
| 16>
| 17>
| 18> * xyz 0 1
| 19> C                   0.65203800    3.62186300   -0.00084300
| 20> C                  -0.08658100    2.44394500   -0.00194200
| 21> C                   0.54696400    1.20455600   -0.00146800
| 22> C                   1.94708500    1.17979400    0.00016300
| 23> C                   2.68011500    2.34800100    0.00134900
| 24> C                   2.03414100    3.58044100    0.00088400
| 25> C                   1.94710100   -1.17977100    0.00014300
| 26> C                   0.54698100   -1.20455200   -0.00149400
| 27> C                  -0.08654800   -2.44394900   -0.00201200
| 28> H                  -1.16781900   -2.48300400   -0.00329500
| 29> C                   0.65208600   -3.62185800   -0.00093500
| 30> C                   2.03418800   -3.58041700    0.00081000
| 31> C                   2.68014600   -2.34796800    0.00130700
| 32> H                  -1.16785300    2.48298700   -0.00320800
| 33> H                   3.76040800    2.27808100    0.00268500
| 34> H                   0.13153200   -4.57070900   -0.00139800
| 35> N                  -0.15499900   -0.00000300   -0.00255200
| 36> C                  -1.58361100   -0.00001100   -0.00094300
| 37> C                  -2.27146300   -0.00016700    1.20521900
| 38> C                  -2.27450600    0.00013900   -1.20534000
| 39> C                  -3.65828800   -0.00017400    1.20409400
| 40> C                  -3.66135100    0.00013700   -1.20063600
| 41> H                  -1.71972200    0.00025900   -2.13569300
| 42> C                  -4.35311100   -0.00002100    0.00260400
| 43> H                  -4.20221700    0.00025600   -2.13846200
| 44> H                  -5.43576100   -0.00002400    0.00397300
| 45> H                   3.76043800   -2.27803500    0.00264900
| 46> H                   0.13147200    4.57070800   -0.00127400
| 47> O                   2.65010600    0.00001600    0.00064500
| 48> H                   2.61622500   -4.49228100    0.00170700
| 49> H                   2.61616500    4.49231300    0.00179600
| 50> H                  -4.19675100   -0.00029600    2.14330400
| 51> H                  -1.71429800   -0.00028300    2.13415300
| 52> *
| 53>
| 54>
| 55>                          ****END OF INPUT****

CARTESIAN COORDINATES (ANGSTROEM)
---------------------------------
  C      0.652038    3.621863   -0.000843
  C     -0.086581    2.443945   -0.001942
  C      0.546964    1.204556   -0.001468
  C      1.947085    1.179794    0.000163
  C      2.680115    2.348001    0.001349
  C      2.034141    3.580441    0.000884
  C      1.947101   -1.179771    0.000143
  C      0.546981   -1.204552   -0.001494
  C     -0.086548   -2.443949   -0.002012
  H     -1.167819   -2.483004   -0.003295
  C      0.652086   -3.621858   -0.000935
  C      2.034188   -3.580417    0.000810
  C      2.680146   -2.347968    0.001307
  H     -1.167853    2.482987   -0.003208
  H      3.760408    2.278081    0.002685
  H      0.131532   -4.570709   -0.001398
  N     -0.154999   -0.000003   -0.002552
  C     -1.583611   -0.000011   -0.000943
  C     -2.271463   -0.000167    1.205219
  C     -2.274506    0.000139   -1.205340
  C     -3.658288   -0.000174    1.204094
  C     -3.661351    0.000137   -1.200636
  H     -1.719722    0.000259   -2.135693
  C     -4.353111   -0.000021    0.002604
  H     -4.202217    0.000256   -2.138462
  H     -5.435761   -0.000024    0.003973
  H      3.760438   -2.278035    0.002649
  H      0.131472    4.570708   -0.001274
  O      2.650106    0.000016    0.000645
  H      2.616225   -4.492281    0.001707
  H      2.616165    4.492313    0.001796
  H     -4.196751   -0.000296    2.143304
  H     -1.714298   -0.000283    2.134153

 Total Charge           Charge          ....    0
 Multiplicity           Mult            ....    1
 Number of Electrons    NEL             ....  136
 Basis Dimension        Dim             ....  698

ORBITAL ENERGIES
----------------

  NO   OCC          E(Eh)            E(eV)
   0   2.0000     -20.055941      -545.7499
   1   2.0000     -15.120129      -411.4396
   2   2.0000     -10.895204      -296.4736
   3   2.0000     -10.895185      -296.4730
   4   2.0000     -10.882285      -296.1220
   5   2.0000     -10.882269      -296.1216
   6   2.0000     -10.869499      -295.7741
   7   2.0000     -10.831342      -294.7358
   8   2.0000     -10.831277      -294.7340
   9   2.0000     -10.830575      -294.7149
  10   2.0000     -10.830005      -294.6994
  11   2.0000     -10.829340      -294.6813
  12   2.0000     -10.827926      -294.6428
  13   2.0000     -10.827924      -294.6428
  14   2.0000     -10.826636      -294.6077
  15   2.0000     -10.826636      -294.6077
  16   2.0000     -10.824763      -294.5568
  17   2.0000     -10.824763      -294.5568
  18   2.0000     -10.822417      -294.4930
  19   2.0000     -10.822417      -294.4929
  20   2.0000      -1.309576       -35.6354
  21   2.0000      -1.175897       -31.9978
  22   2.0000      -1.058360       -28.7994
  23   2.0000      -1.047802       -28.5121
  24   2.0000      -1.021564       -27.7982
  25   2.0000      -0.939205       -25.5571
  26   2.0000      -0.930892       -25.3309
  27   2.0000      -0.930836       -25.3293
  28   2.0000      -0.921160       -25.0660
  29   2.0000      -0.901993       -24.5445
  30   2.0000      -0.864428       -23.5223
  31   2.0000      -0.791353       -21.5338
  32   2.0000      -0.791255       -21.5312
  33   2.0000      -0.753463       -20.5028
  34   2.0000      -0.740814       -20.1586
  35   2.0000      -0.728037       -19.8109
  36   2.0000      -0.697037       -18.9673
  37   2.0000      -0.695313       -18.9204
  38   2.0000      -0.654855       -17.8195
  39   2.0000      -0.621530       -16.9127
  40   2.0000      -0.613433       -16.6924
  41   2.0000      -0.592375       -16.1193
  42   2.0000      -0.587857       -15.9964
  43   2.0000      -0.582058       -15.8386
  44   2.0000      -0.581135       -15.8135
  45   2.0000      -0.567905       -15.4535
  46   2.0000      -0.545622       -14.8471
  47   2.0000      -0.542807       -14.7705
  48   2.0000      -0.539550       -14.6819
  49   2.0000      -0.537355       -14.6222
  50   2.0000      -0.529126       -14.3983
  51   2.0000      -0.498120       -13.5545
  52   2.0000      -0.482665       -13.1340
  53   2.0000      -0.478123       -13.0104
  54   2.0000      -0.470748       -12.8097
  55   2.0000      -0.464861       -12.6495
  56   2.0000      -0.461851       -12.5676
  57   2.0000      -0.453042       -12.3279
  58   2.0000      -0.449918       -12.2429
  59   2.0000      -0.441884       -12.0243
  60   2.0000      -0.428615       -11.6632
  61   2.0000      -0.407343       -11.0844
  62   2.0000      -0.327092        -8.9006
  63   2.0000      -0.321180        -8.7398
  64   2.0000      -0.315682        -8.5902
  65   2.0000      -0.311776        -8.4839
  66   2.0000      -0.292152        -7.9499
  67   2.0000      -0.232757        -6.3336
  68   0.0000       0.051789         1.4093
  69   0.0000       0.061522         1.6741
  70   0.0000       0.062448         1.6993
  71   0.0000       0.069689         1.8963
  72   0.0000       0.081670         2.2224

MULLIKEN ATOMIC CHARGES
-----------------------
   0 C :   -0.196578
   1 C :   -0.244685
   2 C :    0.137496
   3 C :    0.232409
   4 C :   -0.296811
   5 C :   -0.145261
   6 C :    0.232052
   7 C :    0.138430
   8 C :   -0.245900
   9 H :    0.178225
  10 C :   -0.195996
  11 C :   -0.146497
  12 C :   -0.295207
  13 H :    0.178399
  14 H :    0.155889
  15 H :    0.160608
  16 N :   -0.008579
  17 C :    0.140467
  18 C :   -0.270949
  19 C :   -0.269880
  20 C :   -0.106234
  21 C :   -0.106835
  22 H :    0.162909
  23 C :   -0.147425
  24 H :    0.163770
  25 H :    0.164072
  26 H :    0.156016
  27 H :    0.160667
  28 O :   -0.334060
  29 H :    0.161254
  30 H :    0.161250
  31 H :    0.164025
  32 H :    0.162959
Sum of atomic charges:    0.0000000

LOEWDIN ATOMIC CHARGES
----------------------
   0 C :   -0.157343
   1 C :   -0.122329
   2 C :   -0.138240
   3 C :   -0.192100
   4 C :   -0.118753
   5 C :   -0.163750
   6 C :   -0.192098
   7 C :   -0.138240
   8 C :   -0.122330
   9 H :    0.159913
  10 C :   -0.157343
  11 C :   -0.163753
  12 C :   -0.118750
  13 H :    0.159914
  14 H :    0.156585
  15 H :    0.151229
  16 N :    0.268245
  17 C :   -0.170085
  18 C :   -0.098119
  19 C :   -0.098139
  20 C :   -0.137458
  21 C :   -0.137461
  22 H :    0.159039
  23 C :   -0.137663
  24 H :    0.152511
  25 H :    0.151865
  26 H :    0.156585
  27 H :    0.151230
  28 O :    0.285685
  29 H :    0.149791
  30 H :    0.149790
  31 H :    0.152512
  32 H :    0.159057

  Mayer bond orders larger than 0.100000
B(  0-C ,  1-C ) :   1.3975 B(  0-C ,  5-C ) :   1.4298 B(  0-C , 27-H ) :   0.9835
B(  1-C ,  2-C ) :   1.3773 B(  1-C , 13-H ) :   0.9625 B(  2-C ,  3-C ) :   1.3331
B(  2-C , 16-N ) :   1.0805 B(  3-C ,  4-C ) :   1.4673 B(  3-C , 28-O ) :   0.9915
B(  4-C ,  5-C ) :   1.3659 B(  4-C , 14-H ) :   0.9926 B(  5-C , 30-H ) :   0.9867
B(  6-C ,  7-C ) :   1.3331 B(  6-C , 12-C ) :   1.4671 B(  6-C , 28-O ) :   0.9916
B(  7-C ,  8-C ) :   1.3766 B(  7-C , 16-N ) :   1.0805 B(  8-C ,  9-H ) :   0.9628
B(  8-C , 10-C ) :   1.3975 B( 10-C , 11-C ) :   1.4298 B( 10-C , 15-H ) :   0.9835
B( 11-C , 12-C ) :   1.3657 B( 11-C , 29-H ) :   0.9869 B( 12-C , 26-H ) :   0.9924
B( 16-N , 17-C ) :   0.7034 B( 17-C , 18-C ) :   1.4740 B( 17-C , 19-C ) :   1.4738
B( 18-C , 20-C ) :   1.4169 B( 18-C , 32-H ) :   0.9840 B( 19-C , 21-C ) :   1.4164
B( 19-C , 22-H ) :   0.9840 B( 20-C , 23-C ) :   1.3942 B( 20-C , 31-H ) :   0.9793
B( 21-C , 23-C ) :   1.3938 B( 21-C , 24-H ) :   0.9800 B( 23-C , 25-H ) :   0.9778

MP2 TOTAL ENERGY:     -822.937635917 Eh

-----------------------------------------------------------------------------
         ABSORPTION SPECTRUM VIA TRANSITION ELECTRIC DIPOLE MOMENTS
-----------------------------------------------------------------------------
State   Energy    Wavelength  fosc         T2        TX        TY        TZ
        (cm-1)      (nm)                 (au**2)    (au)      (au)      (au)
-----------------------------------------------------------------------------
   1   24673.7    405.3   0.038953401   0.51974   0.00000  -0.72093   0.00000
   2   23220.2    430.7   0.169873237   2.40844  -0.00000   1.55191   0.00006
   3   25746.0    388.4   0.000569177   0.00728   0.08531   0.00001  -0.00029
   4   21539.5    464.3   0.000000026   0.00000  -0.00029  -0.00056   0.00000
   5   23889.4    418.6   0.004185248   0.05768  -0.00006   0.24008   0.00593
   6   35782.7    279.5   0.001271136   0.01169  -0.00054  -0.01352   0.10729
   7   47216.8    211.8   0.039206445   0.27336  -0.52284   0.00000   0.00035
   8   51773.4    193.1   0.001607920   0.01022   0.10111  -0.00001  -0.00027
   9   36029.0    277.6   1.021388922   9.33287  -0.00003   3.05497  -0.00001
  10   39941.2    250.4   0.018408448   0.15173   0.00117  -0.00026  -0.38952
  11   45121.2    221.6   0.004827304   0.03522  -0.00003   0.18767  -0.00009
  12   43547.3    229.6   1.293196257   9.77640  -3.12672  -0.00002  -0.00215
  13   39682.0    252.0   0.243220942   2.01782  -1.42050  -0.00001  -0.00039
  14   47914.9    208.7   0.470820164   3.23489  -0.00088  -0.00022   1.79858
  15   42466.4    235.5   0.084146887   0.65233  -0.00513   0.00009  -0.80765
  16   46671.6    214.3   0.296702322   2.09288   1.44668  -0.00000  -0.00168
  17   45874.6    218.0   0.000000006   0.00000  -0.00002   0.00021  -0.00001
  18   41707.5    239.8   0.093769622   0.74016   0.86032   0.00001   0.00112
  19   34365.5    291.0   0.000000039   0.00000  -0.00050   0.00034  -0.00004
  20   46845.6    213.5   0.001470995   0.01034  -0.00390   0.00002   0.10160
  21   43021.7    232.4   0.183585868   1.40484   0.00001  -1.18526   0.00001
  22   38694.4    258.4   0.045858947   0.39017  -0.00009   0.62463  -0.00002
  23   47429.9    210.8   0.038363065   0.26628   0.51602   0.00010  -0.00041
  24   46917.5    213.1   0.001237695   0.00868  -0.00099  -0.00020  -0.09319
  25   42619.7    234.6   0.001915132   0.01479  -0.00089   0.00019  -0.12162
  26   49699.0    201.2   0.000247331   0.00164  -0.04042  -0.00006   0.00218
  27   56358.8    177.4   0.000003259   0.00002   0.00429  -0.00073  -0.00024
  28   41863.7    238.9   0.052589929   0.41356   0.64308   0.00000  -0.00212
  29   48499.4    206.2   0.001026709   0.00697   0.01384   0.00002   0.08233
  30   46424.8    215.4   0.000001127   0.00001  -0.00033   0.00281   0.00003

Dispersion correction           -0.030814060
FINAL SINGLE POINT ENERGY      -821.272467062723

DIPOLE MOMENT
-------------
                                X             Y             Z
Electronic contribution:      5.18432       0.00003      -0.00592
Nuclear contribution   :     -6.44909      -0.00003       0.00683
                        -----------------------------------------
Total Dipole Moment    :     -1.26477       0.00000       0.00091
                        -----------------------------------------
Magnitude (a.u.)       :      1.26477
Magnitude (Debye)      :      3.21479

Rotational constants in cm-1:     0.014520     0.012031     0.007065
Rotational constants in MHz :   435.289597   360.687687   211.804504

                             ****ORCA TERMINATED NORMALLY****
TOTAL RUN TIME: 0 days 0 hours 21 minutes 46 seconds 797 msec
