                         Program Version 5.0.2 -  RELEASE  -
|  1> %maxcore 20000
|  2> %pal
|  3>  nprocs= 4
|  4> end
|  5> ! RI-B2GP-PLYP   def2-TZVP def2/J def2-TZVP/C RIJCOSX CPCM TightSCF
|  6> %TDDFT
|  7>    NROOTS   30
|  8>    dcorr 4
|  9>    TDA      FALSE
| 10> END
| 11>
| 12> %CPCM
| 13>    SMD          TRUE
| 14>    SMDsolvent   "N,N-DIMETHYLACETAMIDE"
| 15> END
| 16>
| 17>
| 18> * xyz 0 1
| 19> C                   0.65203800    3.62186300   -0.00084300
| 20> C                  -0.08658100    2.44394500   -0.00194200
| 21> C                   0.54696400    1.20455600   -0.00146800
| 22> C                   1.94708500    1.17979400    0.00016300
| 23> C                   2.68011500    2.34800100    0.00134900
| 24> C                   2.03414100    3.58044100    0.00088400
| 25> C                   1.94710100   -1.17977100    0.00014300
| 26> C                   0.54698100   -1.20455200   -0.00149400
| 27> C                  -0.08654800   -2.44394900   -0.00201200
| 28> H                  -1.16781900   -2.48300400   -0.00329500
| 29> C                   0.65208600   -3.62185800   -0.00093500
| 30> C                   2.03418800   -3.58041700    0.00081000
| 31> C                   2.68014600   -2.34796800    0.00130700
| 32> H                  -1.16785300    2.48298700   -0.00320800
| 33> H                   3.76040800    2.27808100    0.00268500
| 34> H                   0.13153200   -4.57070900   -0.00139800
| 35> N                  -0.15499900   -0.00000300   -0.00255200
| 36> C                  -1.58361100   -0.00001100   -0.00094300
| 37> C                  -2.27146300   -0.00016700    1.20521900
| 38> C                  -2.27450600    0.00013900   -1.20534000
| 39> C                  -3.65828800   -0.00017400    1.20409400
| 40> C                  -3.66135100    0.00013700   -1.20063600
| 41> H                  -1.71972200    0.00025900   -2.13569300
| 42> C                  -4.35311100   -0.00002100    0.00260400
| 43> H                  -4.20221700    0.00025600   -2.13846200
| 44> H                  -5.43576100   -0.00002400    0.00397300
| 45> H                   3.76043800   -2.27803500    0.00264900
| 46> H                   0.13147200    4.57070800   -0.00127400
| 47> O                   2.65010600    0.00001600    0.00064500
| 48> H                   2.61622500   -4.49228100    0.00170700
| 49> H                   2.61616500    4.49231300    0.00179600
| 50> H                  -4.19675100   -0.00029600    2.14330400
| 51> H                  -1.71429800   -0.00028300    2.13415300
| 52> *
| 53>
| 54>
| 55>                          ****END OF INPUT****

CARTESIAN COORDINATES (ANGSTROEM)
---------------------------------
  C      0.652038    3.621863   -0.000843
  C     -0.086581    2.443945   -0.001942
  C      0.546964    1.204556   -0.001468
  C      1.947085    1.179794    0.000163
  C      2.680115    2.348001    0.001349
  C      2.034141    3.580441    0.000884
  C      1.947101   -1.179771    0.000143
  C      0.546981   -1.204552   -0.001494
  C     -0.086548   -2.443949   -0.002012
  H     -1.167819   -2.483004   -0.003295
  C      0.652086   -3.621858   -0.000935
  C      2.034188   -3.580417    0.000810
  C      2.680146   -2.347968    0.001307
  H     -1.167853    2.482987   -0.003208
  H      3.760408    2.278081    0.002685
  H      0.131532   -4.570709   -0.001398
  N     -0.154999   -0.000003   -0.002552
  C     -1.583611   -0.000011   -0.000943
  C     -2.271463   -0.000167    1.205219
  C     -2.274506    0.000139   -1.205340
  C     -3.658288   -0.000174    1.204094
  C     -3.661351    0.000137   -1.200636
  H     -1.719722    0.000259   -2.135693
  C     -4.353111   -0.000021    0.002604
  H     -4.202217    0.000256   -2.138462
  H     -5.435761   -0.000024    0.003973
  H      3.760438   -2.278035    0.002649
  H      0.131472    4.570708   -0.001274
  O      2.650106    0.000016    0.000645
  H      2.616225   -4.492281    0.001707
  H      2.616165    4.492313    0.001796
  H     -4.196751   -0.000296    2.143304
  H     -1.714298   -0.000283    2.134153

 Total Charge           Charge          ....    0
 Multiplicity           Mult            ....    1
 Number of Electrons    NEL             ....  136
 Basis Dimension        Dim             ....  698

ORBITAL ENERGIES
----------------

  NO   OCC          E(Eh)            E(eV)
   0   2.0000     -19.986805      -543.8686
   1   2.0000     -15.060410      -409.8146
   2   2.0000     -10.844142      -295.0841
   3   2.0000     -10.844122      -295.0836
   4   2.0000     -10.831145      -294.7304
   5   2.0000     -10.831128      -294.7300
   6   2.0000     -10.818650      -294.3904
   7   2.0000     -10.780460      -293.3512
   8   2.0000     -10.780410      -293.3499
   9   2.0000     -10.779689      -293.3302
  10   2.0000     -10.779139      -293.3153
  11   2.0000     -10.778471      -293.2971
  12   2.0000     -10.776889      -293.2541
  13   2.0000     -10.776888      -293.2540
  14   2.0000     -10.775681      -293.2212
  15   2.0000     -10.775680      -293.2212
  16   2.0000     -10.773726      -293.1680
  17   2.0000     -10.773726      -293.1680
  18   2.0000     -10.771449      -293.1060
  19   2.0000     -10.771449      -293.1060
  20   2.0000      -1.293836       -35.2071
  21   2.0000      -1.161614       -31.6091
  22   2.0000      -1.044953       -28.4346
  23   2.0000      -1.034503       -28.1503
  24   2.0000      -1.008506       -27.4428
  25   2.0000      -0.927235       -25.2314
  26   2.0000      -0.918949       -25.0059
  27   2.0000      -0.918891       -25.0043
  28   2.0000      -0.909194       -24.7404
  29   2.0000      -0.890126       -24.2216
  30   2.0000      -0.853165       -23.2158
  31   2.0000      -0.781577       -21.2678
  32   2.0000      -0.781518       -21.2662
  33   2.0000      -0.743843       -20.2410
  34   2.0000      -0.731247       -19.8982
  35   2.0000      -0.718730       -19.5576
  36   2.0000      -0.687997       -18.7214
  37   2.0000      -0.687575       -18.7099
  38   2.0000      -0.647105       -17.6086
  39   2.0000      -0.613699       -16.6996
  40   2.0000      -0.605720       -16.4825
  41   2.0000      -0.584798       -15.9132
  42   2.0000      -0.580196       -15.7879
  43   2.0000      -0.574656       -15.6372
  44   2.0000      -0.573860       -15.6155
  45   2.0000      -0.560409       -15.2495
  46   2.0000      -0.538479       -14.6528
  47   2.0000      -0.535942       -14.5837
  48   2.0000      -0.532630       -14.4936
  49   2.0000      -0.530428       -14.4337
  50   2.0000      -0.522311       -14.2128
  51   2.0000      -0.491155       -13.3650
  52   2.0000      -0.476012       -12.9529
  53   2.0000      -0.471615       -12.8333
  54   2.0000      -0.465240       -12.6598
  55   2.0000      -0.459257       -12.4970
  56   2.0000      -0.455627       -12.3982
  57   2.0000      -0.446911       -12.1611
  58   2.0000      -0.444069       -12.0837
  59   2.0000      -0.435942       -11.8626
  60   2.0000      -0.422629       -11.5003
  61   2.0000      -0.402318       -10.9476
  62   2.0000      -0.324188        -8.8216
  63   2.0000      -0.318343        -8.6626
  64   2.0000      -0.313046        -8.5184
  65   2.0000      -0.309176        -8.4131
  66   2.0000      -0.289278        -7.8717
  67   2.0000      -0.230086        -6.2609
  68   0.0000       0.043784         1.1914
  69   0.0000       0.053294         1.4502
  70   0.0000       0.054338         1.4786
  71   0.0000       0.061779         1.6811
  72   0.0000       0.073164         1.9909

MULLIKEN ATOMIC CHARGES
-----------------------
   0 C :   -0.197523
   1 C :   -0.240231
   2 C :    0.131822
   3 C :    0.231853
   4 C :   -0.295371
   5 C :   -0.146410
   6 C :    0.231577
   7 C :    0.132678
   8 C :   -0.241398
   9 H :    0.178730
  10 C :   -0.196970
  11 C :   -0.147570
  12 C :   -0.293873
  13 H :    0.178901
  14 H :    0.156028
  15 H :    0.160602
  16 N :   -0.007482
  17 C :    0.129376
  18 C :   -0.265282
  19 C :   -0.264272
  20 C :   -0.107654
  21 C :   -0.108211
  22 H :    0.162981
  23 C :   -0.147153
  24 H :    0.163933
  25 H :    0.164275
  26 H :    0.156146
  27 H :    0.160660
  28 O :   -0.329794
  29 H :    0.161212
  30 H :    0.161209
  31 H :    0.164173
  32 H :    0.163038
Sum of atomic charges:    0.0000000

LOEWDIN ATOMIC CHARGES
----------------------
   0 C :   -0.157923
   1 C :   -0.122627
   2 C :   -0.139015
   3 C :   -0.193107
   4 C :   -0.119422
   5 C :   -0.164092
   6 C :   -0.193105
   7 C :   -0.139015
   8 C :   -0.122628
   9 H :    0.160272
  10 C :   -0.157923
  11 C :   -0.164095
  12 C :   -0.119420
  13 H :    0.160273
  14 H :    0.156935
  15 H :    0.151576
  16 N :    0.269851
  17 C :   -0.170703
  18 C :   -0.098453
  19 C :   -0.098473
  20 C :   -0.137641
  21 C :   -0.137643
  22 H :    0.159450
  23 C :   -0.137903
  24 H :    0.152921
  25 H :    0.152273
  26 H :    0.156934
  27 H :    0.151576
  28 O :    0.288424
  29 H :    0.150156
  30 H :    0.150155
  31 H :    0.152923
  32 H :    0.159468

  Mayer bond orders larger than 0.100000
B(  0-C ,  1-C ) :   1.3966 B(  0-C ,  5-C ) :   1.4288 B(  0-C , 27-H ) :   0.9825
B(  1-C ,  2-C ) :   1.3732 B(  1-C , 13-H ) :   0.9608 B(  2-C ,  3-C ) :   1.3295
B(  2-C , 16-N ) :   1.0812 B(  3-C ,  4-C ) :   1.4634 B(  3-C , 28-O ) :   0.9926
B(  4-C ,  5-C ) :   1.3656 B(  4-C , 14-H ) :   0.9916 B(  5-C , 30-H ) :   0.9858
B(  6-C ,  7-C ) :   1.3295 B(  6-C , 12-C ) :   1.4633 B(  6-C , 28-O ) :   0.9927
B(  7-C ,  8-C ) :   1.3725 B(  7-C , 16-N ) :   1.0811 B(  8-C ,  9-H ) :   0.9611
B(  8-C , 10-C ) :   1.3967 B( 10-C , 11-C ) :   1.4289 B( 10-C , 15-H ) :   0.9825
B( 11-C , 12-C ) :   1.3654 B( 11-C , 29-H ) :   0.9860 B( 12-C , 26-H ) :   0.9914
B( 16-N , 17-C ) :   0.7041 B( 17-C , 18-C ) :   1.4713 B( 17-C , 19-C ) :   1.4710
B( 18-C , 20-C ) :   1.4145 B( 18-C , 32-H ) :   0.9832 B( 19-C , 21-C ) :   1.4140
B( 19-C , 22-H ) :   0.9832 B( 20-C , 23-C ) :   1.3933 B( 20-C , 31-H ) :   0.9782
B( 21-C , 23-C ) :   1.3929 B( 21-C , 24-H ) :   0.9789 B( 23-C , 25-H ) :   0.9767

MP2 TOTAL ENERGY:     -823.157451741 Eh

-----------------------------------------------------------------------------
         ABSORPTION SPECTRUM VIA TRANSITION ELECTRIC DIPOLE MOMENTS
-----------------------------------------------------------------------------
State   Energy    Wavelength  fosc         T2        TX        TY        TZ
        (cm-1)      (nm)                 (au**2)    (au)      (au)      (au)
-----------------------------------------------------------------------------
   1   30401.9    328.9   0.046055652   0.49872   0.00000  -0.70620   0.00001
   2   32132.1    311.2   0.236606388   2.42417  -0.00000   1.55697   0.00006
   3   33681.8    296.9   0.000803710   0.00786   0.08863   0.00001  -0.00028
   4   33290.2    300.4   0.000000068   0.00000   0.00027   0.00078  -0.00000
   5   36803.1    271.7   0.011965835   0.10704   0.00003  -0.32717   0.00007
   6   42182.8    237.1   0.001404922   0.01096   0.00058   0.00010  -0.10471
   7   47012.9    212.7   0.048036258   0.33638   0.57998  -0.00000  -0.00038
   8   49840.8    200.6   0.001462915   0.00966  -0.09830   0.00002   0.00041
   9   43945.3    227.6   1.208070515   9.05014  -0.00002   3.00834   0.00001
  10   45940.7    217.7   0.020555623   0.14730   0.00096  -0.00018  -0.38380
  11   48841.4    204.7   0.011975155   0.08072   0.00003  -0.28411   0.00009
  12   49131.7    203.5   1.370913299   9.18594  -3.03083  -0.00002  -0.00217
  13   48203.7    207.5   0.237386718   1.62126  -1.27329  -0.00001  -0.00032
  14   49639.7    201.5   0.006993255   0.04638   0.00497   0.00004  -0.21530
  15   53396.3    187.3   0.609527707   3.75801   0.00204  -0.00023   1.93856
  16   52845.2    189.2   0.454089942   2.82886  -1.68192   0.00000   0.00160
  17   52772.2    189.5   0.000000012   0.00000  -0.00013   0.00023  -0.00002
  18   49752.6    201.0   0.000000316   0.00000  -0.00145   0.00000  -0.00001
  19   52676.3    189.8   0.108941907   0.68086   0.82514   0.00001   0.00106
  20   54540.6    183.3   0.001615272   0.00975  -0.00322  -0.00002   0.09869
  21   53201.5    188.0   0.196605750   1.21660  -0.00001   1.10300  -0.00001
  22   52423.6    190.8   0.112408361   0.70591   0.00001  -0.84018   0.00002
  23   56019.2    178.5   0.048870633   0.28720   0.53591   0.00000  -0.00030
  24   55837.0    179.1   0.000963674   0.00568   0.00174   0.00016   0.07536
  25   54656.7    183.0   0.003811368   0.02296   0.00014   0.00019  -0.15152
  26   56048.4    178.4   0.041365175   0.24297  -0.49291   0.00001   0.00255
  27   57414.8    174.2   0.033981223   0.19485  -0.44141  -0.00001  -0.00026
  28   57083.6    175.2   0.000002943   0.00002  -0.00029   0.00411   0.00011
  29   56643.8    176.5   0.012215636   0.07100  -0.00195  -0.00013  -0.26645
  30   60856.7    164.3   0.000000825   0.00000   0.00039   0.00206   0.00026

FINAL SINGLE POINT ENERGY      -821.687767300343

DIPOLE MOMENT
-------------
                                X             Y             Z
Electronic contribution:      5.17943       0.00003      -0.00593
Nuclear contribution   :     -6.44909      -0.00003       0.00683
                        -----------------------------------------
Total Dipole Moment    :     -1.26966       0.00000       0.00090
                        -----------------------------------------
Magnitude (a.u.)       :      1.26966
Magnitude (Debye)      :      3.22722

Rotational constants in cm-1:     0.014520     0.012031     0.007065
Rotational constants in MHz :   435.289597   360.687687   211.804504

                             ****ORCA TERMINATED NORMALLY****
TOTAL RUN TIME: 0 days 1 hours 57 minutes 0 seconds 861 msec
