 Gaussian 09, Revision E.01,

 ----------------------------------------------------------------------
 #p m062x/def2TZVP opt=tight freq=noraman nosymm int=ultrafine scrf=(SM
 D,solvent=n,n-DiMethylAcetamide)
 ----------------------------------------------------------------------

 -----
 Title
 -----
 Symbolic Z-matrix:
 Charge =  0 Multiplicity = 1

 SCF Done:  E(RM062X) =  -823.699675319     A.U. after   14 cycles
 SCF Done:  E(RM062X) =  -823.700929385     A.U. after   10 cycles
 SCF Done:  E(RM062X) =  -823.701016465     A.U. after   10 cycles
 SCF Done:  E(RM062X) =  -823.701027146     A.U. after   10 cycles
 SCF Done:  E(RM062X) =  -823.701030964     A.U. after    9 cycles
 SCF Done:  E(RM062X) =  -823.701034015     A.U. after    8 cycles
 SCF Done:  E(RM062X) =  -823.701035195     A.U. after    8 cycles
 SCF Done:  E(RM062X) =  -823.701035425     A.U. after    7 cycles
 SCF Done:  E(RM062X) =  -823.701035544     A.U. after    7 cycles
 SCF Done:  E(RM062X) =  -823.701035700     A.U. after    8 cycles
 SCF Done:  E(RM062X) =  -823.701035745     A.U. after    8 cycles
 SCF Done:  E(RM062X) =  -823.701035746     A.U. after    5 cycles
 Optimization completed.
    -- Stationary point found.

 1\1\GINC-CN027\FOpt\RM062X\def2TZVP\C18H13N1O1\PNG4RJV\23-Nov-2021\0\\
 #p m062x/def2TZVP opt=tight freq=noraman nosymm int=ultrafine scrf=(SM
 D,solvent=n,n-DiMethylAcetamide)\\Title\\0,1\C,0.6549084413,-3.6018183
 084,-0.2075544635\C,-0.0907810794,-2.4336859802,-0.075097786\C,0.54076
 9498,-1.2028997658,0.0720287981\C,1.940417525,-1.1748522058,0.08074490
 96\C,2.6805990791,-2.3288532873,-0.064524936\C,2.0379215104,-3.5560386
 495,-0.2056470285\C,1.9402968253,1.1750508444,0.0808683357\C,0.5406453
 113,1.2029556,0.072152998\C,-0.0910289683,2.4336954488,-0.074845028\H,

 Normal termination of Gaussian 09 at Tue Nov 23 15:06:20 2021.

 --------------------------------------------------------------------
 #P Geom=AllCheck Guess=TCheck SCRF=Check GenChk RM062X/def2TZVP Freq
 --------------------------------------------------------------------

 Structure from the checkpoint file:  "cp.chk"
 -----
 Title
 -----
 Charge =  0 Multiplicity = 1

 SCF Done:  E(RM062X) =  -823.701035746     A.U. after    1 cycles

  Exact polarizability: 360.932  -0.000 369.896  -2.539   0.010 222.500
 Approx polarizability: 314.588   0.001 300.602  -0.722   0.007 207.344

                      1                      2                      3
                      A                      A                      A
 Frequencies --     32.3934                32.9938                39.3664
 Red. masses --      5.6029                 3.8439                 4.9767
 Frc consts  --      0.0035                 0.0025                 0.0045
 IR Inten    --      0.8475                 0.0271                 1.7088

                      4                      5                      6
                      A                      A                      A
 Frequencies --     68.1649               122.6750               185.0132
 Red. masses --      4.9078                 3.8052                 5.0600
 Frc consts  --      0.0134                 0.0337                 0.1020
 IR Inten    --      0.3722                 0.0204                 0.4701

                      7                      8                      9
                      A                      A                      A
 Frequencies --    219.7590               264.5034               270.7757
 Red. masses --      5.6309                 4.2424                 4.8547
 Frc consts  --      0.1602                 0.1749                 0.2097
 IR Inten    --      0.5160                 0.1942                 0.7800

                     10                     11                     12
                      A                      A                      A
 Frequencies --    277.3109               335.1394               403.3575
 Red. masses --      5.6484                 5.6041                 5.9139
 Frc consts  --      0.2559                 0.3709                 0.5669
 IR Inten    --      2.9238                 5.7574                 0.4991

                     13                     14                     15
                      A                      A                      A
 Frequencies --    421.9686               435.7925               451.3031
 Red. masses --      2.8553                 5.1156                 4.6797
 Frc consts  --      0.2995                 0.5724                 0.5616
 IR Inten    --      0.0076                13.4289                 0.6160

                     16                     17                     18
                      A                      A                      A
 Frequencies --    463.2030               482.2868               516.3288
 Red. masses --      3.3039                 3.9056                 4.6424
 Frc consts  --      0.4177                 0.5352                 0.7292
 IR Inten    --      0.0000                 6.0715                11.2651

                     19                     20                     21
                      A                      A                      A
 Frequencies --    567.2748               575.8362               599.8782
 Red. masses --      3.9642                 4.2875                 5.0689
 Frc consts  --      0.7516                 0.8376                 1.0747
 IR Inten    --      0.2065                 2.1031                22.6502

                     22                     23                     24
                      A                      A                      A
 Frequencies --    610.7378               629.1711               631.0591
 Red. masses --      7.4792                 5.9643                 6.4335
 Frc consts  --      1.6437                 1.3911                 1.5095
 IR Inten    --     11.8170                29.6612                 0.4631

                     25                     26                     27
                      A                      A                      A
 Frequencies --    669.3310               714.8117               724.1685
 Red. masses --      6.2722                 6.0112                 1.7467
 Frc consts  --      1.6556                 1.8097                 0.5397
 IR Inten    --     10.0226                 0.7532                88.2452

                     28                     29                     30
                      A                      A                      A
 Frequencies --    728.2746               746.8430               771.5151
 Red. masses --      4.0636                 4.2897                 1.2581
 Frc consts  --      1.2698                 1.4097                 0.4412
 IR Inten    --     15.3784                 4.0167               301.7828

                     31                     32                     33
                      A                      A                      A
 Frequencies --    772.3837               797.3999               815.8609
 Red. masses --      1.2334                 2.1557                 6.1074
 Frc consts  --      0.4335                 0.8076                 2.3952
 IR Inten    --      5.2836                12.9610                14.3739

                     34                     35                     36
                      A                      A                      A
 Frequencies --    878.4830               879.4797               882.3120
 Red. masses --      1.2702                 1.3589                 1.4440
 Frc consts  --      0.5776                 0.6193                 0.6623
 IR Inten    --      0.0097                 0.0426                 0.4707

                     37                     38                     39
                      A                      A                      A
 Frequencies --    892.4263               929.7550               947.8936
 Red. masses --      5.6811                 2.6802                 6.1838
 Frc consts  --      2.6658                 1.3651                 3.2736
 IR Inten    --     11.7737                 9.0502                 3.0282

                     40                     41                     42
                      A                      A                      A
 Frequencies --    959.2766               961.0563               982.6537
 Red. masses --      1.3578                 1.3709                 2.0626
 Frc consts  --      0.7362                 0.7460                 1.1735
 IR Inten    --      0.1206                18.4571                 8.0677

                     43                     44                     45
                      A                      A                      A
 Frequencies --    999.2119               999.5379              1020.9169
 Red. masses --      1.2698                 1.2731                 1.3785
 Frc consts  --      0.7470                 0.7494                 0.8465
 IR Inten    --      0.0017                 0.3071                 0.0107

                     46                     47                     48
                      A                      A                      A
 Frequencies --   1023.3118              1044.2547              1055.5495
 Red. masses --      6.1208                 1.3383                 2.0045
 Frc consts  --      3.7763                 0.8599                 1.3159
 IR Inten    --      3.6020                 0.0064                11.9385

                     49                     50                     51
                      A                      A                      A
 Frequencies --   1072.6641              1077.4508              1099.7331
 Red. masses --      2.0560                 1.7575                 1.4426
 Frc consts  --      1.3938                 1.2021                 1.0279
 IR Inten    --      6.9345                49.7123                17.6196

                     52                     53                     54
                      A                      A                      A
 Frequencies --   1123.2857              1139.6599              1165.1549
 Red. masses --      1.7731                 1.4454                 1.1244
 Frc consts  --      1.3182                 1.1061                 0.8994
 IR Inten    --      1.8291                28.1914                 0.6380

                     55                     56                     57
                      A                      A                      A
 Frequencies --   1166.8650              1169.9095              1181.3010
 Red. masses --      1.1380                 1.1587                 1.1182
 Frc consts  --      0.9129                 0.9344                 0.9194
 IR Inten    --      1.9138                 1.7943                 0.2726

                     58                     59                     60
                      A                      A                      A
 Frequencies --   1211.9971              1240.6181              1249.5876
 Red. masses --      3.2908                 2.2306                 3.4037
 Frc consts  --      2.8481                 2.0228                 3.1314
 IR Inten    --      0.1023                 0.7815                24.3828

                     61                     62                     63
                      A                      A                      A
 Frequencies --   1303.3095              1304.3431              1310.3001
 Red. masses --      4.6565                 6.3036                 1.6499
 Frc consts  --      4.6602                 6.3187                 1.6689
 IR Inten    --      6.3209               585.0326                20.4418

                     64                     65                     66
                      A                      A                      A
 Frequencies --   1314.9332              1339.9372              1343.1205
 Red. masses --      2.0952                 1.7557                 3.7827
 Frc consts  --      2.1345                 1.8572                 4.0205
 IR Inten    --     32.7658                 0.7888                 0.0367

                     67                     68                     69
                      A                      A                      A
 Frequencies --   1361.9321              1369.9767              1488.6042
 Red. masses --      3.2188                 3.6013                 2.3330
 Frc consts  --      3.5177                 3.9823                 3.0459
 IR Inten    --    140.3964               849.9151                 6.1639

                     70                     71                     72
                      A                      A                      A
 Frequencies --   1492.3999              1504.8224              1528.9583
 Red. masses --      2.7144                 2.6916                 3.2090
 Frc consts  --      3.5620                 3.5911                 4.4199
 IR Inten    --      1.4618                31.5297              1318.5422

                     73                     74                     75
                      A                      A                      A
 Frequencies --   1537.9686              1562.0708              1639.5877
 Red. masses --      2.5625                 3.4321                 6.5370
 Frc consts  --      3.5712                 4.9341                10.3537
 IR Inten    --     68.6955                60.7387                 1.2965

                     76                     77                     78
                      A                      A                      A
 Frequencies --   1657.4854              1659.4932              1666.0135
 Red. masses --      6.4617                 6.9746                 6.3363
 Frc consts  --     10.4592                11.3167                10.3620
 IR Inten    --      5.4502                53.5421                53.0781

                     79                     80                     81
                      A                      A                      A
 Frequencies --   1676.8724              1696.8064              3203.3866
 Red. masses --      7.8703                 7.6320                 1.0876
 Frc consts  --     13.0389                12.9465                 6.5757
 IR Inten    --      1.1954                27.0044                 1.0323

                     82                     83                     84
                      A                      A                      A
 Frequencies --   3208.6941              3209.8639              3210.0890
 Red. masses --      1.0894                 1.0868                 1.0870
 Frc consts  --      6.6084                 6.5976                 6.5994
 IR Inten    --      0.3483                 1.5348                 0.2564

                     85                     86                     87
                      A                      A                      A
 Frequencies --   3214.1689              3217.6102              3217.7306
 Red. masses --      1.0924                 1.0912                 1.0913
 Frc consts  --      6.6494                 6.6558                 6.6572
 IR Inten    --      5.6147                12.7224                 1.1871

                     88                     89                     90
                      A                      A                      A
 Frequencies --   3221.6488              3227.9927              3228.2804
 Red. masses --      1.0959                 1.0935                 1.0938
 Frc consts  --      6.7018                 6.7133                 6.7164
 IR Inten    --      9.1866                 4.0073                 7.2663

                     91                     92                     93
                      A                      A                      A
 Frequencies --   3229.2828              3233.6179              3233.9459
 Red. masses --      1.0990                 1.0974                 1.0972
 Frc consts  --      6.7525                 6.7608                 6.7609
 IR Inten    --      5.3488                 4.0582                 0.0956

 - Thermochemistry -
 -------------------
 Temperature   298.150 Kelvin.  Pressure   1.00000 Atm.
 Atom     1 has atomic number  6 and mass  12.00000

 Molecular mass:   259.09971 amu.
 Principal axes and moments of inertia in atomic units:
                           1         2         3
     Eigenvalues --  4115.882845010.402818461.70893
           X            0.99994  -0.00007   0.01065
           Y            0.00007   1.00000  -0.00006
           Z           -0.01065   0.00006   0.99994
 This molecule is an asymmetric top.
 Rotational symmetry number  1.
 Warning -- assumption of classical behavior for rotation
           may cause significant error
 Rotational temperatures (Kelvin)      0.02104     0.01729     0.01024
 Rotational constants (GHZ):           0.43848     0.36020     0.21328
 Zero-point vibrational energy     689925.1 (Joules/Mol)
                                  164.89606 (Kcal/Mol)
 Warning -- explicit consideration of  22 degrees of freedom as
           vibrations may cause significant error
 Vibrational temperatures:     46.61    47.47    56.64    98.07   176.50
          (Kelvin)            266.19   316.18   380.56   389.59   398.99
                              482.19   580.34   607.12   627.01   649.32
                              666.44   693.90   742.88   816.18   828.50
                              863.09   878.71   905.24   907.95   963.02
                             1028.45  1041.92  1047.82  1074.54  1110.04
                             1111.29  1147.28  1173.84  1263.94  1265.37
                             1269.45  1284.00  1337.71  1363.81  1380.18
                             1382.74  1413.82  1437.64  1438.11  1468.87
                             1472.32  1502.45  1518.70  1543.32  1550.21
                             1582.27  1616.16  1639.71  1676.40  1678.86
                             1683.24  1699.63  1743.79  1784.97  1797.88
                             1875.17  1876.66  1885.23  1891.89  1927.87
                             1932.45  1959.51  1971.09  2141.77  2147.23
                             2165.10  2199.83  2212.79  2247.47  2359.00
                             2384.75  2387.64  2397.02  2412.64  2441.32
                             4608.95  4616.59  4618.27  4618.60  4624.47
                             4629.42  4629.59  4635.23  4644.36  4644.77
                             4646.21  4652.45  4652.92

 Zero-point correction=                           0.262779 (Hartree/Particle)
 Thermal correction to Energy=                    0.277235
 Thermal correction to Enthalpy=                  0.278179
 Thermal correction to Gibbs Free Energy=         0.219593
 Sum of electronic and zero-point Energies=           -823.438257
 Sum of electronic and thermal Energies=              -823.423801
 Sum of electronic and thermal Enthalpies=            -823.422857
 Sum of electronic and thermal Free Energies=         -823.481443

                     E (Thermal)             CV                S
                      KCal/Mol        Cal/Mol-Kelvin    Cal/Mol-Kelvin
 Total                  173.967             59.505            123.305
 Electronic               0.000              0.000              0.000
 Translational            0.889              2.981             42.556
 Rotational               0.889              2.981             33.523
 Vibrational            172.190             53.544             47.226
 Vibration     1          0.594              1.983              5.677
 Vibration     2          0.594              1.983              5.641
 Vibration     3          0.594              1.981              5.291
 Vibration     4          0.598              1.969              4.206
 Vibration     5          0.610              1.930              3.058
 Vibration     6          0.631              1.860              2.277
 Vibration     7          0.647              1.811              1.961
 Vibration     8          0.671              1.738              1.632
 Vibration     9          0.674              1.727              1.591
 Vibration    10          0.678              1.715              1.550
 Vibration    11          0.716              1.605              1.235
 Vibration    12          0.769              1.463              0.950
 Vibration    13          0.784              1.422              0.885
 Vibration    14          0.796              1.392              0.840
 Vibration    15          0.810              1.358              0.792
 Vibration    16          0.821              1.332              0.757
 Vibration    17          0.839              1.289              0.704
 Vibration    18          0.871              1.214              0.619
 Vibration    19          0.923              1.102              0.510
 Vibration    20          0.932              1.084              0.493
 Vibration    21          0.958              1.032              0.450
 Vibration    22          0.970              1.009              0.432

 Optimization completed.
    -- Stationary point found.

 1\1\GINC-CN027\Freq\RM062X\def2TZVP\C18H13N1O1\PNG4RJV\23-Nov-2021\0\\
 #P Geom=AllCheck Guess=TCheck SCRF=Check GenChk RM062X/def2TZVP Freq\\
 Title\\0,1\C,0.6549084413,-3.6018183084,-0.2075544635\C,-0.0907810794,
 -2.4336859802,-0.075097786\C,0.540769498,-1.2028997658,0.0720287981\C,
 1.940417525,-1.1748522058,0.0807449096\C,2.6805990791,-2.3288532873,-0
 .064524936\C,2.0379215104,-3.5560386495,-0.2056470285\C,1.9402968253,1
 .1750508444,0.0808683357\C,0.5406453113,1.2029556,0.072152998\C,-0.091
 0289683,2.4336954488,-0.074845028\H,-1.1715903719,2.4816432382,-0.0770

 Normal termination of Gaussian 09 at Tue Nov 23 17:32:15 2021.
 Gaussian 09:  ES64L-G09RevE.01 30-Nov-2015

 ----------------------------------------------------------------------
 #p m062x chkbasis geom=allcheck Guess=Read int=ultrafine scrf=(SMD,sol
 vent=n,n-DiMethylAcetamide) td=(NStates=30)
 ----------------------------------------------------------------------

 Structure from the checkpoint file:  "cp.chk"
 -----
 Title
 -----
 Charge =  0 Multiplicity = 1

                         Standard orientation:
 ---------------------------------------------------------------------
 Center     Atomic      Atomic             Coordinates (Angstroms)
 Number     Number       Type             X           Y           Z
 ---------------------------------------------------------------------
      1          6           0       -0.659393    3.601874   -0.192799
      2          6           0        0.087728    2.433684   -0.069222
      3          6           0       -0.542125    1.202932    0.085283
      4          6           0       -1.941575    1.174979    0.110526
      5          6           0       -2.683341    2.329038   -0.025930
      6          6           0       -2.042291    3.556188   -0.174563
      7          6           0       -1.941613   -1.174924    0.110517
      8          6           0       -0.542164   -1.202923    0.085273
      9          6           0        0.087646   -2.433698   -0.069242
     10          1           0        1.168102   -2.481719   -0.084243
     11          6           0       -0.659516   -3.601862   -0.192825
     12          6           0       -2.042412   -3.556129   -0.174587
     13          6           0       -2.683419   -2.328958   -0.025945
     14          1           0        1.168187    2.481665   -0.084221
     15          1           0       -3.763352    2.254708   -0.002157
     16          1           0       -0.144428   -4.547211   -0.304800
     17          7           0        0.159941   -0.000006    0.235097
     18          6           0        1.585812   -0.000023    0.119549
     19          6           0        2.180623    0.000018   -1.136738
     20          6           0        2.362425   -0.000076    1.268676
     21          6           0        3.564333    0.000001   -1.240155
     22          6           0        3.748068   -0.000095    1.160819
     23          1           0        1.877020   -0.000105    2.236986
     24          6           0        4.348134   -0.000057   -0.091496
     25          1           0        4.357089   -0.000139    2.055891
     26          1           0        5.427710   -0.000070   -0.174091
     27          1           0       -3.763428   -2.254590   -0.002170
     28          1           0       -0.144271    4.547205   -0.304768
     29          8           0       -2.624484    0.000038    0.314853
     30          1           0       -2.627456   -4.460927   -0.272302
     31          1           0       -2.627303    4.461007   -0.272275
     32          1           0        4.031242    0.000032   -2.216961
     33          1           0        1.555650    0.000062   -2.022238
 ---------------------------------------------------------------------

 SCF Done:  E(RM062X) =  -823.701039171     A.U. after    5 cycles

 Excitation energies and oscillator strengths:

 Excited State   1:      Singlet-A      4.0200 eV  308.41 nm  f=0.0343  <S**2>=0.000
      68 -> 69         0.58177
      68 -> 70         0.22959
      68 -> 71         0.28100
      68 -> 73        -0.13351
 This state for optimization and/or second-order correction.
 Total Energy, E(TD-HF/TD-KS) =  -823.553305196
 Copying the excited state density for this state as the 1-particle RhoCI density.

 Excited State   2:      Singlet-A      4.3505 eV  284.99 nm  f=0.1906  <S**2>=0.000
      67 -> 69        -0.11378
      68 -> 69        -0.29882
      68 -> 70         0.50904
      68 -> 71         0.28788
      68 -> 73         0.18200

 Excited State   3:      Singlet-A      4.5018 eV  275.41 nm  f=0.0452  <S**2>=0.000
      67 -> 70        -0.10035
      68 -> 70        -0.40134
      68 -> 71         0.53684
      68 -> 73         0.11905

 Excited State   4:      Singlet-A      4.5315 eV  273.60 nm  f=0.0023  <S**2>=0.000
      67 -> 74        -0.10404
      68 -> 72         0.67270

 Excited State   5:      Singlet-A      5.0125 eV  247.35 nm  f=0.0441  <S**2>=0.000
      67 -> 71        -0.12342
      68 -> 69         0.23518
      68 -> 71        -0.15358
      68 -> 73         0.61564

 Excited State   6:      Singlet-A      5.5425 eV  223.70 nm  f=0.0007  <S**2>=0.000
      63 -> 70         0.21385
      63 -> 71        -0.14164
      65 -> 69         0.38451
      65 -> 70        -0.21037
      65 -> 73         0.22113
      66 -> 69         0.10479
      66 -> 70         0.30881
      66 -> 71        -0.26405

 Excited State   7:      Singlet-A      5.7572 eV  215.35 nm  f=1.0321  <S**2>=0.000
      63 -> 74        -0.10917
      67 -> 69         0.49938
      67 -> 70         0.23884
      67 -> 71         0.29432
      67 -> 73        -0.12560
      68 -> 71         0.10347
      68 -> 73         0.17889

 Excited State   8:      Singlet-A      5.8000 eV  213.77 nm  f=0.2198  <S**2>=0.000
      67 -> 72         0.21579
      68 -> 74         0.63570

 Excited State   9:      Singlet-A      5.9658 eV  207.82 nm  f=0.0106  <S**2>=0.000
      68 -> 75         0.53569
      68 -> 76         0.30850
      68 -> 78         0.26392

 Excited State  10:      Singlet-A      6.2269 eV  199.11 nm  f=0.0242  <S**2>=0.000
      63 -> 72        -0.12924
      64 -> 72         0.14107
      66 -> 72         0.11280
      67 -> 69        -0.35976
      67 -> 70         0.33631
      67 -> 71         0.36414
      67 -> 73         0.22846

 Excited State  11:      Singlet-A      6.2611 eV  198.02 nm  f=0.0528  <S**2>=0.000
      63 -> 69         0.10480
      63 -> 73         0.14137
      64 -> 71         0.10557
      65 -> 69        -0.10563
      65 -> 70        -0.28268
      65 -> 71         0.20424
      66 -> 69         0.47094
      66 -> 70        -0.19473
      66 -> 73         0.10405

 Excited State  12:      Singlet-A      6.2999 eV  196.80 nm  f=0.0507  <S**2>=0.000
      63 -> 69         0.26401
      63 -> 71         0.10601
      64 -> 70        -0.16689
      64 -> 71        -0.20510
      64 -> 73        -0.15080
      65 -> 70        -0.12159
      65 -> 71         0.14071
      66 -> 69        -0.12623
      66 -> 70        -0.17314
      66 -> 71        -0.10561
      66 -> 73         0.13351
      67 -> 72        -0.24739
      67 -> 74        -0.23692
      68 -> 72        -0.16214
      68 -> 74         0.20680

 Excited State  13:      Singlet-A      6.3379 eV  195.62 nm  f=0.6189  <S**2>=0.000
      63 -> 69         0.15729
      63 -> 73        -0.10110
      64 -> 69        -0.14688
      64 -> 70        -0.10652
      65 -> 70        -0.20078
      65 -> 71         0.11512
      66 -> 73         0.11079
      67 -> 72         0.52627
      67 -> 74        -0.10644
      68 -> 74        -0.16721

 Excited State  14:      Singlet-A      6.5664 eV  188.82 nm  f=0.0009  <S**2>=0.000
      67 -> 70         0.53609
      67 -> 71        -0.42310

 Excited State  15:      Singlet-A      6.6281 eV  187.06 nm  f=0.0154  <S**2>=0.000
      68 -> 75        -0.31691
      68 -> 76         0.57614
      68 -> 78        -0.11222

 Excited State  16:      Singlet-A      6.7494 eV  183.70 nm  f=0.4405  <S**2>=0.000
      63 -> 70        -0.11822
      63 -> 71         0.10428
      65 -> 69         0.46003
      65 -> 71        -0.19081
      66 -> 70        -0.39578
      66 -> 71         0.17466

 Excited State  17:      Singlet-A      6.7612 eV  183.38 nm  f=0.9972  <S**2>=0.000
      64 -> 69        -0.21486
      64 -> 70        -0.19794
      64 -> 71        -0.28530
      65 -> 70         0.34917
      65 -> 71        -0.12839
      66 -> 69         0.36269
      66 -> 70         0.10142
      66 -> 73         0.10734

 Excited State  18:      Singlet-A      6.8695 eV  180.49 nm  f=0.0045  <S**2>=0.000
      63 -> 72        -0.18121
      66 -> 72         0.24768
      67 -> 69         0.30137
      67 -> 71        -0.14498
      67 -> 73         0.51763

 Excited State  19:      Singlet-A      6.9210 eV  179.14 nm  f=0.0037  <S**2>=0.000
      63 -> 69         0.13508
      64 -> 69         0.51583
      64 -> 73        -0.15408
      65 -> 70         0.21856
      66 -> 71        -0.18178
      67 -> 72         0.26124

 Excited State  20:      Singlet-A      6.9649 eV  178.01 nm  f=0.3878  <S**2>=0.000
      63 -> 72         0.11480
      64 -> 72         0.55172
      66 -> 72        -0.28124
      67 -> 71        -0.17162
      67 -> 73         0.18630

 Excited State  21:      Singlet-A      7.0747 eV  175.25 nm  f=0.0590  <S**2>=0.000
      64 -> 69         0.14580
      65 -> 69         0.22788
      65 -> 70         0.17426
      65 -> 71         0.44608
      66 -> 70         0.26121
      66 -> 71         0.29768

 Excited State  22:      Singlet-A      7.0958 eV  174.73 nm  f=0.0002  <S**2>=0.000
      64 -> 76        -0.12685
      68 -> 77         0.67099

 Excited State  23:      Singlet-A      7.2025 eV  172.14 nm  f=0.0944  <S**2>=0.000
      63 -> 70        -0.19620
      64 -> 69         0.24629
      64 -> 70        -0.17767
      65 -> 70        -0.28181
      65 -> 71        -0.30180
      66 -> 70         0.20136
      66 -> 71         0.33560

 Excited State  24:      Singlet-A      7.2141 eV  171.86 nm  f=0.0151  <S**2>=0.000
      63 -> 69         0.28186
      63 -> 70        -0.22647
      64 -> 71         0.12860
      67 -> 75        -0.12103
      68 -> 75        -0.17083
      68 -> 78         0.36786
      68 -> 79        -0.19285
      68 -> 82         0.16438
      68 -> 83        -0.13002

 Excited State  25:      Singlet-A      7.2569 eV  170.85 nm  f=0.0135  <S**2>=0.000
      63 -> 69         0.36128
      63 -> 70        -0.20027
      64 -> 69        -0.11355
      64 -> 70         0.18996
      64 -> 71         0.11327
      65 -> 71        -0.10819
      68 -> 75         0.13273
      68 -> 78        -0.27000
      68 -> 79         0.30015
      68 -> 82        -0.10126

 Excited State  26:      Singlet-A      7.2593 eV  170.79 nm  f=0.0094  <S**2>=0.000
      63 -> 72        -0.15353
      64 -> 72         0.33538
      65 -> 72         0.15533
      66 -> 72         0.48292
      67 -> 71        -0.10462
      67 -> 73        -0.27869

 Excited State  27:      Singlet-A      7.2864 eV  170.16 nm  f=0.0185  <S**2>=0.000
      63 -> 69         0.10822
      63 -> 70         0.35385
      63 -> 71        -0.15101
      64 -> 70         0.32076
      64 -> 71        -0.13299
      66 -> 71         0.30180
      68 -> 78         0.13678
      68 -> 79         0.21049

 Excited State  28:      Singlet-A      7.3143 eV  169.51 nm  f=0.0035  <S**2>=0.000
      63 -> 69        -0.19034
      63 -> 70        -0.17987
      63 -> 71         0.14320
      66 -> 71        -0.12853
      67 -> 76        -0.12551
      68 -> 78         0.14306
      68 -> 79         0.49711
      68 -> 83        -0.12399

 Excited State  29:      Singlet-A      7.3512 eV  168.66 nm  f=0.0001  <S**2>=0.000
      63 -> 72         0.17678
      65 -> 72         0.65390
      67 -> 73         0.14389

 Excited State  30:      Singlet-A      7.4003 eV  167.54 nm  f=0.0039  <S**2>=0.000
      63 -> 70        -0.20160
      63 -> 71         0.21140
      64 -> 70         0.45537
      64 -> 71        -0.32698
      67 -> 74        -0.10011
      68 -> 79        -0.16329

 The electronic state is 1-A.
 Alpha  occ. eigenvalues --  -19.67492 -14.78832 -10.60723 -10.60720 -10.59384
 Alpha  occ. eigenvalues --  -10.59382 -10.58402 -10.54609 -10.54579 -10.54499
 Alpha  occ. eigenvalues --  -10.54466 -10.54367 -10.54141 -10.54141 -10.54139
 Alpha  occ. eigenvalues --  -10.54139 -10.53812 -10.53812 -10.53651 -10.53651
 Alpha  occ. eigenvalues --   -1.22063  -1.09035  -0.97908  -0.96861  -0.94406
 Alpha  occ. eigenvalues --   -0.86937  -0.86103  -0.85992  -0.85073  -0.83224
 Alpha  occ. eigenvalues --   -0.79815  -0.73576  -0.73534  -0.69892  -0.68610
 Alpha  occ. eigenvalues --   -0.67467  -0.65346  -0.64516  -0.61365  -0.58092
 Alpha  occ. eigenvalues --   -0.57070  -0.55850  -0.54759  -0.54047  -0.54022
 Alpha  occ. eigenvalues --   -0.53010  -0.50710  -0.50434  -0.50241  -0.50005
 Alpha  occ. eigenvalues --   -0.49191  -0.46336  -0.45321  -0.45302  -0.44578
 Alpha  occ. eigenvalues --   -0.43877  -0.42513  -0.41731  -0.41655  -0.41151
 Alpha  occ. eigenvalues --   -0.39308  -0.38964  -0.32560  -0.31831  -0.31555
 Alpha  occ. eigenvalues --   -0.31146  -0.29074  -0.23312
 Alpha virt. eigenvalues --    0.00377   0.01158   0.01553   0.02255   0.03134
 Alpha virt. eigenvalues --    0.05910   0.08341   0.08715   0.10116   0.10282
 Alpha virt. eigenvalues --    0.10737   0.11741   0.12641   0.12942   0.13550

 Mulliken charges:
               1
     1  C   -0.215612
     2  C   -0.203130
     3  C    0.093457
     4  C    0.193952
     5  C   -0.268636
     6  C   -0.194331
     7  C    0.193954
     8  C    0.093454
     9  C   -0.203127
    10  H    0.211678
    11  C   -0.215610
    12  C   -0.194330
    13  C   -0.268637
    14  H    0.211679
    15  H    0.187623
    16  H    0.183233
    17  N   -0.125405
    18  C   -0.046831
    19  C   -0.208693
    20  C   -0.155282
    21  C   -0.139820
    22  C   -0.151480
    23  H    0.186332
    24  C   -0.171052
    25  H    0.185686
    26  H    0.186484
    27  H    0.187623
    28  H    0.183233
    29  O   -0.288441
    30  H    0.182980
    31  H    0.182979
    32  H    0.186676
    33  H    0.199394
 Sum of Mulliken charges =  -0.00000

 Dipole moment (field-independent basis, Debye):
    X=              3.1763    Y=             -0.0001    Z=             -0.5418  Tot=              3.2222
 Quadrupole moment (field-independent basis, Debye-Ang):
   XX=            -98.6014   YY=           -107.8398   ZZ=           -115.3827
   XY=             -0.0001   XZ=              0.7808   YZ=             -0.0004

 Normal termination of Gaussian 09 at Tue Nov 23 19:28:02 2021.
