 Gaussian 09, Revision E.01,

 ----------------------------------------------------------------------
 #p B97D3/def2TZVP opt=tight freq=noraman nosymm int=ultrafine scrf=(SM
 D,solvent=n,n-DiMethylAcetamide)
 ----------------------------------------------------------------------

 -----
 Title
 -----
 Symbolic Z-matrix:
 Charge =  0 Multiplicity = 1

 SCF Done:  E(RB97D3) =  -823.486032593     A.U. after   14 cycles
 SCF Done:  E(RB97D3) =  -823.487629827     A.U. after   10 cycles
 SCF Done:  E(RB97D3) =  -823.487724677     A.U. after   10 cycles
 SCF Done:  E(RB97D3) =  -823.487823350     A.U. after   10 cycles
 SCF Done:  E(RB97D3) =  -823.487893710     A.U. after    9 cycles
 SCF Done:  E(RB97D3) =  -823.487998097     A.U. after   10 cycles
 SCF Done:  E(RB97D3) =  -823.488014824     A.U. after    9 cycles
 SCF Done:  E(RB97D3) =  -823.488018498     A.U. after    9 cycles
 SCF Done:  E(RB97D3) =  -823.488018912     A.U. after    8 cycles
 SCF Done:  E(RB97D3) =  -823.488019149     A.U. after    8 cycles
 SCF Done:  E(RB97D3) =  -823.488019214     A.U. after    7 cycles
 SCF Done:  E(RB97D3) =  -823.488019217     A.U. after    5 cycles
 SCF Done:  E(RB97D3) =  -823.488019218     A.U. after    4 cycles
 SCF Done:  E(RB97D3) =  -823.488019218     A.U. after    4 cycles
 Optimization completed.
    -- Stationary point found.

 1\1\GINC-CN083\FOpt\RB97D3\def2TZVP\C18H13N1O1\PNG4RJV\23-Nov-2021\0\\
 #p B97D3/def2TZVP opt=tight freq=noraman nosymm int=ultrafine scrf=(SM
 D,solvent=n,n-DiMethylAcetamide)\\Title\\0,1\C,0.6489774234,-3.6419213
 255,-0.047218245\C,-0.0920373565,-2.4553187621,-0.0443576328\C,0.54930
 44694,-1.210407766,-0.0475444228\C,1.9580598221,-1.1886056481,-0.05368
 52434\C,2.6939999761,-2.3647067939,-0.0565664916\C,2.0404316681,-3.603
 58557,-0.0534164147\C,1.9579361541,1.1888165366,-0.0535663795\C,0.5491
 785046,1.2104710355,-0.0474247392\C,-0.0922925776,2.4553152462,-0.0441

 Normal termination of Gaussian 09 at Tue Nov 23 12:38:40 2021.

 --------------------------------------------------------------------
 #P Geom=AllCheck Guess=TCheck SCRF=Check GenChk RB97D3/def2TZVP Freq
 --------------------------------------------------------------------

 Structure from the checkpoint file:  "cp.chk"
 -----
 Title
 -----
 Charge =  0 Multiplicity = 1

 SCF Done:  E(RB97D3) =  -823.488019218     A.U. after    1 cycles

  Exact polarizability: 385.903  -0.002 433.912  -0.650   0.010 227.518
 Approx polarizability: 509.366  -0.002 546.669  -0.921   0.013 292.957

                      1                      2                      3
                      A                      A                      A
 Frequencies --     23.3023                35.7508                37.2145
 Red. masses --      6.4958                 4.5918                 3.7813
 Frc consts  --      0.0021                 0.0035                 0.0031
 IR Inten    --      1.0514                 0.0979                 0.0000

                      4                      5                      6
                      A                      A                      A
 Frequencies --     62.9434               114.8895               186.7125
 Red. masses --      5.0070                 3.8103                 5.4105
 Frc consts  --      0.0117                 0.0296                 0.1111
 IR Inten    --      0.3951                 0.0000                 0.2520

                      7                      8                      9
                      A                      A                      A
 Frequencies --    201.3754               255.5564               261.8997
 Red. masses --      5.3749                 4.2488                 4.9902
 Frc consts  --      0.1284                 0.1635                 0.2017
 IR Inten    --      0.0613                 0.4524                 0.0000

                     10                     11                     12
                      A                      A                      A
 Frequencies --    262.2635               317.5330               401.3544
 Red. masses --      5.3725                 5.9500                 6.7558
 Frc consts  --      0.2177                 0.3535                 0.6412
 IR Inten    --      2.6385                 7.7589                 0.2855

                     13                     14                     15
                      A                      A                      A
 Frequencies --    408.4847               409.1139               439.7548
 Red. masses --      4.7031                 2.9073                 4.9815
 Frc consts  --      0.4624                 0.2867                 0.5676
 IR Inten    --      6.2754                 0.0000                 0.1026

                     16                     17                     18
                      A                      A                      A
 Frequencies --    443.4309               461.4867               502.0680
 Red. masses --      3.1880                 3.7758                 4.4591
 Frc consts  --      0.3693                 0.4738                 0.6623
 IR Inten    --      0.0000                 6.6769                12.2821

                     19                     20                     21
                      A                      A                      A
 Frequencies --    545.3723               550.9220               587.2155
 Red. masses --      4.3344                 4.6777                 5.1738
 Frc consts  --      0.7596                 0.8365                 1.0511
 IR Inten    --      0.0006                 0.0244                21.8848

                     22                     23                     24
                      A                      A                      A
 Frequencies --    598.4908               617.9784               621.5319
 Red. masses --      8.2760                 6.1924                 6.4941
 Frc consts  --      1.7466                 1.3933                 1.4781
 IR Inten    --      8.9681                31.2757                 0.3852

                     25                     26                     27
                      A                      A                      A
 Frequencies --    656.9863               678.6704               696.6528
 Red. masses --      6.4153                 5.8038                 1.6303
 Frc consts  --      1.6315                 1.5750                 0.4662
 IR Inten    --     13.3359                 0.0001                95.2268

                     28                     29                     30
                      A                      A                      A
 Frequencies --    697.0467               701.0653               724.6874
 Red. masses --      6.0576                 4.9205                 1.2320
 Frc consts  --      1.7341                 1.4249                 0.3812
 IR Inten    --      0.0002                 0.6786               292.3618

                     31                     32                     33
                      A                      A                      A
 Frequencies --    727.7059               761.6786               789.6095
 Red. masses --      1.2331                 2.2909                 6.4771
 Frc consts  --      0.3847                 0.7831                 2.3793
 IR Inten    --      0.0000                12.8061                10.5669

                     34                     35                     36
                      A                      A                      A
 Frequencies --    820.3675               822.5887               833.1699
 Red. masses --      1.3635                 1.4265                 1.2461
 Frc consts  --      0.5407                 0.5687                 0.5097
 IR Inten    --      0.0000                 0.3366                 0.0000

                     37                     38                     39
                      A                      A                      A
 Frequencies --    860.7217               888.1646               889.9504
 Red. masses --      5.2809                 1.3299                 1.3427
 Frc consts  --      2.3051                 0.6181                 0.6266
 IR Inten    --     11.3008                 0.0000                17.1717

                     40                     41                     42
                      A                      A                      A
 Frequencies --    899.3865               918.1140               918.6056
 Red. masses --      2.0226                 1.2156                 1.2176
 Frc consts  --      0.9639                 0.6037                 0.6054
 IR Inten    --      0.0671                 1.4379                 0.0004

                     43                     44                     45
                      A                      A                      A
 Frequencies --    928.0279               943.2736               954.9684
 Red. masses --      6.2270                 2.9190                 1.3669
 Frc consts  --      3.1597                 1.5302                 0.7345
 IR Inten    --      2.4179                 3.6290                 0.0005

                     46                     47                     48
                      A                      A                      A
 Frequencies --    978.2111              1003.3678              1026.9648
 Red. masses --      1.2883                 6.2368                 2.0919
 Frc consts  --      0.7263                 3.6994                 1.2999
 IR Inten    --      0.0317                 1.5411                15.4939

                     49                     50                     51
                      A                      A                      A
 Frequencies --   1040.4795              1046.7261              1074.4397
 Red. masses --      2.2074                 1.8457                 1.5168
 Frc consts  --      1.4080                 1.1915                 1.0317
 IR Inten    --      6.2141                56.6084                18.4422

                     52                     53                     54
                      A                      A                      A
 Frequencies --   1090.8601              1114.2179              1148.1195
 Red. masses --      2.1674                 1.6003                 1.0955
 Frc consts  --      1.5196                 1.1706                 0.8508
 IR Inten    --     18.9772                28.8468                 1.5226

                     55                     56                     57
                      A                      A                      A
 Frequencies --   1150.7618              1151.8893              1161.2150
 Red. masses --      1.1164                 1.0769                 1.1462
 Frc consts  --      0.8711                 0.8419                 0.9106
 IR Inten    --      0.0221                 0.0565                 0.2889

                     58                     59                     60
                      A                      A                      A
 Frequencies --   1173.9256              1188.5575              1198.0403
 Red. masses --      3.1449                 2.4777                 3.2859
 Frc consts  --      2.5535                 2.0622                 2.7787
 IR Inten    --      0.1201               211.9748                25.5824

                     61                     62                     63
                      A                      A                      A
 Frequencies --   1256.3441              1277.3569              1305.4014
 Red. masses --      2.0588                 1.9862                 1.6673
 Frc consts  --      1.9146                 1.9094                 1.6740
 IR Inten    --    533.2064                53.1327                 2.0121

                     64                     65                     66
                      A                      A                      A
 Frequencies --   1313.1830              1316.4821              1332.0892
 Red. masses --      3.7319                 2.5057                 3.9419
 Frc consts  --      3.7917                 2.5586                 4.1211
 IR Inten    --    778.7154                94.8825                 2.8419

                     67                     68                     69
                      A                      A                      A
 Frequencies --   1341.5867              1360.2491              1441.7633
 Red. masses --      5.5715                 8.0033                 2.4007
 Frc consts  --      5.9083                 8.7249                 2.9402
 IR Inten    --    256.9161                11.8818                 1.9794

                     70                     71                     72
                      A                      A                      A
 Frequencies --   1448.4131              1460.2211              1476.2681
 Red. masses --      2.1971                 2.5181                 2.8473
 Frc consts  --      2.7157                 3.1634                 3.6561
 IR Inten    --      4.8674                16.8923              1138.9307

                     73                     74                     75
                      A                      A                      A
 Frequencies --   1491.9495              1507.4809              1561.0117
 Red. masses --      2.3263                 3.0492                 5.6240
 Frc consts  --      3.0509                 4.0826                 8.0743
 IR Inten    --     61.2389                40.0948                22.0285

                     76                     77                     78
                      A                      A                      A
 Frequencies --   1583.0505              1587.5544              1593.8531
 Red. masses --      6.4744                 5.9951                 5.8743
 Frc consts  --      9.5596                 8.9023                 8.7924
 IR Inten    --     58.9355                 5.5080                49.4898

                     79                     80                     81
                      A                      A                      A
 Frequencies --   1599.7185              1625.2476              3123.4781
 Red. masses --      7.3373                 7.3671                 1.0854
 Frc consts  --     11.0631                11.4653                 6.2392
 IR Inten    --      1.4312                27.9407                 0.3539

                     82                     83                     84
                      A                      A                      A
 Frequencies --   3128.1602              3128.3615              3131.0985
 Red. masses --      1.0855                 1.0857                 1.0880
 Frc consts  --      6.2584                 6.2601                 6.2845
 IR Inten    --      3.4484                 1.9681                 7.3952

                     85                     86                     87
                      A                      A                      A
 Frequencies --   3137.3648              3137.4533              3139.2652
 Red. masses --      1.0898                 1.0899                 1.0916
 Frc consts  --      6.3199                 6.3209                 6.3383
 IR Inten    --     35.1977                 7.8398                32.2474

                     88                     89                     90
                      A                      A                      A
 Frequencies --   3145.8196              3149.5275              3149.6988
 Red. masses --      1.0946                 1.0946                 1.0947
 Frc consts  --      6.3823                 6.3972                 6.3984
 IR Inten    --     30.0666                28.9296                26.0710

                     91                     92                     93
                      A                      A                      A
 Frequencies --   3150.8508              3158.7036              3159.1617
 Red. masses --      1.0978                 1.0931                 1.0931
 Frc consts  --      6.4217                 6.4256                 6.4274
 IR Inten    --      5.9110                 6.5860                 6.6949

 - Thermochemistry -
 -------------------
 Temperature   298.150 Kelvin.  Pressure   1.00000 Atm.
 Atom     1 has atomic number  6 and mass  12.00000

 Molecular mass:   259.09971 amu.
 Principal axes and moments of inertia in atomic units:
                           1         2         3
     Eigenvalues --  4192.330185040.933588597.14960
           X            0.99999  -0.00006   0.00352
           Y            0.00006   1.00000  -0.00005
           Z           -0.00352   0.00005   0.99999
 This molecule is an asymmetric top.
 Rotational symmetry number  1.
 Warning -- assumption of classical behavior for rotation
           may cause significant error
 Rotational temperatures (Kelvin)      0.02066     0.01718     0.01007
 Rotational constants (GHZ):           0.43049     0.35802     0.20992
 Zero-point vibrational energy     668258.1 (Joules/Mol)
                                  159.71752 (Kcal/Mol)
 Warning -- explicit consideration of  23 degrees of freedom as
           vibrations may cause significant error
 Vibrational temperatures:     33.53    51.44    53.54    90.56   165.30
          (Kelvin)            268.64   289.73   367.69   376.81   377.34
                              456.86   577.46   587.72   588.62   632.71
                              638.00   663.98   722.36   784.67   792.65
                              844.87   861.09   889.13   894.24   945.26
                              976.45  1002.33  1002.89  1008.68  1042.66
                             1047.01  1095.88  1136.07  1180.32  1183.52
                             1198.74  1238.39  1277.87  1280.44  1294.01
                             1320.96  1321.67  1335.22  1357.16  1373.98
                             1407.43  1443.62  1477.57  1497.02  1506.00
                             1545.88  1569.50  1603.11  1651.89  1655.69
                             1657.31  1670.73  1689.01  1710.07  1723.71
                             1807.60  1837.83  1878.18  1889.38  1894.12
                             1916.58  1930.24  1957.09  2074.37  2083.94
                             2100.93  2124.02  2146.58  2168.93  2245.94
                             2277.65  2284.13  2293.20  2301.64  2338.37
                             4493.98  4500.72  4501.01  4504.95  4513.96
                             4514.09  4516.70  4526.13  4531.46  4531.71
                             4533.37  4544.66  4545.32

 Zero-point correction=                           0.254526 (Hartree/Particle)
 Thermal correction to Energy=                    0.269561
 Thermal correction to Enthalpy=                  0.270505
 Thermal correction to Gibbs Free Energy=         0.210638
 Sum of electronic and zero-point Energies=           -823.233493
 Sum of electronic and thermal Energies=              -823.218458
 Sum of electronic and thermal Enthalpies=            -823.217514
 Sum of electronic and thermal Free Energies=         -823.277381

                     E (Thermal)             CV                S
                      KCal/Mol        Cal/Mol-Kelvin    Cal/Mol-Kelvin
 Total                  169.152             62.099            126.000
 Electronic               0.000              0.000              0.000
 Translational            0.889              2.981             42.556
 Rotational               0.889              2.981             33.563
 Vibrational            167.374             56.137             49.882
 Vibration     1          0.593              1.985              6.331
 Vibration     2          0.594              1.982              5.482
 Vibration     3          0.594              1.982              5.402
 Vibration     4          0.597              1.972              4.363
 Vibration     5          0.608              1.937              3.185
 Vibration     6          0.632              1.858              2.260
 Vibration     7          0.638              1.838              2.120
 Vibration     8          0.666              1.753              1.692
 Vibration     9          0.669              1.743              1.649
 Vibration    10          0.670              1.742              1.647
 Vibration    11          0.704              1.640              1.323
 Vibration    12          0.767              1.467              0.958
 Vibration    13          0.773              1.452              0.932
 Vibration    14          0.773              1.450              0.930
 Vibration    15          0.800              1.383              0.827
 Vibration    16          0.803              1.375              0.816
 Vibration    17          0.819              1.335              0.762
 Vibration    18          0.857              1.245              0.653
 Vibration    19          0.901              1.150              0.554
 Vibration    20          0.906              1.138              0.542
 Vibration    21          0.944              1.059              0.472
 Vibration    22          0.956              1.035              0.452
 Vibration    23          0.978              0.994              0.420

 1\1\GINC-CN083\Freq\RB97D3\def2TZVP\C18H13N1O1\PNG4RJV\23-Nov-2021\0\\
 #P Geom=AllCheck Guess=TCheck SCRF=Check GenChk RB97D3/def2TZVP Freq\\
 Title\\0,1\C,0.6489774234,-3.6419213255,-0.047218245\C,-0.0920373565,-
 2.4553187621,-0.0443576328\C,0.5493044694,-1.210407766,-0.0475444228\C
 ,1.9580598221,-1.1886056481,-0.0536852434\C,2.6939999761,-2.3647067939
 ,-0.0565664916\C,2.0404316681,-3.60358557,-0.0534164147\C,1.9579361541
 ,1.1888165366,-0.0535663795\C,0.5491785046,1.2104710355,-0.0474247392\
 C,-0.0922925776,2.4553152462,-0.0441167922\H,-1.1765023756,2.492226507

 Normal termination of Gaussian 09 at Tue Nov 23 13:57:27 2021.
 Gaussian 09:  ES64L-G09RevE.01 30-Nov-2015

 ----------------------------------------------------------------------
 #p B97D3 chkbasis geom=allcheck Guess=Read int=ultrafine scrf=(SMD,sol
 vent=n,n-DiMethylAcetamide) td=(NStates=30)
 ----------------------------------------------------------------------

 Structure from the checkpoint file:  "cp.chk"
 -----
 Title
 -----
 Charge =  0 Multiplicity = 1

                         Standard orientation:
 ---------------------------------------------------------------------
 Center     Atomic      Atomic             Coordinates (Angstroms)
 Number     Number       Type             X           Y           Z
 ---------------------------------------------------------------------
      1          6           0        0.648239    3.641960   -0.001426
      2          6           0       -0.092713    2.455315   -0.001617
      3          6           0        0.548707    1.210441   -0.000628
      4          6           0        1.957477    1.188720    0.000551
      5          6           0        2.693355    2.364864    0.000780
      6          6           0        2.039708    3.603705   -0.000129
      7          6           0        1.957490   -1.188702    0.000551
      8          6           0        0.548720   -1.210438   -0.000626
      9          6           0       -0.092687   -2.455319   -0.001612
     10          1           0       -1.176905   -2.492292   -0.002525
     11          6           0        0.648278   -3.641956   -0.001420
     12          6           0        2.039747   -3.603686   -0.000125
     13          6           0        2.693380   -2.364838    0.000780
     14          1           0       -1.176932    2.492277   -0.002532
     15          1           0        3.778327    2.300349    0.001785
     16          1           0        0.123388   -4.593674   -0.002192
     17          7           0       -0.154040   -0.000002   -0.000690
     18          6           0       -1.587323   -0.000009   -0.000090
     19          6           0       -2.277197   -0.000003    1.212879
     20          6           0       -2.278424   -0.000020   -1.212352
     21          6           0       -3.672861   -0.000006    1.211430
     22          6           0       -3.674095   -0.000024   -1.209481
     23          1           0       -1.719475   -0.000025   -2.144225
     24          6           0       -4.371114   -0.000017    0.001329
     25          1           0       -4.216356   -0.000032   -2.151627
     26          1           0       -5.458290   -0.000020    0.001885
     27          1           0        3.778352   -2.300312    0.001782
     28          1           0        0.123339    4.593673   -0.002202
     29          8           0        2.667195    0.000013    0.001684
     30          1           0        2.622322   -4.520635    0.000075
     31          1           0        2.622273    4.520660    0.000071
     32          1           0       -4.214161   -0.000002    2.154131
     33          1           0       -1.717283    0.000006    2.144173
 ---------------------------------------------------------------------

 SCF Done:  E(RB97D3) =  -823.488019174     A.U. after    3 cycles

 Excitation energies and oscillator strengths:

 Excited State   1:      Singlet-A      2.8773 eV  430.90 nm  f=0.0004  <S**2>=0.000
      68 -> 69         0.68349
      68 -> 71         0.15552
 This state for optimization and/or second-order correction.
 Total Energy, E(TD-HF/TD-KS) =  -823.382278843
 Copying the excited state density for this state as the 1-particle RhoCI density.

 Excited State   2:      Singlet-A      2.9145 eV  425.40 nm  f=0.0000  <S**2>=0.000
      68 -> 70         0.70710

 Excited State   3:      Singlet-A      3.2450 eV  382.08 nm  f=0.0642  <S**2>=0.000
      68 -> 69        -0.17091
      68 -> 71         0.65518
      68 -> 73         0.18692

 Excited State   4:      Singlet-A      3.5740 eV  346.90 nm  f=0.1635  <S**2>=0.000
      67 -> 69        -0.15026
      67 -> 71         0.10103
      68 -> 71        -0.18257
      68 -> 73         0.65537

 Excited State   5:      Singlet-A      3.6471 eV  339.95 nm  f=0.0009  <S**2>=0.000
      68 -> 72         0.68793

 Excited State   6:      Singlet-A      4.3260 eV  286.60 nm  f=0.0000  <S**2>=0.000
      67 -> 70         0.70709

 Excited State   7:      Singlet-A      4.3551 eV  284.69 nm  f=0.1034  <S**2>=0.000
      67 -> 69         0.60409
      67 -> 71         0.30651
      67 -> 73         0.16978

 Excited State   8:      Singlet-A      4.5290 eV  273.76 nm  f=0.0601  <S**2>=0.000
      64 -> 69        -0.18615
      64 -> 71         0.15983
      66 -> 69        -0.13935
      68 -> 74         0.63549

 Excited State   9:      Singlet-A      4.7584 eV  260.56 nm  f=0.5885  <S**2>=0.000
      64 -> 72        -0.11161
      66 -> 72        -0.11002
      67 -> 69        -0.28946
      67 -> 71         0.59686
      68 -> 73        -0.12332

 Excited State  10:      Singlet-A      4.8975 eV  253.16 nm  f=0.0049  <S**2>=0.000
      63 -> 69        -0.15246
      63 -> 71        -0.12315
      64 -> 69         0.12186
      66 -> 69        -0.33454
      66 -> 71        -0.10728
      66 -> 73         0.13450
      67 -> 72         0.54204

 Excited State  11:      Singlet-A      4.9718 eV  249.37 nm  f=0.0000  <S**2>=0.000
      65 -> 69         0.51217
      66 -> 70         0.47581

 Excited State  12:      Singlet-A      4.9957 eV  248.18 nm  f=0.0649  <S**2>=0.000
      63 -> 72         0.13361
      64 -> 72        -0.17596
      66 -> 72         0.23526
      67 -> 73         0.61414

 Excited State  13:      Singlet-A      5.0059 eV  247.67 nm  f=0.0674  <S**2>=0.000
      63 -> 71         0.12104
      63 -> 73         0.11073
      64 -> 69         0.11203
      64 -> 71         0.31275
      66 -> 69         0.50295
      66 -> 71        -0.19966
      67 -> 72         0.23626

 Excited State  14:      Singlet-A      5.0574 eV  245.15 nm  f=0.0004  <S**2>=0.000
      64 -> 70         0.66544
      65 -> 69        -0.14416
      66 -> 70         0.13929

 Excited State  15:      Singlet-A      5.0700 eV  244.55 nm  f=0.0022  <S**2>=0.000
      63 -> 70         0.31624
      64 -> 70        -0.23555
      65 -> 69        -0.32811
      65 -> 71         0.29983
      66 -> 70         0.37119

 Excited State  16:      Singlet-A      5.0945 eV  243.37 nm  f=0.0005  <S**2>=0.000
      63 -> 69         0.17514
      63 -> 71        -0.11215
      64 -> 69         0.52187
      64 -> 71         0.26232
      64 -> 73         0.18525
      66 -> 71         0.20417
      67 -> 72        -0.11325

 Excited State  17:      Singlet-A      5.1368 eV  241.36 nm  f=0.0142  <S**2>=0.000
      63 -> 69         0.45820
      64 -> 69        -0.19790
      64 -> 73        -0.13827
      66 -> 71         0.36589
      66 -> 73         0.16501
      67 -> 72         0.21058

 Excited State  18:      Singlet-A      5.2074 eV  238.09 nm  f=0.0010  <S**2>=0.000
      63 -> 70         0.18530
      65 -> 71        -0.22110
      68 -> 75         0.63812

 Excited State  19:      Singlet-A      5.2159 eV  237.70 nm  f=0.0008  <S**2>=0.000
      63 -> 70        -0.33665
      65 -> 69         0.10438
      65 -> 71         0.52484
      68 -> 75         0.29737

 Excited State  20:      Singlet-A      5.2765 eV  234.98 nm  f=0.0038  <S**2>=0.000
      68 -> 76         0.70281

 Excited State  21:      Singlet-A      5.3448 eV  231.97 nm  f=0.0177  <S**2>=0.000
      63 -> 69         0.28792
      63 -> 71         0.22233
      63 -> 73        -0.27011
      66 -> 69        -0.12212
      66 -> 71        -0.33982
      66 -> 73         0.37457

 Excited State  22:      Singlet-A      5.3797 eV  230.46 nm  f=0.0379  <S**2>=0.000
      63 -> 69        -0.15903
      63 -> 71         0.40607
      63 -> 73         0.18444
      64 -> 69         0.10832
      64 -> 71        -0.25981
      64 -> 73         0.16286
      66 -> 71         0.20651
      66 -> 73         0.29824
      67 -> 74         0.15956

 Excited State  23:      Singlet-A      5.4259 eV  228.50 nm  f=0.0000  <S**2>=0.000
      65 -> 72         0.70702

 Excited State  24:      Singlet-A      5.4378 eV  228.01 nm  f=0.0000  <S**2>=0.000
      63 -> 72        -0.39944
      66 -> 72         0.56561
      67 -> 73        -0.10685

 Excited State  25:      Singlet-A      5.4419 eV  227.83 nm  f=0.0082  <S**2>=0.000
      63 -> 70        -0.32370
      65 -> 73         0.59891
      66 -> 70         0.14384

 Excited State  26:      Singlet-A      5.6106 eV  220.98 nm  f=0.0019  <S**2>=0.000
      63 -> 71         0.17403
      63 -> 73        -0.15193
      64 -> 71         0.10605
      64 -> 73        -0.41818
      66 -> 73        -0.11629
      67 -> 74         0.48876

 Excited State  27:      Singlet-A      5.6332 eV  220.09 nm  f=0.0000  <S**2>=0.000
      68 -> 77         0.70697

 Excited State  28:      Singlet-A      5.7315 eV  216.32 nm  f=0.2835  <S**2>=0.000
      63 -> 72         0.26613
      64 -> 72         0.58126
      64 -> 74        -0.10410
      66 -> 72         0.12338
      66 -> 74         0.15758

 Excited State  29:      Singlet-A      5.7622 eV  215.17 nm  f=0.1485  <S**2>=0.000
      63 -> 71         0.26626
      63 -> 73        -0.22201
      64 -> 69        -0.23537
      64 -> 71         0.35809
      64 -> 73         0.27904
      65 -> 70        -0.11062
      66 -> 71         0.16897
      68 -> 74        -0.18850

 Excited State  30:      Singlet-A      5.8057 eV  213.55 nm  f=0.0012  <S**2>=0.000
      68 -> 78         0.70566

 The electronic state is 1-A.
 Alpha  occ. eigenvalues --  -18.80131 -14.03769  -9.96631  -9.96630  -9.95235
 Alpha  occ. eigenvalues --   -9.95233  -9.94524  -9.90828  -9.90828  -9.90755
 Alpha  occ. eigenvalues --   -9.90746  -9.90679  -9.90190  -9.90190  -9.90120
 Alpha  occ. eigenvalues --   -9.90120  -9.89888  -9.89888  -9.89766  -9.89766
 Alpha  occ. eigenvalues --   -1.00412  -0.89865  -0.79334  -0.78563  -0.76297
 Alpha  occ. eigenvalues --   -0.69997  -0.69407  -0.69171  -0.68353  -0.66598
 Alpha  occ. eigenvalues --   -0.63865  -0.58908  -0.58647  -0.55450  -0.54265
 Alpha  occ. eigenvalues --   -0.53406  -0.52186  -0.50792  -0.48388  -0.45024
 Alpha  occ. eigenvalues --   -0.44724  -0.42479  -0.42219  -0.41876  -0.41834
 Alpha  occ. eigenvalues --   -0.40161  -0.38963  -0.38761  -0.38528  -0.38374
 Alpha  occ. eigenvalues --   -0.37735  -0.34343  -0.33607  -0.33370  -0.33286
 Alpha  occ. eigenvalues --   -0.33272  -0.32134  -0.31383  -0.31277  -0.30618
 Alpha  occ. eigenvalues --   -0.29128  -0.28477  -0.23903  -0.23323  -0.23275
 Alpha  occ. eigenvalues --   -0.22894  -0.20638  -0.15453
 Alpha virt. eigenvalues --   -0.05160  -0.04741  -0.04272  -0.03336  -0.03102
 Alpha virt. eigenvalues --   -0.00035   0.03487   0.03941   0.05232   0.05897
 Alpha virt. eigenvalues --    0.06662   0.07427   0.08029   0.08297   0.09079

 Mulliken charges:
               1
     1  C   -0.185924
     2  C   -0.203464
     3  C    0.067336
     4  C    0.233586
     5  C   -0.284584
     6  C   -0.129168
     7  C    0.233586
     8  C    0.067336
     9  C   -0.203464
    10  H    0.148447
    11  C   -0.185924
    12  C   -0.129168
    13  C   -0.284585
    14  H    0.148447
    15  H    0.119192
    16  H    0.130765
    17  N    0.119608
    18  C    0.134456
    19  C   -0.226225
    20  C   -0.226038
    21  C   -0.093178
    22  C   -0.093193
    23  H    0.129143
    24  C   -0.116080
    25  H    0.135361
    26  H    0.137221
    27  H    0.119192
    28  H    0.130765
    29  O   -0.221777
    30  H    0.131905
    31  H    0.131905
    32  H    0.135357
    33  H    0.129165
 Sum of Mulliken charges =  -0.00000

 Dipole moment (field-independent basis, Debye):
    X=             -3.3982    Y=             -0.0000    Z=             -0.0005  Tot=              3.3982
 Quadrupole moment (field-independent basis, Debye-Ang):
   XX=           -100.0373   YY=           -110.7644   ZZ=           -114.4886
   XY=              0.0000   XZ=              0.0091   YZ=              0.0001

 Normal termination of Gaussian 09 at Tue Nov 23 14:58:00 2021.
