                         Program Version 5.0.2 -  RELEASE  -
|  1> %maxcore 20000
|  2> %pal
|  3>  nprocs= 4
|  4> end
|  5> ! RI-wPBEPP86   def2-TZVP def2/J def2-TZVP/C RIJCOSX CPCM TightSCF
|  6> %TDDFT
|  7>    NROOTS   30
|  8>    dcorr 1
|  9>    TDA      FALSE
| 10> END
| 11>
| 12> %CPCM
| 13>    SMD          TRUE
| 14>    SMDsolvent   "N,N-DIMETHYLACETAMIDE"
| 15> END
| 16>
| 17>
| 18> * xyz 0 1
| 19> C                   0.65203800    3.62186300   -0.00084300
| 20> C                  -0.08658100    2.44394500   -0.00194200
| 21> C                   0.54696400    1.20455600   -0.00146800
| 22> C                   1.94708500    1.17979400    0.00016300
| 23> C                   2.68011500    2.34800100    0.00134900
| 24> C                   2.03414100    3.58044100    0.00088400
| 25> C                   1.94710100   -1.17977100    0.00014300
| 26> C                   0.54698100   -1.20455200   -0.00149400
| 27> C                  -0.08654800   -2.44394900   -0.00201200
| 28> H                  -1.16781900   -2.48300400   -0.00329500
| 29> C                   0.65208600   -3.62185800   -0.00093500
| 30> C                   2.03418800   -3.58041700    0.00081000
| 31> C                   2.68014600   -2.34796800    0.00130700
| 32> H                  -1.16785300    2.48298700   -0.00320800
| 33> H                   3.76040800    2.27808100    0.00268500
| 34> H                   0.13153200   -4.57070900   -0.00139800
| 35> N                  -0.15499900   -0.00000300   -0.00255200
| 36> C                  -1.58361100   -0.00001100   -0.00094300
| 37> C                  -2.27146300   -0.00016700    1.20521900
| 38> C                  -2.27450600    0.00013900   -1.20534000
| 39> C                  -3.65828800   -0.00017400    1.20409400
| 40> C                  -3.66135100    0.00013700   -1.20063600
| 41> H                  -1.71972200    0.00025900   -2.13569300
| 42> C                  -4.35311100   -0.00002100    0.00260400
| 43> H                  -4.20221700    0.00025600   -2.13846200
| 44> H                  -5.43576100   -0.00002400    0.00397300
| 45> H                   3.76043800   -2.27803500    0.00264900
| 46> H                   0.13147200    4.57070800   -0.00127400
| 47> O                   2.65010600    0.00001600    0.00064500
| 48> H                   2.61622500   -4.49228100    0.00170700
| 49> H                   2.61616500    4.49231300    0.00179600
| 50> H                  -4.19675100   -0.00029600    2.14330400
| 51> H                  -1.71429800   -0.00028300    2.13415300
| 52> *
| 53>
| 54>
| 55>                          ****END OF INPUT****

CARTESIAN COORDINATES (ANGSTROEM)
---------------------------------
  C      0.652038    3.621863   -0.000843
  C     -0.086581    2.443945   -0.001942
  C      0.546964    1.204556   -0.001468
  C      1.947085    1.179794    0.000163
  C      2.680115    2.348001    0.001349
  C      2.034141    3.580441    0.000884
  C      1.947101   -1.179771    0.000143
  C      0.546981   -1.204552   -0.001494
  C     -0.086548   -2.443949   -0.002012
  H     -1.167819   -2.483004   -0.003295
  C      0.652086   -3.621858   -0.000935
  C      2.034188   -3.580417    0.000810
  C      2.680146   -2.347968    0.001307
  H     -1.167853    2.482987   -0.003208
  H      3.760408    2.278081    0.002685
  H      0.131532   -4.570709   -0.001398
  N     -0.154999   -0.000003   -0.002552
  C     -1.583611   -0.000011   -0.000943
  C     -2.271463   -0.000167    1.205219
  C     -2.274506    0.000139   -1.205340
  C     -3.658288   -0.000174    1.204094
  C     -3.661351    0.000137   -1.200636
  H     -1.719722    0.000259   -2.135693
  C     -4.353111   -0.000021    0.002604
  H     -4.202217    0.000256   -2.138462
  H     -5.435761   -0.000024    0.003973
  H      3.760438   -2.278035    0.002649
  H      0.131472    4.570708   -0.001274
  O      2.650106    0.000016    0.000645
  H      2.616225   -4.492281    0.001707
  H      2.616165    4.492313    0.001796
  H     -4.196751   -0.000296    2.143304
  H     -1.714298   -0.000283    2.134153

 Total Charge           Charge          ....    0
 Multiplicity           Mult            ....    1
 Number of Electrons    NEL             ....  136
 Basis Dimension        Dim             ....  698

ORBITAL ENERGIES
----------------

  NO   OCC          E(Eh)            E(eV)
   0   2.0000     -20.107491      -547.1526
   1   2.0000     -15.168723      -412.7619
   2   2.0000     -10.936297      -297.5918
   3   2.0000     -10.936278      -297.5913
   4   2.0000     -10.923775      -297.2510
   5   2.0000     -10.923759      -297.2506
   6   2.0000     -10.911014      -296.9038
   7   2.0000     -10.871546      -295.8298
   8   2.0000     -10.871528      -295.8293
   9   2.0000     -10.870633      -295.8050
  10   2.0000     -10.870024      -295.7884
  11   2.0000     -10.869310      -295.7690
  12   2.0000     -10.868173      -295.7380
  13   2.0000     -10.868172      -295.7380
  14   2.0000     -10.867306      -295.7144
  15   2.0000     -10.867306      -295.7144
  16   2.0000     -10.864931      -295.6498
  17   2.0000     -10.864931      -295.6498
  18   2.0000     -10.862524      -295.5843
  19   2.0000     -10.862524      -295.5843
  20   2.0000      -1.362023       -37.0625
  21   2.0000      -1.228166       -33.4201
  22   2.0000      -1.109783       -30.1987
  23   2.0000      -1.098826       -29.9006
  24   2.0000      -1.072351       -29.1802
  25   2.0000      -0.988898       -26.9093
  26   2.0000      -0.980259       -26.6742
  27   2.0000      -0.980247       -26.6739
  28   2.0000      -0.969876       -26.3917
  29   2.0000      -0.950609       -25.8674
  30   2.0000      -0.912615       -24.8335
  31   2.0000      -0.839468       -22.8431
  32   2.0000      -0.839354       -22.8400
  33   2.0000      -0.799932       -21.7672
  34   2.0000      -0.786929       -21.4134
  35   2.0000      -0.774303       -21.0699
  36   2.0000      -0.743239       -20.2246
  37   2.0000      -0.742501       -20.2045
  38   2.0000      -0.701086       -19.0775
  39   2.0000      -0.666915       -18.1477
  40   2.0000      -0.657318       -17.8865
  41   2.0000      -0.639192       -17.3933
  42   2.0000      -0.631865       -17.1939
  43   2.0000      -0.625725       -17.0269
  44   2.0000      -0.624856       -17.0032
  45   2.0000      -0.613725       -16.7003
  46   2.0000      -0.587546       -15.9879
  47   2.0000      -0.585543       -15.9334
  48   2.0000      -0.581958       -15.8359
  49   2.0000      -0.579039       -15.7565
  50   2.0000      -0.570438       -15.5224
  51   2.0000      -0.540881       -14.7181
  52   2.0000      -0.527524       -14.3547
  53   2.0000      -0.518312       -14.1040
  54   2.0000      -0.518120       -14.0988
  55   2.0000      -0.510060       -13.8794
  56   2.0000      -0.501624       -13.6499
  57   2.0000      -0.492585       -13.4039
  58   2.0000      -0.490723       -13.3532
  59   2.0000      -0.482181       -13.1208
  60   2.0000      -0.468253       -12.7418
  61   2.0000      -0.452039       -12.3006
  62   2.0000      -0.369599       -10.0573
  63   2.0000      -0.363319        -9.8864
  64   2.0000      -0.357413        -9.7257
  65   2.0000      -0.353278        -9.6132
  66   2.0000      -0.333129        -9.0649
  67   2.0000      -0.272285        -7.4093
  68   0.0000       0.061578         1.6756
  69   0.0000       0.072426         1.9708
  70   0.0000       0.072989         1.9861
  71   0.0000       0.080597         2.1932
  72   0.0000       0.093357         2.5404

MULLIKEN ATOMIC CHARGES
-----------------------
   0 C :   -0.220915
   1 C :   -0.264410
   2 C :    0.132255
   3 C :    0.214006
   4 C :   -0.317848
   5 C :   -0.169097
   6 C :    0.213720
   7 C :    0.133243
   8 C :   -0.265772
   9 H :    0.206382
  10 C :   -0.220272
  11 C :   -0.170492
  12 C :   -0.316066
  13 H :    0.206586
  14 H :    0.183320
  15 H :    0.185028
  16 N :    0.023838
  17 C :    0.018898
  18 C :   -0.266579
  19 C :   -0.265482
  20 C :   -0.125950
  21 C :   -0.126604
  22 H :    0.189084
  23 C :   -0.167450
  24 H :    0.188094
  25 H :    0.188069
  26 H :    0.183472
  27 H :    0.185094
  28 O :   -0.303735
  29 H :    0.186015
  30 H :    0.186009
  31 H :    0.188394
  32 H :    0.189162
Sum of atomic charges:   -0.0000000

LOEWDIN ATOMIC CHARGES
----------------------
   0 C :   -0.161901
   1 C :   -0.126791
   2 C :   -0.143757
   3 C :   -0.197781
   4 C :   -0.122248
   5 C :   -0.168350
   6 C :   -0.197778
   7 C :   -0.143757
   8 C :   -0.126791
   9 H :    0.165804
  10 C :   -0.161901
  11 C :   -0.168353
  12 C :   -0.122245
  13 H :    0.165805
  14 H :    0.163372
  15 H :    0.157719
  16 N :    0.269584
  17 C :   -0.181113
  18 C :   -0.103242
  19 C :   -0.103260
  20 C :   -0.141799
  21 C :   -0.141802
  22 H :    0.165790
  23 C :   -0.142056
  24 H :    0.158870
  25 H :    0.158173
  26 H :    0.163371
  27 H :    0.157720
  28 O :    0.291527
  29 H :    0.156256
  30 H :    0.156254
  31 H :    0.158871
  32 H :    0.165809

  Mayer bond orders larger than 0.100000
B(  0-C ,  1-C ) :   1.4008 B(  0-C ,  5-C ) :   1.4265 B(  0-C , 27-H ) :   0.9759
B(  1-C ,  2-C ) :   1.3717 B(  1-C , 13-H ) :   0.9518 B(  2-C ,  3-C ) :   1.3447
B(  2-C , 16-N ) :   1.0857 B(  3-C ,  4-C ) :   1.4653 B(  3-C , 28-O ) :   1.0081
B(  4-C ,  5-C ) :   1.3638 B(  4-C , 14-H ) :   0.9792 B(  5-C , 30-H ) :   0.9795
B(  6-C ,  7-C ) :   1.3447 B(  6-C , 12-C ) :   1.4652 B(  6-C , 28-O ) :   1.0082
B(  7-C ,  8-C ) :   1.3709 B(  7-C , 16-N ) :   1.0856 B(  8-C ,  9-H ) :   0.9522
B(  8-C , 10-C ) :   1.4008 B( 10-C , 11-C ) :   1.4266 B( 10-C , 15-H ) :   0.9759
B( 11-C , 12-C ) :   1.3636 B( 11-C , 29-H ) :   0.9799 B( 12-C , 26-H ) :   0.9789
B( 16-N , 17-C ) :   0.7269 B( 17-C , 18-C ) :   1.4838 B( 17-C , 19-C ) :   1.4835
B( 18-C , 20-C ) :   1.4136 B( 18-C , 32-H ) :   0.9746 B( 19-C , 21-C ) :   1.4130
B( 19-C , 22-H ) :   0.9747 B( 20-C , 23-C ) :   1.3896 B( 20-C , 31-H ) :   0.9717
B( 21-C , 23-C ) :   1.3891 B( 21-C , 24-H ) :   0.9725 B( 23-C , 25-H ) :   0.9725

MP2 TOTAL ENERGY:     -823.361625496 Eh

-----------------------------------------------------------------------------
         ABSORPTION SPECTRUM VIA TRANSITION ELECTRIC DIPOLE MOMENTS
-----------------------------------------------------------------------------
State   Energy    Wavelength  fosc         T2        TX        TY        TZ
        (cm-1)      (nm)                 (au**2)    (au)      (au)      (au)
-----------------------------------------------------------------------------
   1   31513.6    317.3   0.052737606   0.55093   0.00000  -0.74225   0.00000
   2   33168.1    301.5   0.241212118   2.39416  -0.00000   1.54731   0.00006
   3   34413.1    290.6   0.000690247   0.00660  -0.08126  -0.00001   0.00029
   4   35471.3    281.9   0.000000017   0.00000  -0.00035  -0.00019   0.00001
   5   42323.9    236.3   0.001881821   0.01464   0.00042  -0.00012  -0.12098
   6   48553.6    206.0   0.032882874   0.22296   0.47218   0.00000  -0.00036
   7   39657.8    252.2   0.002033864   0.01688  -0.00006  -0.12994  -0.00028
   8   50702.5    197.2   0.001290682   0.00838   0.09154  -0.00004  -0.00010
   9   45271.4    220.9   1.353907076   9.84556   0.00004  -3.13776   0.00003
  10   47403.4    211.0   0.023327266   0.16201  -0.00159   0.00017   0.40250
  11   49377.3    202.5   0.000230536   0.00154   0.00002   0.03921   0.00007
  12   50655.9    197.4   1.703957150  11.07399  -3.32776  -0.00003  -0.00212
  13   49956.1    200.2   0.343209785   2.26176   1.50391   0.00001   0.00048
  14   54051.6    185.0   0.656689607   3.99970  -0.00114   0.00024  -1.99992
  15   54099.9    184.8   0.186509755   1.13496   1.06534  -0.00001  -0.00200
  16   53110.6    188.3   0.000045287   0.00028  -0.00116   0.00002  -0.01671
  17   53647.8    186.4   0.087684615   0.53808  -0.73354  -0.00001  -0.00077
  18   55588.7    179.9   0.220768355   1.30745  -0.00001   1.14344  -0.00001
  19   58084.2    172.2   0.000020582   0.00012   0.00007  -0.01080  -0.00002
  20   53725.3    186.1   0.000000249   0.00000   0.00017   0.00122   0.00005
  21   57724.3    173.2   0.040038155   0.22834  -0.47785   0.00000   0.00072
  22   59777.1    167.3   0.002401423   0.01323  -0.00035   0.00003   0.11500
  23   62494.5    160.0   0.000000004   0.00000  -0.00000  -0.00013  -0.00007
  24   59977.5    166.7   0.004606729   0.02529   0.00002  -0.00039   0.15902
  25   55925.8    178.8   0.019130871   0.11262  -0.00001  -0.33558  -0.00021
  26   58123.3    172.0   0.001142967   0.00647   0.00118  -0.00020   0.08045
  27   61685.1    162.1   0.000743030   0.00397   0.00258   0.00006  -0.06292
  28   62320.3    160.5   0.000000278   0.00000  -0.00017  -0.00120  -0.00002
  29   62481.6    160.0   0.001826730   0.00962  -0.09806  -0.00020   0.00305
  30   63340.7    157.9   0.011633917   0.06047  -0.00009   0.24590  -0.00009

FINAL SINGLE POINT ENERGY      -821.555180884012

DIPOLE MOMENT
-------------
                                X             Y             Z
Electronic contribution:      5.18227       0.00003      -0.00586
Nuclear contribution   :     -6.44909      -0.00003       0.00683
                        -----------------------------------------
Total Dipole Moment    :     -1.26682       0.00001       0.00097
                        -----------------------------------------
Magnitude (a.u.)       :      1.26682
Magnitude (Debye)      :      3.21999

Rotational constants in cm-1:     0.014520     0.012031     0.007065
Rotational constants in MHz :   435.289597   360.687687   211.804504

                             ****ORCA TERMINATED NORMALLY****
TOTAL RUN TIME: 0 days 4 hours 43 minutes 19 seconds 824 msec
