                         Program Version 5.0.2 -  RELEASE  -
|  1> %maxcore 38400
|  2> %pal
|  3>  nprocs= 4
|  4> end
|  5> !STEOM-DLPNO-CCSD DEF2-TZVP DEF2-TZVP/C def2/J TightSCF TightPNO CPCM
|  6> %MDCI
|  7>    Dorootwise true
|  8>    OTHRESH 0.005
|  9>    VTHRESH 0.005
| 10>    TCutPNOSingles 1e-11
| 11>    DTol 1e-5
| 12>    NROOTS  25
| 13>    DOSOLV  TRUE
| 14>    MAXITER 500
| 15> END
| 16> %CPCM
| 17>    SMD          TRUE
| 18>    SMDsolvent   "N,N-DIMETHYLACETAMIDE"
| 19> END
| 20>
| 21>
| 22> * xyz 0 1
| 23> C                   0.65203800    3.62186300   -0.00084300
| 24> C                  -0.08658100    2.44394500   -0.00194200
| 25> C                   0.54696400    1.20455600   -0.00146800
| 26> C                   1.94708500    1.17979400    0.00016300
| 27> C                   2.68011500    2.34800100    0.00134900
| 28> C                   2.03414100    3.58044100    0.00088400
| 29> C                   1.94710100   -1.17977100    0.00014300
| 30> C                   0.54698100   -1.20455200   -0.00149400
| 31> C                  -0.08654800   -2.44394900   -0.00201200
| 32> H                  -1.16781900   -2.48300400   -0.00329500
| 33> C                   0.65208600   -3.62185800   -0.00093500
| 34> C                   2.03418800   -3.58041700    0.00081000
| 35> C                   2.68014600   -2.34796800    0.00130700
| 36> H                  -1.16785300    2.48298700   -0.00320800
| 37> H                   3.76040800    2.27808100    0.00268500
| 38> H                   0.13153200   -4.57070900   -0.00139800
| 39> N                  -0.15499900   -0.00000300   -0.00255200
| 40> C                  -1.58361100   -0.00001100   -0.00094300
| 41> C                  -2.27146300   -0.00016700    1.20521900
| 42> C                  -2.27450600    0.00013900   -1.20534000
| 43> C                  -3.65828800   -0.00017400    1.20409400
| 44> C                  -3.66135100    0.00013700   -1.20063600
| 45> H                  -1.71972200    0.00025900   -2.13569300
| 46> C                  -4.35311100   -0.00002100    0.00260400
| 47> H                  -4.20221700    0.00025600   -2.13846200
| 48> H                  -5.43576100   -0.00002400    0.00397300
| 49> H                   3.76043800   -2.27803500    0.00264900
| 50> H                   0.13147200    4.57070800   -0.00127400
| 51> O                   2.65010600    0.00001600    0.00064500
| 52> H                   2.61622500   -4.49228100    0.00170700
| 53> H                   2.61616500    4.49231300    0.00179600
| 54> H                  -4.19675100   -0.00029600    2.14330400
| 55> H                  -1.71429800   -0.00028300    2.13415300
| 56> *
| 57>
| 58>
| 59>                          ****END OF INPUT****

CARTESIAN COORDINATES (ANGSTROEM)
---------------------------------
  C      0.652038    3.621863   -0.000843
  C     -0.086581    2.443945   -0.001942
  C      0.546964    1.204556   -0.001468
  C      1.947085    1.179794    0.000163
  C      2.680115    2.348001    0.001349
  C      2.034141    3.580441    0.000884
  C      1.947101   -1.179771    0.000143
  C      0.546981   -1.204552   -0.001494
  C     -0.086548   -2.443949   -0.002012
  H     -1.167819   -2.483004   -0.003295
  C      0.652086   -3.621858   -0.000935
  C      2.034188   -3.580417    0.000810
  C      2.680146   -2.347968    0.001307
  H     -1.167853    2.482987   -0.003208
  H      3.760408    2.278081    0.002685
  H      0.131532   -4.570709   -0.001398
  N     -0.154999   -0.000003   -0.002552
  C     -1.583611   -0.000011   -0.000943
  C     -2.271463   -0.000167    1.205219
  C     -2.274506    0.000139   -1.205340
  C     -3.658288   -0.000174    1.204094
  C     -3.661351    0.000137   -1.200636
  H     -1.719722    0.000259   -2.135693
  C     -4.353111   -0.000021    0.002604
  H     -4.202217    0.000256   -2.138462
  H     -5.435761   -0.000024    0.003973
  H      3.760438   -2.278035    0.002649
  H      0.131472    4.570708   -0.001274
  O      2.650106    0.000016    0.000645
  H      2.616225   -4.492281    0.001707
  H      2.616165    4.492313    0.001796
  H     -4.196751   -0.000296    2.143304
  H     -1.714298   -0.000283    2.134153

 Total Charge           Charge          ....    0
 Multiplicity           Mult            ....    1
 Number of Electrons    NEL             ....  136
 Basis Dimension        Dim             ....  698

ORBITAL ENERGIES
----------------

  NO   OCC          E(Eh)            E(eV)
   0   2.0000     -20.600921      -560.5796
   1   2.0000     -15.592375      -424.2901
   2   2.0000     -11.299551      -307.4764
   3   2.0000     -11.299530      -307.4759
   4   2.0000     -11.287403      -307.1459
   5   2.0000     -11.287386      -307.1454
   6   2.0000     -11.272453      -306.7390
   7   2.0000     -11.234348      -305.7022
   8   2.0000     -11.234144      -305.6966
   9   2.0000     -11.233472      -305.6783
  10   2.0000     -11.232739      -305.6584
  11   2.0000     -11.232090      -305.6407
  12   2.0000     -11.231980      -305.6377
  13   2.0000     -11.231979      -305.6377
  14   2.0000     -11.230111      -305.5869
  15   2.0000     -11.230111      -305.5869
  16   2.0000     -11.228677      -305.5478
  17   2.0000     -11.228676      -305.5478
  18   2.0000     -11.225752      -305.4682
  19   2.0000     -11.225752      -305.4682
  20   2.0000      -1.440350       -39.1939
  21   2.0000      -1.294985       -35.2383
  22   2.0000      -1.170039       -31.8384
  23   2.0000      -1.158701       -31.5298
  24   2.0000      -1.130562       -30.7642
  25   2.0000      -1.039963       -28.2988
  26   2.0000      -1.031741       -28.0751
  27   2.0000      -1.030948       -28.0535
  28   2.0000      -1.021725       -27.8025
  29   2.0000      -1.001760       -27.2593
  30   2.0000      -0.959706       -26.1149
  31   2.0000      -0.875589       -23.8260
  32   2.0000      -0.874337       -23.7919
  33   2.0000      -0.835924       -22.7467
  34   2.0000      -0.822814       -22.3899
  35   2.0000      -0.808193       -21.9921
  36   2.0000      -0.775025       -21.0895
  37   2.0000      -0.763532       -20.7768
  38   2.0000      -0.722856       -19.6699
  39   2.0000      -0.690207       -18.7815
  40   2.0000      -0.681356       -18.5406
  41   2.0000      -0.659678       -17.9507
  42   2.0000      -0.655500       -17.8371
  43   2.0000      -0.647289       -17.6136
  44   2.0000      -0.645537       -17.5660
  45   2.0000      -0.634709       -17.2713
  46   2.0000      -0.609017       -16.5722
  47   2.0000      -0.604266       -16.4429
  48   2.0000      -0.601112       -16.3571
  49   2.0000      -0.599021       -16.3002
  50   2.0000      -0.589884       -16.0516
  51   2.0000      -0.560389       -15.2490
  52   2.0000      -0.542684       -14.7672
  53   2.0000      -0.536558       -14.6005
  54   2.0000      -0.520805       -14.1718
  55   2.0000      -0.518283       -14.1032
  56   2.0000      -0.517197       -14.0736
  57   2.0000      -0.508770       -13.8443
  58   2.0000      -0.502081       -13.6623
  59   2.0000      -0.496067       -13.4987
  60   2.0000      -0.483381       -13.1535
  61   2.0000      -0.454223       -12.3600
  62   2.0000      -0.356997        -9.7144
  63   2.0000      -0.350475        -9.5369
  64   2.0000      -0.343808        -9.3555
  65   2.0000      -0.339332        -9.2337
  66   2.0000      -0.321944        -8.7605
  67   2.0000      -0.261647        -7.1198
  68   0.0000       0.105815         2.8794
  69   0.0000       0.117062         3.1854
  70   0.0000       0.117544         3.1985
  71   0.0000       0.122953         3.3457
  72   0.0000       0.139618         3.7992

E(0)                                       ...   -818.808383348
E(0)                                       ...   -818.808383348
E(CORR)(strong-pairs)                      ...     -3.231713590
E(CORR)(weak-pairs)                        ...     -0.006135813
E(CORR)(corrected)                         ...     -3.237849403
E(TOT)                                     ...   -822.046232751

MULLIKEN ATOMIC CHARGES
-----------------------
   0 C :   -0.198436
   1 C :   -0.232768
   2 C :    0.091693
   3 C :    0.187947
   4 C :   -0.291717
   5 C :   -0.151669
   6 C :    0.187947
   7 C :    0.091693
   8 C :   -0.232768
   9 H :    0.179353
  10 C :   -0.198436
  11 C :   -0.151669
  12 C :   -0.291717
  13 H :    0.179352
  14 H :    0.163486
  15 H :    0.168398
  16 N :    0.024007
  17 C :    0.126288
  18 C :   -0.285938
  19 C :   -0.281052
  20 C :   -0.105406
  21 C :   -0.102540
  22 H :    0.168621
  23 C :   -0.156583
  24 H :    0.172134
  25 H :    0.173365
  26 H :    0.163486
  27 H :    0.168398
  28 O :   -0.244393
  29 H :    0.169348
  30 H :    0.169348
  31 H :    0.172884
  32 H :    0.167343
Sum of atomic charges:   -0.0000000

LOEWDIN ATOMIC CHARGES
----------------------
   0 C :   -0.163672
   1 C :   -0.127168
   2 C :   -0.148743
   3 C :   -0.204649
   4 C :   -0.127422
   5 C :   -0.167205
   6 C :   -0.204650
   7 C :   -0.148743
   8 C :   -0.127168
   9 H :    0.164838
  10 C :   -0.163672
  11 C :   -0.167205
  12 C :   -0.127422
  13 H :    0.164838
  14 H :    0.161963
  15 H :    0.156604
  16 N :    0.284611
  17 C :   -0.174493
  18 C :   -0.104540
  19 C :   -0.104514
  20 C :   -0.141252
  21 C :   -0.141185
  22 H :    0.164418
  23 C :   -0.142266
  24 H :    0.158071
  25 H :    0.157363
  26 H :    0.161963
  27 H :    0.156604
  28 O :    0.321430
  29 H :    0.155369
  30 H :    0.155369
  31 H :    0.158127
  32 H :    0.164402

  Mayer bond orders larger than 0.100000
B(  0-C ,  1-C ) :   1.2916 B(  0-C ,  5-C ) :   1.3105 B(  0-C , 27-H ) :   0.9325
B(  1-C ,  2-C ) :   1.2664 B(  1-C , 13-H ) :   0.9172 B(  2-C ,  3-C ) :   1.2293
B(  2-C , 16-N ) :   1.0470 B(  3-C ,  4-C ) :   1.3689 B(  3-C , 28-O ) :   0.9749
B(  4-C ,  5-C ) :   1.2560 B(  4-C , 14-H ) :   0.9385 B(  5-C , 30-H ) :   0.9364
B(  6-C ,  7-C ) :   1.2293 B(  6-C , 12-C ) :   1.3689 B(  6-C , 28-O ) :   0.9749
B(  7-C ,  8-C ) :   1.2664 B(  7-C , 16-N ) :   1.0470 B(  8-C ,  9-H ) :   0.9172
B(  8-C , 10-C ) :   1.2916 B( 10-C , 11-C ) :   1.3105 B( 10-C , 15-H ) :   0.9325
B( 11-C , 12-C ) :   1.2560 B( 11-C , 29-H ) :   0.9364 B( 12-C , 26-H ) :   0.9385
B( 16-N , 17-C ) :   0.6428 B( 17-C , 18-C ) :   1.3627 B( 17-C , 19-C ) :   1.3724
B( 18-C , 20-C ) :   1.3027 B( 18-C , 32-H ) :   0.9411 B( 19-C , 21-C ) :   1.3124
B( 19-C , 22-H ) :   0.9370 B( 20-C , 23-C ) :   1.2869 B( 20-C , 31-H ) :   0.9281
B( 21-C , 23-C ) :   1.2806 B( 21-C , 24-H ) :   0.9285 B( 23-C , 25-H ) :   0.9287

-----------------------------------------------------------------------------
         ABSORPTION SPECTRUM VIA TRANSITION ELECTRIC DIPOLE MOMENTS
-----------------------------------------------------------------------------
State   Energy  Wavelength   fosc         T2         TX        TY        TZ
        (cm-1)    (nm)                  (au**2)     (au)      (au)      (au)
-----------------------------------------------------------------------------
   1   29969.0    333.7   0.014096303   0.15485   0.00000   0.39351   0.00011
   2   31353.5    318.9   0.144417226   1.51638   0.00030   1.23141   0.00023
   3   32427.7    308.4   0.000727414   0.00738   0.08590   0.00013   0.00146
   4   31496.3    317.5   0.000001383   0.00001   0.00049   0.00360   0.00013
   5   39124.3    255.6   0.000281082   0.00237   0.00694   0.00005   0.04793
   6   35376.1    282.7   0.001353148   0.01259   0.00005   0.11221   0.00038
   7   44989.2    222.3   0.007550890   0.05525   0.00124   0.00132   0.23500
   8   46067.8    217.1   1.029467408   7.35682   0.00021   2.71235   0.00016
   9   46171.9    216.6   0.146534947   1.04482   1.02210   0.00018   0.00811
  10   49665.3    201.3   0.000096355   0.00064   0.02244   0.00100   0.00192
  11   51290.7    195.0   0.075506499   0.48464   0.00001   0.69616   0.00014
  12   49946.9    200.2   0.000718281   0.00473   0.00700   0.00059   0.06797
  13   51597.1    193.8   0.001613862   0.01030   0.10015   0.00014   0.00593
  14   52199.1    191.6   0.506259455   3.19290   1.78686   0.00129   0.00160
  15   53306.1    187.6   0.000000422   0.00000   0.00008   0.00161   0.00003
  16   56777.4    176.1   1.168161868   6.77334   2.60254   0.00092   0.00802
  17   54631.5    183.0   0.001779343   0.01072   0.00129   0.00092   0.10349
  18   57196.7    174.8   0.381002083   2.19297   0.00982   0.00070   1.48077
  19   57623.8    173.5   0.393338588   2.24719   0.00009   1.49906   0.00010
  20   58561.4    170.8   0.035399435   0.19900   0.44577   0.00215   0.01220
  21   56956.3    175.6   0.005668099   0.03276   0.00821   0.00015   0.18065
  22   57836.9    172.9   0.001600208   0.00911   0.09536   0.00011   0.00344
  23   61170.1    163.5   0.008436809   0.04541   0.00035   0.21309   0.00023
  24   66064.8    151.4   0.000635482   0.00317   0.01747   0.05292   0.00244
  25   69626.1    143.6   0.000108518   0.00051   0.00188   0.02219   0.00189

FINAL SINGLE POINT ENERGY      -821.909683837751

DIPOLE MOMENT
-------------
                                X             Y             Z
Electronic contribution:      5.19174       0.00002      -0.00646
Nuclear contribution   :     -6.44909      -0.00003       0.00683
                        -----------------------------------------
Total Dipole Moment    :     -1.25735      -0.00001       0.00037
                        -----------------------------------------
Magnitude (a.u.)       :      1.25735
Magnitude (Debye)      :      3.19593

Rotational constants in cm-1:     0.014520     0.012031     0.007065
Rotational constants in MHz :   435.289597   360.687687   211.804504

                             ****ORCA TERMINATED NORMALLY****
TOTAL RUN TIME: 0 days 4 hours 35 minutes 18 seconds 341 msec
