 Gaussian 09, Revision E.01,

 ----------------------------------------------------------------------
 #p m06/def2TZVP opt=tight freq=noraman nosymm int=ultrafine scrf=(SMD,
 solvent=n,n-DiMethylAcetamide)
 ----------------------------------------------------------------------

 -----
 Title
 -----
 Symbolic Z-matrix:
 Charge =  0 Multiplicity = 1

 SCF Done:  E(RM06) =  -823.411661780     A.U. after   14 cycles
 SCF Done:  E(RM06) =  -823.413465626     A.U. after   11 cycles
 SCF Done:  E(RM06) =  -823.413617211     A.U. after   10 cycles
 SCF Done:  E(RM06) =  -823.413672138     A.U. after   10 cycles
 SCF Done:  E(RM06) =  -823.413721800     A.U. after   10 cycles
 SCF Done:  E(RM06) =  -823.413788706     A.U. after   11 cycles
 SCF Done:  E(RM06) =  -823.413806652     A.U. after   10 cycles
 SCF Done:  E(RM06) =  -823.413810100     A.U. after    9 cycles
 SCF Done:  E(RM06) =  -823.413813071     A.U. after    9 cycles
 SCF Done:  E(RM06) =  -823.413815448     A.U. after    9 cycles
 SCF Done:  E(RM06) =  -823.413820686     A.U. after    1 cycles
 SCF Done:  E(RM06) =  -823.412355882     A.U. after   12 cycles
 SCF Done:  E(RM06) =  -823.413820685     A.U. after    1 cycles
 SCF Done:  E(RM06) =  -823.413820687     A.U. after    6 cycles
 SCF Done:  E(RM06) =  -823.413820688     A.U. after    5 cycles
 SCF Done:  E(RM06) =  -823.413820688     A.U. after    5 cycles
 SCF Done:  E(RM06) =  -823.413820688     A.U. after    3 cycles
 SCF Done:  E(RM06) =  -823.413820688     A.U. after    4 cycles
 Optimization completed on the basis of negligible forces.
    -- Stationary point found.
 Normal termination of Gaussian 09 at Tue Nov 23 21:54:32 2021.

 ------------------------------------------------------------------
 #P Geom=AllCheck Guess=TCheck SCRF=Check GenChk RM06/def2TZVP Freq
 ------------------------------------------------------------------

 Structure from the checkpoint file:  "cp.chk"
 -----
 Title
 -----
 Charge =  0 Multiplicity = 1

 SCF Done:  E(RM06) =  -823.413820688     A.U. after    1 cycles

  Exact polarizability: 371.799  -0.001 397.229   1.299  -0.073 226.867
 Approx polarizability: 381.859   0.002 379.166   1.234  -0.061 237.933

                      1                      2                      3
                      A                      A                      A
 Frequencies --     18.1746                29.5594                29.8376
 Red. masses --      6.0942                 3.7658                 4.7632
 Frc consts  --      0.0012                 0.0019                 0.0025
 IR Inten    --      1.1314                 0.0010                 0.0130

                      4                      5                      6
                      A                      A                      A
 Frequencies --     63.2037               120.6607               192.0340
 Red. masses --      5.0037                 3.7962                 5.2893
 Frc consts  --      0.0118                 0.0326                 0.1149
 IR Inten    --      0.2913                 0.0010                 0.4835

                      7                      8                      9
                      A                      A                      A
 Frequencies --    207.5792               260.6535               269.3581
 Red. masses --      5.4394                 4.2166                 4.9138
 Frc consts  --      0.1381                 0.1688                 0.2101
 IR Inten    --      0.0893                 0.4232                 0.0998

                     10                     11                     12
                      A                      A                      A
 Frequencies --    274.5030               322.5702               407.7083
 Red. masses --      5.3892                 5.8676                 6.4636
 Frc consts  --      0.2393                 0.3597                 0.6330
 IR Inten    --      2.3294                 7.3822                 0.3716

                     13                     14                     15
                      A                      A                      A
 Frequencies --    417.7446               421.6797               449.7632
 Red. masses --      2.8397                 4.8187                 4.8636
 Frc consts  --      0.2920                 0.5048                 0.5797
 IR Inten    --      0.0033                 6.0899                 0.3517

                     16                     17                     18
                      A                      A                      A
 Frequencies --    456.6585               474.0962               510.7502
 Red. masses --      3.1717                 3.6687                 4.5206
 Frc consts  --      0.3897                 0.4858                 0.6948
 IR Inten    --      0.0064                 5.5885                10.9967

                     19                     20                     21
                      A                      A                      A
 Frequencies --    561.1509               569.5768               593.9543
 Red. masses --      4.0594                 4.3860                 4.9250
 Frc consts  --      0.7531                 0.8384                 1.0237
 IR Inten    --      0.0174                 0.1811                20.6991

                     22                     23                     24
                      A                      A                      A
 Frequencies --    601.7676               623.2380               625.4952
 Red. masses --      8.0160                 6.0872                 6.4168
 Frc consts  --      1.7103                 1.3931                 1.4792
 IR Inten    --      9.1716                30.7108                 0.3625

                     25                     26                     27
                      A                      A                      A
 Frequencies --    664.9533               707.2613               710.6402
 Red. masses --      6.2956                 5.9638                 4.7893
 Frc consts  --      1.6401                 1.7577                 1.4250
 IR Inten    --     12.0936                 0.2297                 2.1284

                     28                     29                     30
                      A                      A                      A
 Frequencies --    712.5285               731.9368               749.9052
 Red. masses --      1.5917                 4.2764                 1.2398
 Frc consts  --      0.4761                 1.3498                 0.4108
 IR Inten    --     87.3902                 1.1592               275.5255

                     31                     32                     33
                      A                      A                      A
 Frequencies --    752.0535               783.4589               807.3009
 Red. masses --      1.2366                 2.2822                 6.3198
 Frc consts  --      0.4121                 0.8253                 2.4268
 IR Inten    --      0.3407                 9.3054                 9.6754

                     34                     35                     36
                      A                      A                      A
 Frequencies --    851.3351               854.9116               855.6129
 Red. masses --      1.3853                 1.4610                 1.2504
 Frc consts  --      0.5916                 0.6291                 0.5393
 IR Inten    --      0.0007                 0.2409                 0.0003

                     37                     38                     39
                      A                      A                      A
 Frequencies --    887.4407               916.9671               928.8768
 Red. masses --      5.4590                 2.2143                 1.3555
 Frc consts  --      2.5331                 1.0970                 0.6891
 IR Inten    --      8.2874                 2.5664                 0.0020

                     40                     41                     42
                      A                      A                      A
 Frequencies --    930.5301               942.3910               964.6398
 Red. masses --      1.3693                 6.1016                 2.4250
 Frc consts  --      0.6986                 3.1927                 1.3295
 IR Inten    --     19.5092                 2.4787                 5.8140

                     43                     44                     45
                      A                      A                      A
 Frequencies --    965.4357               965.4542               994.5164
 Red. masses --      1.2732                 1.2590                 1.3817
 Frc consts  --      0.6992                 0.6914                 0.8052
 IR Inten    --      0.4274                 0.4669                 0.0104

                     46                     47                     48
                      A                      A                      A
 Frequencies --   1016.4985              1018.5312              1045.9944
 Red. masses --      6.0102                 1.3314                 1.9625
 Frc consts  --      3.6589                 0.8138                 1.2651
 IR Inten    --      4.3089                 0.0001                11.7699

                     49                     50                     51
                      A                      A                      A
 Frequencies --   1064.2814              1068.2631              1087.6457
 Red. masses --      1.9912                 1.7128                 1.4054
 Frc consts  --      1.3289                 1.1516                 0.9795
 IR Inten    --      7.2180                49.0231                18.0568

                     52                     53                     54
                      A                      A                      A
 Frequencies --   1110.6274              1126.4393              1147.5915
 Red. masses --      1.7346                 1.4097                 1.0940
 Frc consts  --      1.2606                 1.0539                 0.8488
 IR Inten    --      4.1474                27.5158                 1.1538

                     55                     56                     57
                      A                      A                      A
 Frequencies --   1148.7909              1150.5713              1163.1696
 Red. masses --      1.0864                 1.1101                 1.1099
 Frc consts  --      0.8447                 0.8659                 0.8848
 IR Inten    --      0.4691                 0.8270                 0.1691

                     58                     59                     60
                      A                      A                      A
 Frequencies --   1200.4404              1226.9030              1239.9110
 Red. masses --      3.5187                 2.1977                 3.3841
 Frc consts  --      2.9876                 1.9491                 3.0653
 IR Inten    --      0.0221                11.9381                24.1628

                     61                     62                     63
                      A                      A                      A
 Frequencies --   1294.8057              1296.6285              1310.2513
 Red. masses --      1.6022                 2.1377                 1.6651
 Frc consts  --      1.5827                 2.1176                 1.6842
 IR Inten    --     17.0047               278.8845                 2.8964

                     64                     65                     66
                      A                      A                      A
 Frequencies --   1329.6704              1341.6873              1347.9824
 Red. masses --      6.5342                 3.7683                 3.5035
 Frc consts  --      6.8066                 3.9967                 3.7508
 IR Inten    --    647.3549                 4.0127               142.6172

                     67                     68                     69
                      A                      A                      A
 Frequencies --   1366.1809              1369.5451              1472.2699
 Red. masses --      3.8541                 7.4542                 2.4211
 Frc consts  --      4.2383                 8.2376                 3.0920
 IR Inten    --    675.5370                14.1904                 3.9195

                     70                     71                     72
                      A                      A                      A
 Frequencies --   1472.7833              1488.4041              1519.5404
 Red. masses --      2.8151                 2.8339                 3.4847
 Frc consts  --      3.5977                 3.6990                 4.7407
 IR Inten    --      1.3405                21.6214              1554.3048

                     73                     74                     75
                      A                      A                      A
 Frequencies --   1520.2176              1549.4393              1621.3023
 Red. masses --      2.6586                 3.6044                 6.6578
 Frc consts  --      3.6201                 5.0983                10.3111
 IR Inten    --     76.7584                49.2929                 1.6059

                     76                     77                     78
                      A                      A                      A
 Frequencies --   1640.6742              1640.9145              1649.8356
 Red. masses --      7.2556                 6.6873                 6.5380
 Frc consts  --     11.5071                10.6090                10.4853
 IR Inten    --     76.6935                 6.3970                51.5785

                     79                     80                     81
                      A                      A                      A
 Frequencies --   1661.8220              1680.9629              3168.4288
 Red. masses --      8.2124                 7.8672                 1.0864
 Frc consts  --     13.3625                13.0975                 6.4260
 IR Inten    --      1.5824                30.9115                 1.7619

                     82                     83                     84
                      A                      A                      A
 Frequencies --   3171.8286              3175.0364              3175.2981
 Red. masses --      1.0890                 1.0856                 1.0858
 Frc consts  --      6.4549                 6.4481                 6.4503
 IR Inten    --      0.2279                 1.1640                 0.1145

                     85                     86                     87
                      A                      A                      A
 Frequencies --   3177.3572              3181.2408              3181.3952
 Red. masses --      1.0916                 1.0899                 1.0900
 Frc consts  --      6.4932                 6.4986                 6.5002
 IR Inten    --     11.3167                17.8853                 2.6792

                     88                     89                     90
                      A                      A                      A
 Frequencies --   3185.9374              3189.3911              3189.7310
 Red. masses --      1.0955                 1.0926                 1.0926
 Frc consts  --      6.5512                 6.5482                 6.5500
 IR Inten    --     20.7461                 0.1839                23.1838

                     91                     92                     93
                      A                      A                      A
 Frequencies --   3193.2051              3197.5130              3197.6983
 Red. masses --      1.0992                 1.0986                 1.0985
 Frc consts  --      6.6035                 6.6175                 6.6179
 IR Inten    --     11.9953                21.4283                 0.4345

 - Thermochemistry -
 -------------------
 Temperature   298.150 Kelvin.  Pressure   1.00000 Atm.
 Atom     1 has atomic number  6 and mass  12.00000

 Molecular mass:   259.09971 amu.
 Principal axes and moments of inertia in atomic units:
                           1         2         3
     Eigenvalues --  4128.978454987.400488487.43662
           X            1.00000  -0.00014   0.00053
           Y            0.00014   1.00000   0.00042
           Z           -0.00053  -0.00042   1.00000
 This molecule is an asymmetric top.
 Rotational symmetry number  1.
 Warning -- assumption of classical behavior for rotation
           may cause significant error
 Rotational temperatures (Kelvin)      0.02098     0.01737     0.01020
 Rotational constants (GHZ):           0.43709     0.36186     0.21264
 Zero-point vibrational energy     681599.3 (Joules/Mol)
                                  162.90614 (Kcal/Mol)
 Warning -- explicit consideration of  22 degrees of freedom as
           vibrations may cause significant error
 Vibrational temperatures:     26.15    42.53    42.93    90.94   173.60
          (Kelvin)            276.29   298.66   375.02   387.55   394.95
                              464.11   586.60   601.04   606.70   647.11
                              657.03   682.12   734.85   807.37   819.49
                              854.57   865.81   896.70   899.95   956.72
                             1017.59  1022.45  1025.17  1053.09  1078.95
                             1082.04  1127.22  1161.52  1224.88  1230.03
                             1231.03  1276.83  1319.31  1336.44  1338.82
                             1355.89  1387.90  1389.04  1389.07  1430.89
                             1462.51  1465.44  1504.95  1531.26  1536.99
                             1564.88  1597.94  1620.69  1651.13  1652.85
                             1655.41  1673.54  1727.16  1765.24  1783.95
                             1862.93  1865.56  1885.16  1913.10  1930.39
                             1939.44  1965.63  1970.47  2118.27  2119.00
                             2141.48  2186.28  2187.25  2229.29  2332.69
                             2360.56  2360.91  2373.74  2390.99  2418.53
                             4558.66  4563.55  4568.16  4568.54  4571.50
                             4577.09  4577.31  4583.85  4588.82  4589.31
                             4594.30  4600.50  4600.77

 Zero-point correction=                           0.259607 (Hartree/Particle)
 Thermal correction to Energy=                    0.274333
 Thermal correction to Enthalpy=                  0.275277
 Thermal correction to Gibbs Free Energy=         0.215396
 Sum of electronic and zero-point Energies=           -823.154213
 Sum of electronic and thermal Energies=              -823.139488
 Sum of electronic and thermal Enthalpies=            -823.138544
 Sum of electronic and thermal Free Energies=         -823.198425

                     E (Thermal)             CV                S
                      KCal/Mol        Cal/Mol-Kelvin    Cal/Mol-Kelvin
 Total                  172.146             60.488            126.031
 Electronic               0.000              0.000              0.000
 Translational            0.889              2.981             42.556
 Rotational               0.889              2.981             33.524
 Vibrational            170.369             54.526             49.951
 Vibration     1          0.593              1.986              6.824
 Vibration     2          0.593              1.984              5.859
 Vibration     3          0.594              1.984              5.840
 Vibration     4          0.597              1.972              4.355
 Vibration     5          0.609              1.932              3.090
 Vibration     6          0.634              1.851              2.208
 Vibration     7          0.641              1.829              2.065
 Vibration     8          0.669              1.745              1.657
 Vibration     9          0.674              1.730              1.600
 Vibration    10          0.677              1.720              1.568
 Vibration    11          0.708              1.630              1.297
 Vibration    12          0.772              1.453              0.935
 Vibration    13          0.781              1.432              0.900
 Vibration    14          0.784              1.423              0.886
 Vibration    15          0.809              1.361              0.796
 Vibration    16          0.815              1.346              0.776
 Vibration    17          0.831              1.308              0.726
 Vibration    18          0.866              1.226              0.632
 Vibration    19          0.917              1.115              0.522
 Vibration    20          0.926              1.097              0.505
 Vibration    21          0.952              1.045              0.460
 Vibration    22          0.960              1.028              0.447

 Normal termination of Gaussian 09 at Wed Nov 24 00:24:39 2021.
 Gaussian 09:  ES64L-G09RevE.01 30-Nov-2015

 ----------------------------------------------------------------------
 #p m06 chkbasis geom=allcheck Guess=Read int=ultrafine scrf=(SMD,solve
 nt=n,n-DiMethylAcetamide) td=(NStates=30)
 ----------------------------------------------------------------------

 Structure from the checkpoint file:  "cp.chk"
 -----
 Title
 -----
 Charge =  0 Multiplicity = 1

                         Standard orientation:
 ---------------------------------------------------------------------
 Center     Atomic      Atomic             Coordinates (Angstroms)
 Number     Number       Type             X           Y           Z
 ---------------------------------------------------------------------
      1          6           0       -0.655691    3.616497    0.034767
      2          6           0        0.084222    2.441781   -0.002627
      3          6           0       -0.544764    1.204011   -0.032361
      4          6           0       -1.942324    1.176619   -0.022895
      5          6           0       -2.676136    2.340563    0.018355
      6          6           0       -2.035352    3.572495    0.046323
      7          6           0       -1.942396   -1.176514   -0.022898
      8          6           0       -0.544836   -1.203992   -0.032349
      9          6           0        0.084069   -2.441803   -0.002583
     10          1           0        1.166603   -2.487369   -0.011504
     11          6           0       -0.655921   -3.616471    0.034812
     12          6           0       -2.035579   -3.572382    0.046335
     13          6           0       -2.676283   -2.340409    0.018342
     14          1           0        1.166759    2.487277   -0.011574
     15          1           0       -3.757909    2.266025    0.025640
     16          1           0       -0.136627   -4.567462    0.055425
     17          7           0        0.158468   -0.000013   -0.076230
     18          6           0        1.583420   -0.000052   -0.035781
     19          6           0        2.305370   -0.000117   -1.218150
     20          6           0        2.236291   -0.000016    1.187014
     21          6           0        3.690183   -0.000138   -1.175756
     22          6           0        3.620395   -0.000037    1.225563
     23          1           0        1.650266    0.000038    2.100392
     24          6           0        4.346793   -0.000096    0.044647
     25          1           0        4.133909   -0.000006    2.180141
     26          1           0        5.430397   -0.000111    0.076040
     27          1           0       -3.758052   -2.265799    0.025610
     28          1           0       -0.136339    4.567456    0.055355
     29          8           0       -2.638635    0.000074   -0.064540
     30          1           0       -2.619715   -4.484156    0.076300
     31          1           0       -2.619430    4.484306    0.076289
     32          1           0        4.257939   -0.000190   -2.099101
     33          1           0        1.773231   -0.000147   -2.163619
 ---------------------------------------------------------------------

 SCF Done:  E(RM06) =  -823.413820595     A.U. after    2 cycles

 Excitation energies and oscillator strengths:

 Excited State   1:      Singlet-A      3.5144 eV  352.78 nm  f=0.0065  <S**2>=0.000
      68 -> 69         0.65918
      68 -> 71        -0.22008
 This state for optimization and/or second-order correction.
 Total Energy, E(TD-HF/TD-KS) =  -823.284667192
 Copying the excited state density for this state as the 1-particle RhoCI density.

 Excited State   2:      Singlet-A      3.7821 eV  327.82 nm  f=0.0086  <S**2>=0.000
      68 -> 70         0.69787

 Excited State   3:      Singlet-A      3.8450 eV  322.46 nm  f=0.1540  <S**2>=0.000
      67 -> 69         0.10956
      68 -> 69         0.21312
      68 -> 71         0.65856

 Excited State   4:      Singlet-A      4.1552 eV  298.38 nm  f=0.0021  <S**2>=0.000
      68 -> 72         0.68609

 Excited State   5:      Singlet-A      4.2613 eV  290.95 nm  f=0.1100  <S**2>=0.000
      67 -> 71        -0.12152
      68 -> 69        -0.10701
      68 -> 73         0.67950

 Excited State   6:      Singlet-A      5.2504 eV  236.14 nm  f=0.8241  <S**2>=0.000
      64 -> 72         0.10796
      67 -> 69         0.63304
      67 -> 71        -0.20301
      68 -> 71        -0.11291
      68 -> 73        -0.12764

 Excited State   7:      Singlet-A      5.2936 eV  234.21 nm  f=0.0043  <S**2>=0.000
      63 -> 70         0.23028
      65 -> 69         0.40936
      65 -> 70        -0.13297
      65 -> 71         0.17042
      65 -> 73        -0.18569
      66 -> 70        -0.39487
      66 -> 71        -0.11163
      68 -> 74        -0.12340

 Excited State   8:      Singlet-A      5.3048 eV  233.72 nm  f=0.1316  <S**2>=0.000
      67 -> 72        -0.16701
      68 -> 74         0.65568

 Excited State   9:      Singlet-A      5.4749 eV  226.46 nm  f=0.0186  <S**2>=0.000
      67 -> 69        -0.15646
      67 -> 70         0.62983
      67 -> 71        -0.25644

 Excited State  10:      Singlet-A      5.5058 eV  225.19 nm  f=0.0428  <S**2>=0.000
      67 -> 69         0.20090
      67 -> 70         0.30420
      67 -> 71         0.58882

 Excited State  11:      Singlet-A      5.6204 eV  220.60 nm  f=0.0078  <S**2>=0.000
      68 -> 75         0.38310
      68 -> 76         0.52194
      68 -> 79         0.24611

 Excited State  12:      Singlet-A      5.7045 eV  217.34 nm  f=0.0126  <S**2>=0.000
      63 -> 71        -0.10205
      64 -> 69        -0.18897
      64 -> 73        -0.11436
      65 -> 70         0.11624
      66 -> 69         0.37653
      67 -> 72         0.49197

 Excited State  13:      Singlet-A      5.7350 eV  216.19 nm  f=0.0957  <S**2>=0.000
      63 -> 69        -0.11613
      64 -> 69         0.15056
      64 -> 71        -0.15362
      65 -> 70         0.30595
      66 -> 69         0.38671
      66 -> 70        -0.10853
      66 -> 71         0.18099
      67 -> 72        -0.30210
      68 -> 74        -0.12300
      68 -> 76        -0.11136

 Excited State  14:      Singlet-A      5.7591 eV  215.28 nm  f=0.0031  <S**2>=0.000
      68 -> 75         0.50985
      68 -> 76        -0.43108
      68 -> 79         0.16544

 Excited State  15:      Singlet-A      5.8372 eV  212.40 nm  f=0.0929  <S**2>=0.000
      63 -> 69         0.34146
      64 -> 71        -0.33095
      64 -> 73        -0.14346
      65 -> 70        -0.30107
      66 -> 69         0.12858
      66 -> 71        -0.12001
      66 -> 73         0.17064
      67 -> 72        -0.21343
      67 -> 74        -0.14050
      68 -> 72         0.10071

 Excited State  16:      Singlet-A      5.9456 eV  208.53 nm  f=0.0691  <S**2>=0.000
      67 -> 73         0.69175

 Excited State  17:      Singlet-A      6.0319 eV  205.55 nm  f=0.0001  <S**2>=0.000
      68 -> 77         0.69813

 Excited State  18:      Singlet-A      6.0949 eV  203.42 nm  f=0.0519  <S**2>=0.000
      63 -> 69         0.18273
      64 -> 69         0.39372
      65 -> 69         0.25771
      65 -> 71        -0.24011
      66 -> 71         0.30704
      67 -> 72         0.21584

 Excited State  19:      Singlet-A      6.1012 eV  203.21 nm  f=0.0307  <S**2>=0.000
      64 -> 69        -0.31715
      65 -> 69         0.38662
      65 -> 70         0.12452
      65 -> 71        -0.35531
      66 -> 70         0.21861
      67 -> 72        -0.14240

 Excited State  20:      Singlet-A      6.1940 eV  200.17 nm  f=0.1054  <S**2>=0.000
      63 -> 69        -0.12302
      63 -> 70         0.16461
      63 -> 71         0.17943
      64 -> 69         0.26110
      64 -> 70        -0.14446
      64 -> 71         0.16090
      65 -> 69         0.13021
      65 -> 70        -0.15993
      66 -> 69         0.25560
      66 -> 70         0.33208
      66 -> 71        -0.25915

 Excited State  21:      Singlet-A      6.2245 eV  199.19 nm  f=0.0675  <S**2>=0.000
      63 -> 70         0.35974
      64 -> 69        -0.10458
      64 -> 70        -0.11040
      64 -> 71        -0.16215
      65 -> 70         0.10734
      65 -> 71         0.33694
      66 -> 69        -0.18119
      66 -> 70         0.29638
      66 -> 71         0.23541

 Excited State  22:      Singlet-A      6.2488 eV  198.41 nm  f=0.0012  <S**2>=0.000
      68 -> 75         0.22334
      68 -> 76         0.10616
      68 -> 78         0.45286
      68 -> 79        -0.43625
      68 -> 83        -0.15035

 Excited State  23:      Singlet-A      6.2890 eV  197.14 nm  f=0.2617  <S**2>=0.000
      63 -> 69        -0.16227
      64 -> 69         0.12561
      64 -> 70         0.49539
      65 -> 70         0.13710
      66 -> 69        -0.12835
      66 -> 71        -0.21284
      68 -> 78         0.23576
      68 -> 79         0.13476

 Excited State  24:      Singlet-A      6.3016 eV  196.75 nm  f=0.4315  <S**2>=0.000
      63 -> 69         0.20026
      63 -> 73        -0.11942
      64 -> 69        -0.14707
      64 -> 70         0.17868
      64 -> 71         0.26248
      64 -> 73         0.11393
      65 -> 70        -0.16937
      66 -> 69         0.17337
      66 -> 71         0.26708
      68 -> 78         0.28049
      68 -> 79         0.22186

 Excited State  25:      Singlet-A      6.3135 eV  196.38 nm  f=0.0468  <S**2>=0.000
      64 -> 70         0.41343
      64 -> 71         0.14431
      68 -> 75         0.12317
      68 -> 78        -0.38659
      68 -> 79        -0.29838

 Excited State  26:      Singlet-A      6.3410 eV  195.53 nm  f=0.1164  <S**2>=0.000
      63 -> 72         0.13123
      64 -> 72        -0.24467
      66 -> 72         0.62191

 Excited State  27:      Singlet-A      6.3753 eV  194.47 nm  f=0.0792  <S**2>=0.000
      63 -> 70         0.39680
      65 -> 69        -0.24706
      65 -> 71        -0.33576
      65 -> 73        -0.36661
      66 -> 73         0.11437

 Excited State  28:      Singlet-A      6.4223 eV  193.05 nm  f=0.2279  <S**2>=0.000
      64 -> 72         0.59455
      65 -> 72        -0.22554
      66 -> 72         0.23848
      67 -> 71         0.11058

 Excited State  29:      Singlet-A      6.4335 eV  192.72 nm  f=0.0215  <S**2>=0.000
      64 -> 72         0.18113
      65 -> 72         0.66384
      66 -> 72         0.12047

 Excited State  30:      Singlet-A      6.4398 eV  192.53 nm  f=0.1362  <S**2>=0.000
      63 -> 69         0.40532
      64 -> 69         0.11189
      64 -> 73        -0.13100
      65 -> 70         0.24206
      66 -> 71        -0.21983
      66 -> 73        -0.36841
      67 -> 74         0.16309

 The electronic state is 1-A.
 Alpha  occ. eigenvalues --  -19.25910 -14.42765 -10.30428 -10.30423 -10.28984
 Alpha  occ. eigenvalues --  -10.28981 -10.28104 -10.24375 -10.24368 -10.24301
 Alpha  occ. eigenvalues --  -10.24280 -10.24195 -10.23712 -10.23712 -10.23707
 Alpha  occ. eigenvalues --  -10.23706 -10.23479 -10.23479 -10.23313 -10.23313
 Alpha  occ. eigenvalues --   -1.12220  -0.99437  -0.88623  -0.87766  -0.85446
 Alpha  occ. eigenvalues --   -0.78404  -0.77643  -0.77443  -0.76606  -0.74795
 Alpha  occ. eigenvalues --   -0.71874  -0.66277  -0.66160  -0.62648  -0.61344
 Alpha  occ. eigenvalues --   -0.60457  -0.59112  -0.57662  -0.54981  -0.51697
 Alpha  occ. eigenvalues --   -0.50785  -0.49511  -0.48513  -0.48286  -0.48126
 Alpha  occ. eigenvalues --   -0.47239  -0.44961  -0.44829  -0.44443  -0.44179
 Alpha  occ. eigenvalues --   -0.43628  -0.40512  -0.39792  -0.39638  -0.39012
 Alpha  occ. eigenvalues --   -0.38795  -0.37605  -0.36771  -0.36689  -0.36062
 Alpha  occ. eigenvalues --   -0.34482  -0.33947  -0.28248  -0.27711  -0.27399
 Alpha  occ. eigenvalues --   -0.27089  -0.24871  -0.19404
 Alpha virt. eigenvalues --   -0.02329  -0.01600  -0.01311  -0.00391   0.00049
 Alpha virt. eigenvalues --    0.03185   0.05003   0.05306   0.06177   0.07189
 Alpha virt. eigenvalues --    0.07248   0.07694   0.08747   0.09229   0.09589

 Mulliken charges:
               1
     1  C   -0.188071
     2  C   -0.133873
     3  C    0.117974
     4  C    0.259681
     5  C   -0.235294
     6  C   -0.119307
     7  C    0.259682
     8  C    0.117966
     9  C   -0.133869
    10  H    0.175085
    11  C   -0.188071
    12  C   -0.119305
    13  C   -0.235297
    14  H    0.175085
    15  H    0.137330
    16  H    0.126436
    17  N   -0.050296
    18  C   -0.079198
    19  C   -0.222509
    20  C   -0.263067
    21  C   -0.031568
    22  C   -0.030789
    23  H    0.147970
    24  C   -0.124192
    25  H    0.134757
    26  H    0.135056
    27  H    0.137330
    28  H    0.126436
    29  O   -0.422189
    30  H    0.125649
    31  H    0.125649
    32  H    0.134324
    33  H    0.140485
 Sum of Mulliken charges =  -0.00000

 Dipole moment (field-independent basis, Debye):
    X=              3.1298    Y=             -0.0001    Z=              0.1099  Tot=              3.1317
 Quadrupole moment (field-independent basis, Debye-Ang):
   XX=           -100.0348   YY=           -109.7565   ZZ=           -114.5048
   XY=             -0.0002   XZ=             -0.3059   YZ=              0.0003

 Normal termination of Gaussian 09 at Wed Nov 24 02:16:33 2021.
