 Gaussian 09, Revision E.01,

 ----------------------------------------------------------------------
 #p b3lyp/def2TZVP opt=tight freq=noraman nosymm int=ultrafine scrf=(SM
 D,solvent=n,n-DiMethylAcetamide) EmpiricalDispersion=GD3BJ
 ----------------------------------------------------------------------

 -----
 Title
 -----
 Symbolic Z-matrix:
 Charge =  0 Multiplicity = 1

 SCF Done:  E(RB3LYP) =  -824.110309535     A.U. after   13 cycles
 SCF Done:  E(RB3LYP) =  -824.111318849     A.U. after   10 cycles
 SCF Done:  E(RB3LYP) =  -824.111412096     A.U. after    9 cycles
 SCF Done:  E(RB3LYP) =  -824.111454638     A.U. after    9 cycles
 SCF Done:  E(RB3LYP) =  -824.111496832     A.U. after   10 cycles
 SCF Done:  E(RB3LYP) =  -824.111559985     A.U. after   10 cycles
 SCF Done:  E(RB3LYP) =  -824.111588372     A.U. after    9 cycles
 SCF Done:  E(RB3LYP) =  -824.111594046     A.U. after    9 cycles
 SCF Done:  E(RB3LYP) =  -824.111595561     A.U. after    8 cycles
 SCF Done:  E(RB3LYP) =  -824.111596507     A.U. after    8 cycles
 SCF Done:  E(RB3LYP) =  -824.111597070     A.U. after    6 cycles
 SCF Done:  E(RB3LYP) =  -824.111597070     A.U. after    5 cycles
 SCF Done:  E(RB3LYP) =  -824.111597070     A.U. after    4 cycles
 SCF Done:  E(RB3LYP) =  -824.111597070     A.U. after    5 cycles
 SCF Done:  E(RB3LYP) =  -824.111597070     A.U. after    4 cycles
 SCF Done:  E(RB3LYP) =  -824.111597070     A.U. after    4 cycles
 SCF Done:  E(RB3LYP) =  -824.111597070     A.U. after    3 cycles
 SCF Done:  E(RB3LYP) =  -824.111597070     A.U. after    4 cycles
 Optimization completed on the basis of negligible forces.
    -- Stationary point found.

 1\1\GINC-CN015\FOpt\RB3LYP\def2TZVP\C18H13N1O1\PNG4RJV\23-Nov-2021\0\\
 #p b3lyp/def2TZVP opt=tight freq=noraman nosymm int=ultrafine scrf=(SM
 D,solvent=n,n-DiMethylAcetamide) EmpiricalDispersion=GD3BJ\\Title\\0,1
 \C,0.6509957334,-3.6292134576,-0.0428893577\C,-0.0886655864,-2.4481814
 257,-0.0424899609\C,0.54734567,-1.207629789,-0.0499156322\C,1.94970417
 91,-1.1847134951,-0.0576836256\C,2.6842167683,-2.3541950114,-0.0576542
 971\C,2.036360354,-3.589310005,-0.0504775637\C,1.9495809265,1.18492402
 21,-0.0575646765\C,0.5472201116,1.2076933964,-0.0497956536\C,-0.088920

 Normal termination of Gaussian 09 at Tue Nov 23 13:41:04 2021.

 --------------------------------------------------------------------
 #P Geom=AllCheck Guess=TCheck SCRF=Check GenChk RB3LYP/def2TZVP Freq
 --------------------------------------------------------------------

 Structure from the checkpoint file:  "cp.chk"
 -----
 Title
 -----
 Charge =  0 Multiplicity = 1

 SCF Done:  E(RB3LYP) =  -824.111597070     A.U. after    1 cycles

  Exact polarizability: 370.380  -0.001 400.975  -0.669   0.009 221.813
 Approx polarizability: 403.544  -0.000 409.642  -0.774   0.008 249.492

                      1                      2                      3
                      A                      A                      A
 Frequencies --     12.1527                34.3818                40.7304
 Red. masses --      6.5049                 4.6101                 3.7806
 Frc consts  --      0.0006                 0.0032                 0.0037
 IR Inten    --      1.3344                 0.0908                 0.0000

                      4                      5                      6
                      A                      A                      A
 Frequencies --     65.2376               119.7660               192.9188
 Red. masses --      5.0147                 3.8057                 5.3956
 Frc consts  --      0.0126                 0.0322                 0.1183
 IR Inten    --      0.3784                 0.0000                 0.2841

                      7                      8                      9
                      A                      A                      A
 Frequencies --    205.8375               262.9894               269.8115
 Red. masses --      5.3773                 4.2488                 4.9831
 Frc consts  --      0.1342                 0.1731                 0.2137
 IR Inten    --      0.0989                 0.5486                 0.0010

                     10                     11                     12
                      A                      A                      A
 Frequencies --    271.3391               324.5746               409.5624
 Red. masses --      5.3700                 5.9393                 6.7373
 Frc consts  --      0.2329                 0.3686                 0.6658
 IR Inten    --      2.3583                 7.7233                 0.3503

                     13                     14                     15
                      A                      A                      A
 Frequencies --    419.1859               422.6024               450.3216
 Red. masses --      4.9039                 2.8861                 4.9884
 Frc consts  --      0.5077                 0.3037                 0.5960
 IR Inten    --      5.9487                 0.0001                 0.3145

                     16                     17                     18
                      A                      A                      A
 Frequencies --    458.8181               474.5997               516.0234
 Red. masses --      3.1547                 3.5935                 4.4691
 Frc consts  --      0.3913                 0.4769                 0.7011
 IR Inten    --      0.0000                 7.1820                12.7185

                     19                     20                     21
                      A                      A                      A
 Frequencies --    562.2310               568.4652               601.7593
 Red. masses --      4.1719                 4.4873                 5.1588
 Frc consts  --      0.7770                 0.8544                 1.1006
 IR Inten    --      0.0002                 0.0131                22.5894

                     22                     23                     24
                      A                      A                      A
 Frequencies --    612.7472               633.3955               636.0624
 Red. masses --      8.2593                 6.1581                 6.4763
 Frc consts  --      1.8271                 1.4556                 1.5437
 IR Inten    --      9.1627                31.4811                 0.3618

                     25                     26                     27
                      A                      A                      A
 Frequencies --    672.4167               705.6305               714.0030
 Red. masses --      6.3928                 5.5162                 6.0406
 Frc consts  --      1.7030                 1.6183                 1.8144
 IR Inten    --     11.9735                 0.0003                 0.0338

                     28                     29                     30
                      A                      A                      A
 Frequencies --    717.3096               728.4919               752.0732
 Red. masses --      1.6120                 4.5953                 1.2328
 Frc consts  --      0.4887                 1.4369                 0.4108
 IR Inten    --    102.0516                 0.6548               305.4802

                     31                     32                     33
                      A                      A                      A
 Frequencies --    754.5318               785.8672               809.3631
 Red. masses --      1.2327                 2.2197                 6.4506
 Frc consts  --      0.4135                 0.8077                 2.4896
 IR Inten    --      0.0049                12.5150                11.4823

                     34                     35                     36
                      A                      A                      A
 Frequencies --    853.8668               857.3824               861.7703
 Red. masses --      1.3715                 1.4452                 1.2459
 Frc consts  --      0.5892                 0.6259                 0.5452
 IR Inten    --      0.0001                 0.2414                 0.0000

                     37                     38                     39
                      A                      A                      A
 Frequencies --    885.0300               925.0937               925.6959
 Red. masses --      5.3585                 2.2835                 1.3360
 Frc consts  --      2.4729                 1.1514                 0.6745
 IR Inten    --     10.4327                 1.3996                 0.0005

                     40                     41                     42
                      A                      A                      A
 Frequencies --    927.5186               949.6023               955.8313
 Red. masses --      1.3482                 6.1714                 1.2381
 Frc consts  --      0.6833                 3.2788                 0.6665
 IR Inten    --     17.6447                 3.3206                 1.9471

                     43                     44                     45
                      A                      A                      A
 Frequencies --    956.2239               972.5338               991.8632
 Red. masses --      1.2400                 2.4960                 1.3717
 Frc consts  --      0.6680                 1.3909                 0.7951
 IR Inten    --      0.0009                 4.9551                 0.0006

                     46                     47                     48
                      A                      A                      A
 Frequencies --   1013.9822              1026.8734              1049.7403
 Red. masses --      1.3161                 6.1950                 2.0805
 Frc consts  --      0.7972                 3.8488                 1.3508
 IR Inten    --      0.0147                 1.2428                15.3701

                     49                     50                     51
                      A                      A                      A
 Frequencies --   1063.6075              1070.0235              1097.1037
 Red. masses --      2.1935                 1.8325                 1.5139
 Frc consts  --      1.4620                 1.2362                 1.0736
 IR Inten    --      5.8614                53.8378                17.9965

                     52                     53                     54
                      A                      A                      A
 Frequencies --   1117.5341              1138.7253              1170.7743
 Red. masses --      2.0036                 1.5387                 1.1112
 Frc consts  --      1.4743                 1.1756                 0.8974
 IR Inten    --      7.0476                29.3879                 1.8403

                     55                     56                     57
                      A                      A                      A
 Frequencies --   1173.2190              1173.7221              1185.5227
 Red. masses --      1.0981                 1.1260                 1.1345
 Frc consts  --      0.8905                 0.9140                 0.9395
 IR Inten    --      0.1966                 0.1541                 0.1577

                     58                     59                     60
                      A                      A                      A
 Frequencies --   1204.6964              1227.8654              1228.5409
 Red. masses --      3.4727                 2.4398                 3.3448
 Frc consts  --      2.9694                 2.1672                 2.9744
 IR Inten    --      0.1649                83.4947                21.7524

                     61                     62                     63
                      A                      A                      A
 Frequencies --   1293.1092              1309.7785              1319.2880
 Red. masses --      2.5217                 1.9195                 4.0807
 Frc consts  --      2.4843                 1.9401                 4.1847
 IR Inten    --    686.2124                48.0436                 5.3826

                     64                     65                     66
                      A                      A                      A
 Frequencies --   1323.8650              1350.1717              1351.6075
 Red. masses --      4.0148                 1.6009                 3.0902
 Frc consts  --      4.1457                 1.7195                 3.3261
 IR Inten    --    215.9982                 0.4216                71.4648

                     67                     68                     69
                      A                      A                      A
 Frequencies --   1363.0785              1363.3818              1479.1052
 Red. masses --      5.2003                 3.8350                 2.4211
 Frc consts  --      5.6928                 4.2000                 3.1207
 IR Inten    --     44.7640               778.0537                 2.4568

                     70                     71                     72
                      A                      A                      A
 Frequencies --   1483.0690              1496.1965              1514.9986
 Red. masses --      2.1986                 2.5202                 2.8775
 Frc consts  --      2.8491                 3.3240                 3.8912
 IR Inten    --      5.8693                22.2417              1215.1739

                     73                     74                     75
                      A                      A                      A
 Frequencies --   1529.4558              1546.9155              1605.3406
 Red. masses --      2.3581                 3.0655                 5.7254
 Frc consts  --      3.2500                 4.3220                 8.6934
 IR Inten    --     60.9102                48.3273                11.3934

                     76                     77                     78
                      A                      A                      A
 Frequencies --   1625.7610              1628.2191              1637.1453
 Red. masses --      6.4653                 5.9633                 5.8826
 Frc consts  --     10.0682                 9.3145                 9.2895
 IR Inten    --     58.2344                 5.5757                52.0709

                     79                     80                     81
                      A                      A                      A
 Frequencies --   1644.1324              1667.2499              3175.7881
 Red. masses --      7.3940                 7.2782                 1.0864
 Frc consts  --     11.7761                11.9199                 6.4556
 IR Inten    --      0.1899                29.5389                 0.2951

                     82                     83                     84
                      A                      A                      A
 Frequencies --   3180.6610              3180.8555              3183.0488
 Red. masses --      1.0864                 1.0866                 1.0885
 Frc consts  --      6.4757                 6.4773                 6.4980
 IR Inten    --      2.1542                 1.1967                 3.9918

                     85                     86                     87
                      A                      A                      A
 Frequencies --   3189.0276              3189.1282              3190.1354
 Red. masses --      1.0904                 1.0906                 1.0919
 Frc consts  --      6.5338                 6.5349                 6.5473
 IR Inten    --     23.9170                 5.1417                19.9406

                     88                     89                     90
                      A                      A                      A
 Frequencies --   3196.4020              3201.4118              3201.5253
 Red. masses --      1.0950                 1.0951                 1.0955
 Frc consts  --      6.5916                 6.6131                 6.6160
 IR Inten    --     19.1863                20.8615                16.9637

                     91                     92                     93
                      A                      A                      A
 Frequencies --   3201.7757              3211.3495              3211.8276
 Red. masses --      1.0979                 1.0931                 1.0930
 Frc consts  --      6.6311                 6.6415                 6.6435
 IR Inten    --      1.5422                 1.8922                 4.2537

 - Thermochemistry -
 -------------------
 Temperature   298.150 Kelvin.  Pressure   1.00000 Atm.
 Atom     1 has atomic number  6 and mass  12.00000

 Molecular mass:   259.09971 amu.
 Principal axes and moments of inertia in atomic units:
                           1         2         3
     Eigenvalues --  4161.388485012.510878543.34847
           X            0.99999  -0.00006   0.00362
           Y            0.00006   1.00000  -0.00005
           Z           -0.00362   0.00005   0.99999
 This molecule is an asymmetric top.
 Rotational symmetry number  1.
 Warning -- assumption of classical behavior for rotation
           may cause significant error
 Rotational temperatures (Kelvin)      0.02081     0.01728     0.01014
 Rotational constants (GHZ):           0.43369     0.36005     0.21125
 Zero-point vibrational energy     683392.8 (Joules/Mol)
                                  163.33479 (Kcal/Mol)
 Warning -- explicit consideration of  22 degrees of freedom as
           vibrations may cause significant error
 Vibrational temperatures:     17.49    49.47    58.60    93.86   172.32
          (Kelvin)            277.57   296.15   378.38   388.20   390.40
                              466.99   589.27   603.11   608.03   647.91
                              660.14   682.84   742.44   808.92   817.89
                              865.80   881.61   911.31   915.15   967.46
                             1015.24  1027.29  1032.05  1048.14  1082.06
                             1085.60  1130.69  1164.49  1228.52  1233.58
                             1239.89  1273.36  1331.00  1331.87  1334.49
                             1366.26  1375.23  1375.79  1399.26  1427.07
                             1458.89  1477.44  1510.34  1530.29  1539.52
                             1578.49  1607.88  1638.37  1684.48  1688.00
                             1688.72  1705.70  1733.29  1766.62  1767.59
                             1860.49  1884.48  1898.16  1904.74  1942.59
                             1944.66  1961.16  1961.60  2128.10  2133.80
                             2152.69  2179.74  2200.54  2225.66  2309.72
                             2339.10  2342.64  2355.48  2365.54  2398.80
                             4569.25  4576.26  4576.54  4579.69  4588.29
                             4588.44  4589.89  4598.90  4606.11  4606.28
                             4606.64  4620.41  4621.10

 Zero-point correction=                           0.260291 (Hartree/Particle)
 Thermal correction to Energy=                    0.274941
 Thermal correction to Enthalpy=                  0.275885
 Thermal correction to Gibbs Free Energy=         0.216148
 Sum of electronic and zero-point Energies=           -823.851307
 Sum of electronic and thermal Energies=              -823.836656
 Sum of electronic and thermal Enthalpies=            -823.835712
 Sum of electronic and thermal Free Energies=         -823.895449

                     E (Thermal)             CV                S
                      KCal/Mol        Cal/Mol-Kelvin    Cal/Mol-Kelvin
 Total                  172.528             60.227            125.727
 Electronic               0.000              0.000              0.000
 Translational            0.889              2.981             42.556
 Rotational               0.889              2.981             33.543
 Vibrational            170.751             54.265             49.628
 Vibration     1          0.593              1.987              7.624
 Vibration     2          0.594              1.983              5.559
 Vibration     3          0.594              1.981              5.223
 Vibration     4          0.597              1.971              4.292
 Vibration     5          0.609              1.933              3.104
 Vibration     6          0.635              1.850              2.200
 Vibration     7          0.640              1.832              2.080
 Vibration     8          0.670              1.741              1.642
 Vibration     9          0.674              1.729              1.597
 Vibration    10          0.675              1.726              1.588
 Vibration    11          0.709              1.626              1.287
 Vibration    12          0.774              1.449              0.928
 Vibration    13          0.782              1.429              0.895
 Vibration    14          0.785              1.421              0.883
 Vibration    15          0.809              1.360              0.795
 Vibration    16          0.817              1.341              0.770
 Vibration    17          0.831              1.306              0.725
 Vibration    18          0.871              1.215              0.619
 Vibration    19          0.918              1.113              0.519
 Vibration    20          0.924              1.099              0.507
 Vibration    21          0.960              1.028              0.447
 Vibration    22          0.972              1.005              0.428

 Optimization completed on the basis of negligible forces.
    -- Stationary point found.

 1\1\GINC-CN015\Freq\RB3LYP\def2TZVP\C18H13N1O1\PNG4RJV\23-Nov-2021\0\\
 #P Geom=AllCheck Guess=TCheck SCRF=Check GenChk RB3LYP/def2TZVP Freq\\
 Title\\0,1\C,0.6509957334,-3.6292134576,-0.0428893577\C,-0.0886655864,
 -2.4481814257,-0.0424899609\C,0.54734567,-1.207629789,-0.0499156322\C,
 1.9497041791,-1.1847134951,-0.0576836256\C,2.6842167683,-2.3541950114,
 -0.0576542971\C,2.036360354,-3.589310005,-0.0504775637\C,1.9495809265,
 1.1849240221,-0.0575646765\C,0.5472201116,1.2076933964,-0.0497956536\C
 ,-0.0889200334,2.4481781923,-0.0422489824\H,-1.1684488285,2.4891070537

 Normal termination of Gaussian 09 at Tue Nov 23 15:27:16 2021.
 Gaussian 09:  ES64L-G09RevE.01 30-Nov-2015

 ----------------------------------------------------------------------
 #p b3lyp chkbasis geom=allcheck Guess=Read int=ultrafine scrf=(SMD,sol
 vent=n,n-DiMethylAcetamide) td=(NStates=30) EmpiricalDispersion=GD3BJ
 ----------------------------------------------------------------------

 Structure from the checkpoint file:  "cp.chk"
 -----
 Title
 -----
 Charge =  0 Multiplicity = 1

                         Standard orientation:
 ---------------------------------------------------------------------
 Center     Atomic      Atomic             Coordinates (Angstroms)
 Number     Number       Type             X           Y           Z
 ---------------------------------------------------------------------
      1          6           0        0.651240    3.629253   -0.006786
      2          6           0       -0.088350    2.448178   -0.004457
      3          6           0        0.547756    1.207663    0.000736
      4          6           0        1.950134    1.184828    0.003445
      5          6           0        2.684574    2.354352    0.000707
      6          6           0        2.036625    3.589429   -0.004194
      7          6           0        1.950148   -1.184809    0.003446
      8          6           0        0.547769   -1.207660    0.000737
      9          6           0       -0.088322   -2.448182   -0.004452
     10          1           0       -1.167863   -2.489173   -0.006422
     11          6           0        0.651280   -3.629248   -0.006778
     12          6           0        2.036665   -3.589410   -0.004190
     13          6           0        2.684601   -2.354325    0.000708
     14          1           0       -1.167891    2.489157   -0.006430
     15          1           0        3.765000    2.287011    0.002945
     16          1           0        0.129996   -4.577725   -0.010585
     17          7           0       -0.155309   -0.000002    0.003796
     18          6           0       -1.584860   -0.000009    0.002383
     19          6           0       -2.275110   -0.000002    1.208768
     20          6           0       -2.273483   -0.000022   -1.204985
     21          6           0       -3.665178   -0.000005    1.206247
     22          6           0       -3.663529   -0.000026   -1.204326
     23          1           0       -1.717386   -0.000028   -2.133598
     24          6           0       -4.359464   -0.000017    0.000500
     25          1           0       -4.202294   -0.000035   -2.143223
     26          1           0       -5.442093   -0.000020   -0.000241
     27          1           0        3.765025   -2.286972    0.002943
     28          1           0        0.129945    4.577724   -0.010596
     29          8           0        2.653711    0.000013    0.010387
     30          1           0        2.617738   -4.501912   -0.006004
     31          1           0        2.617687    4.501938   -0.006010
     32          1           0       -4.205189    0.000001    2.144429
     33          1           0       -1.720176    0.000008    2.138074
 ---------------------------------------------------------------------

 SCF Done:  E(RB3LYP) =  -824.111596916     A.U. after    4 cycles

 Excitation energies and oscillator strengths:

 Excited State   1:      Singlet-A      3.4198 eV  362.55 nm  f=0.0036  <S**2>=0.000
      68 -> 69         0.69522
      68 -> 71        -0.10340
 This state for optimization and/or second-order correction.
 Total Energy, E(TD-HF/TD-KS) =  -823.985922501
 Copying the excited state density for this state as the 1-particle RhoCI density.

 Excited State   2:      Singlet-A      3.5768 eV  346.64 nm  f=0.0000  <S**2>=0.000
      68 -> 70         0.70403

 Excited State   3:      Singlet-A      3.7165 eV  333.60 nm  f=0.1407  <S**2>=0.000
      68 -> 69         0.10661
      68 -> 71         0.68808

 Excited State   4:      Singlet-A      4.0573 eV  305.59 nm  f=0.0015  <S**2>=0.000
      68 -> 72         0.69021

 Excited State   5:      Singlet-A      4.1197 eV  300.95 nm  f=0.1325  <S**2>=0.000
      67 -> 71         0.11429
      68 -> 73         0.68603

 Excited State   6:      Singlet-A      5.1440 eV  241.03 nm  f=0.6054  <S**2>=0.000
      64 -> 72         0.10340
      67 -> 69         0.67979
      68 -> 71        -0.10142
      68 -> 73         0.10112

 Excited State   7:      Singlet-A      5.1713 eV  239.76 nm  f=0.1242  <S**2>=0.000
      64 -> 69        -0.10646
      64 -> 71         0.10702
      68 -> 74         0.67227

 Excited State   8:      Singlet-A      5.2370 eV  236.75 nm  f=0.0000  <S**2>=0.000
      67 -> 70         0.70456

 Excited State   9:      Singlet-A      5.3455 eV  231.94 nm  f=0.0003  <S**2>=0.000
      63 -> 70        -0.22155
      65 -> 69         0.44096
      65 -> 71         0.19511
      65 -> 73         0.16019
      66 -> 70         0.43599

 Excited State  10:      Singlet-A      5.3458 eV  231.93 nm  f=0.2170  <S**2>=0.000
      67 -> 71         0.66987
      67 -> 73         0.10834
      68 -> 73        -0.10557

 Excited State  11:      Singlet-A      5.5566 eV  223.13 nm  f=0.0093  <S**2>=0.000
      68 -> 75         0.29872
      68 -> 76         0.60078
      68 -> 78         0.21074

 Excited State  12:      Singlet-A      5.6194 eV  220.63 nm  f=0.0002  <S**2>=0.000
      63 -> 69        -0.15363
      64 -> 69        -0.10456
      66 -> 69        -0.37227
      67 -> 72         0.54550

 Excited State  13:      Singlet-A      5.7074 eV  217.23 nm  f=0.1423  <S**2>=0.000
      64 -> 71         0.32873
      64 -> 73        -0.13156
      66 -> 69         0.43798
      67 -> 72         0.39412

 Excited State  14:      Singlet-A      5.7229 eV  216.65 nm  f=0.0000  <S**2>=0.000
      68 -> 75         0.60959
      68 -> 76        -0.33345

 Excited State  15:      Singlet-A      5.8157 eV  213.19 nm  f=0.0642  <S**2>=0.000
      67 -> 71        -0.10209
      67 -> 73         0.67959

 Excited State  16:      Singlet-A      5.8906 eV  210.48 nm  f=0.0024  <S**2>=0.000
      63 -> 69         0.27400
      64 -> 69         0.32930
      64 -> 71         0.24030
      65 -> 70         0.31369
      66 -> 69        -0.25293
      66 -> 71        -0.24630
      67 -> 74         0.10040

 Excited State  17:      Singlet-A      5.9126 eV  209.70 nm  f=0.0106  <S**2>=0.000
      65 -> 69        -0.44447
      65 -> 71         0.48299
      66 -> 70         0.23121

 Excited State  18:      Singlet-A      5.9647 eV  207.86 nm  f=0.0029  <S**2>=0.000
      63 -> 69         0.42256
      64 -> 69        -0.32338
      66 -> 69        -0.13779
      66 -> 71         0.41002

 Excited State  19:      Singlet-A      5.9981 eV  206.71 nm  f=0.0044  <S**2>=0.000
      63 -> 70         0.43279
      64 -> 70         0.29668
      65 -> 71        -0.27031
      66 -> 70         0.38588

 Excited State  20:      Singlet-A      6.0234 eV  205.84 nm  f=0.0017  <S**2>=0.000
      63 -> 71        -0.18410
      64 -> 69         0.43817
      65 -> 70        -0.24219
      66 -> 71         0.42065

 Excited State  21:      Singlet-A      6.0475 eV  205.02 nm  f=0.0010  <S**2>=0.000
      63 -> 70        -0.24042
      64 -> 70         0.63873
      65 -> 71         0.11396
      66 -> 70        -0.13900

 Excited State  22:      Singlet-A      6.0975 eV  203.33 nm  f=0.0000  <S**2>=0.000
      68 -> 77         0.70229

 Excited State  23:      Singlet-A      6.1796 eV  200.64 nm  f=0.3213  <S**2>=0.000
      63 -> 69         0.29525
      63 -> 71         0.23620
      63 -> 73         0.18992
      64 -> 69         0.15342
      64 -> 71        -0.25700
      64 -> 73         0.14439
      65 -> 70         0.17717
      66 -> 69         0.18558
      66 -> 73         0.33064
      67 -> 74        -0.12568

 Excited State  24:      Singlet-A      6.2081 eV  199.71 nm  f=0.0416  <S**2>=0.000
      64 -> 72         0.16993
      66 -> 72         0.66625

 Excited State  25:      Singlet-A      6.2089 eV  199.69 nm  f=0.0000  <S**2>=0.000
      68 -> 75        -0.17457
      68 -> 76        -0.14454
      68 -> 78         0.65276

 Excited State  26:      Singlet-A      6.2190 eV  199.36 nm  f=0.0416  <S**2>=0.000
      63 -> 70        -0.28630
      65 -> 69        -0.24972
      65 -> 71        -0.32468
      65 -> 73         0.49251

 Excited State  27:      Singlet-A      6.2405 eV  198.68 nm  f=0.0000  <S**2>=0.000
      65 -> 72         0.70579

 Excited State  28:      Singlet-A      6.3056 eV  196.63 nm  f=0.3825  <S**2>=0.000
      63 -> 69         0.20182
      63 -> 73        -0.17007
      64 -> 73        -0.16055
      65 -> 70        -0.39529
      66 -> 69        -0.13169
      66 -> 71        -0.20554
      66 -> 73         0.39662
      67 -> 74        -0.11436

 Excited State  29:      Singlet-A      6.3327 eV  195.78 nm  f=0.3495  <S**2>=0.000
      63 -> 72         0.11426
      64 -> 72         0.63332
      66 -> 72        -0.18152
      66 -> 74         0.11204

 Excited State  30:      Singlet-A      6.3375 eV  195.64 nm  f=0.1065  <S**2>=0.000
      63 -> 71         0.54433
      63 -> 73        -0.12684
      64 -> 71         0.30519
      64 -> 73         0.19613
      67 -> 74         0.15528

 The electronic state is 1-A.
 Alpha  occ. eigenvalues --  -19.17642 -14.35758 -10.23975 -10.23973 -10.22606
 Alpha  occ. eigenvalues --  -10.22604 -10.21694 -10.17951 -10.17950 -10.17880
 Alpha  occ. eigenvalues --  -10.17858 -10.17794 -10.17409 -10.17409 -10.17323
 Alpha  occ. eigenvalues --  -10.17323 -10.17091 -10.17091 -10.16945 -10.16945
 Alpha  occ. eigenvalues --   -1.09477  -0.98041  -0.87346  -0.86460  -0.84118
 Alpha  occ. eigenvalues --   -0.77256  -0.76563  -0.76394  -0.75520  -0.73721
 Alpha  occ. eigenvalues --   -0.70714  -0.65204  -0.65062  -0.61663  -0.60448
 Alpha  occ. eigenvalues --   -0.59480  -0.57902  -0.56723  -0.54009  -0.50620
 Alpha  occ. eigenvalues --   -0.50019  -0.47992  -0.47536  -0.47261  -0.47219
 Alpha  occ. eigenvalues --   -0.45656  -0.44056  -0.43920  -0.43643  -0.43447
 Alpha  occ. eigenvalues --   -0.42762  -0.39368  -0.38325  -0.38243  -0.38064
 Alpha  occ. eigenvalues --   -0.37831  -0.36791  -0.36020  -0.35900  -0.35169
 Alpha  occ. eigenvalues --   -0.33706  -0.32713  -0.27228  -0.26673  -0.26444
 Alpha  occ. eigenvalues --   -0.26072  -0.23823  -0.18294
 Alpha virt. eigenvalues --   -0.02912  -0.02289  -0.01974  -0.01048  -0.00578
 Alpha virt. eigenvalues --    0.02538   0.05245   0.05477   0.06706   0.07129
 Alpha virt. eigenvalues --    0.07873   0.08652   0.09522   0.09945   0.10350

 Mulliken charges:
               1
     1  C   -0.194094
     2  C   -0.195379
     3  C    0.069545
     4  C    0.232359
     5  C   -0.277986
     6  C   -0.143961
     7  C    0.232359
     8  C    0.069545
     9  C   -0.195379
    10  H    0.170259
    11  C   -0.194094
    12  C   -0.143961
    13  C   -0.277986
    14  H    0.170259
    15  H    0.139906
    16  H    0.146157
    17  N    0.033434
    18  C    0.082926
    19  C   -0.215374
    20  C   -0.216084
    21  C   -0.110383
    22  C   -0.110160
    23  H    0.148114
    24  C   -0.131110
    25  H    0.151249
    26  H    0.152500
    27  H    0.139906
    28  H    0.146157
    29  O   -0.271505
    30  H    0.146752
    31  H    0.146752
    32  H    0.151210
    33  H    0.148067
 Sum of Mulliken charges =  -0.00000

 Dipole moment (field-independent basis, Debye):
    X=             -3.3493    Y=             -0.0000    Z=             -0.0115  Tot=              3.3493
 Quadrupole moment (field-independent basis, Debye-Ang):
   XX=           -101.0102   YY=           -110.7055   ZZ=           -115.2557
   XY=              0.0000   XZ=             -0.0019   YZ=              0.0001

 Normal termination of Gaussian 09 at Tue Nov 23 16:40:32 2021.
