 Gaussian 09, Revision E.01,

 ----------------------------------------------------------------------
 #p PBEPBE/def2TZVP opt=tight freq=noraman nosymm int=ultrafine scrf=(S
 MD,solvent=n,n-DiMethylAcetamide) EmpiricalDispersion=GD3BJ
 ----------------------------------------------------------------------

 -----
 Title
 -----
 Symbolic Z-matrix:
 Charge =  0 Multiplicity = 1

 SCF Done:  E(RPBE-PBE) =  -823.046209685     A.U. after   13 cycles
 SCF Done:  E(RPBE-PBE) =  -823.048434154     A.U. after   10 cycles
 SCF Done:  E(RPBE-PBE) =  -823.048532328     A.U. after   10 cycles
 SCF Done:  E(RPBE-PBE) =  -823.048649859     A.U. after   10 cycles
 SCF Done:  E(RPBE-PBE) =  -823.048734167     A.U. after    9 cycles
 SCF Done:  E(RPBE-PBE) =  -823.048843862     A.U. after   10 cycles
 SCF Done:  E(RPBE-PBE) =  -823.048857740     A.U. after    9 cycles
 SCF Done:  E(RPBE-PBE) =  -823.048859327     A.U. after    9 cycles
 SCF Done:  E(RPBE-PBE) =  -823.048859419     A.U. after    7 cycles
 SCF Done:  E(RPBE-PBE) =  -823.048859445     A.U. after    7 cycles
 SCF Done:  E(RPBE-PBE) =  -823.048859459     A.U. after    7 cycles
 SCF Done:  E(RPBE-PBE) =  -823.048859461     A.U. after    5 cycles
 Optimization completed.
    -- Stationary point found.
 Normal termination of Gaussian 09 at Tue Nov 23 16:09:39 2021.

 ---------------------------------------------------------------------
 #P Geom=AllCheck Guess=TCheck SCRF=Check GenChk RPBEPBE/def2TZVP Freq
 ---------------------------------------------------------------------

 Structure from the checkpoint file:  "cp.chk"
 -----
 Title
 -----
 Charge =  0 Multiplicity = 1

 SCF Done:  E(RPBE-PBE) =  -823.048859461     A.U. after    1 cycles

  Exact polarizability: 387.615  -0.002 438.349  -0.651   0.011 227.022
 Approx polarizability: 517.704  -0.002 559.612  -0.925   0.014 296.371

                      1                      2                      3
                      A                      A                      A
 Frequencies --     25.9407                36.4762                37.7855
 Red. masses --      6.4989                 3.7885                 4.5743
 Frc consts  --      0.0026                 0.0030                 0.0038
 IR Inten    --      0.9413                 0.0000                 0.1464

                      4                      5                      6
                      A                      A                      A
 Frequencies --     62.8743               113.6795               185.4815
 Red. masses --      5.0118                 3.7995                 5.3978
 Frc consts  --      0.0117                 0.0289                 0.1094
 IR Inten    --      0.3789                 0.0001                 0.2575

                      7                      8                      9
                      A                      A                      A
 Frequencies --    198.9500               250.8748               261.0425
 Red. masses --      5.3666                 4.2527                 5.3254
 Frc consts  --      0.1252                 0.1577                 0.2138
 IR Inten    --      0.0424                 0.4764                 2.8577

                     10                     11                     12
                      A                      A                      A
 Frequencies --    261.4466               314.2213               398.8706
 Red. masses --      4.9424                 5.9300                 6.7333
 Frc consts  --      0.1990                 0.3450                 0.6312
 IR Inten    --      0.0000                 7.0745                 0.2714

                     13                     14                     15
                      A                      A                      A
 Frequencies --    402.7155               403.8128               435.1323
 Red. masses --      4.7071                 2.9069                 4.9356
 Frc consts  --      0.4498                 0.2793                 0.5506
 IR Inten    --      6.2041                 0.0000                 0.0583

                     16                     17                     18
                      A                      A                      A
 Frequencies --    440.5898               458.6292               494.6914
 Red. masses --      3.1832                 3.7494                 4.5510
 Frc consts  --      0.3641                 0.4647                 0.6562
 IR Inten    --      0.0000                 7.1770                10.9025

                     19                     20                     21
                      A                      A                      A
 Frequencies --    541.9875               547.3156               578.2641
 Red. masses --      4.3512                 4.6977                 5.0574
 Frc consts  --      0.7531                 0.8291                 0.9964
 IR Inten    --      0.0006                 0.0240                21.1618

                     22                     23                     24
                      A                      A                      A
 Frequencies --    588.1399               608.4081               611.5850
 Red. masses --      8.1550                 6.0915                 6.4679
 Frc consts  --      1.6620                 1.3285                 1.4254
 IR Inten    --      8.7108                33.1178                 0.4133

                     25                     26                     27
                      A                      A                      A
 Frequencies --    649.6263               674.6013               689.8773
 Red. masses --      6.3533                 5.6942                 6.0137
 Frc consts  --      1.5797                 1.5268                 1.6863
 IR Inten    --     13.4222                 0.0001                 0.0321

                     28                     29                     30
                      A                      A                      A
 Frequencies --    692.2428               698.6986               719.5056
 Red. masses --      1.6294                 4.7298                 1.2348
 Frc consts  --      0.4600                 1.3604                 0.3766
 IR Inten    --     94.4991                 0.5965               293.2946

                     31                     32                     33
                      A                      A                      A
 Frequencies --    722.7143               756.5239               783.8844
 Red. masses --      1.2361                 2.2764                 6.3873
 Frc consts  --      0.3804                 0.7676                 2.3125
 IR Inten    --      0.0001                15.2563                10.4869

                     34                     35                     36
                      A                      A                      A
 Frequencies --    813.4562               816.0938               827.1556
 Red. masses --      1.3702                 1.4468                 1.2455
 Frc consts  --      0.5342                 0.5677                 0.5021
 IR Inten    --      0.0000                 0.2355                 0.0000

                     37                     38                     39
                      A                      A                      A
 Frequencies --    857.1822               877.4473               879.1193
 Red. masses --      5.2787                 1.3287                 1.3405
 Frc consts  --      2.2852                 0.6027                 0.6104
 IR Inten    --      7.4561                 0.0000                16.6163

                     40                     41                     42
                      A                      A                      A
 Frequencies --    892.0085               906.4453               907.0500
 Red. masses --      2.0269                 1.2160                 1.2186
 Frc consts  --      0.9502                 0.5887                 0.5907
 IR Inten    --      0.1134                 1.5660                 0.0005

                     43                     44                     45
                      A                      A                      A
 Frequencies --    919.8201               935.3539               945.2270
 Red. masses --      6.1493                 2.8707                 1.3671
 Frc consts  --      3.0653                 1.4797                 0.7197
 IR Inten    --      1.4815                 4.2652                 0.0009

                     46                     47                     48
                      A                      A                      A
 Frequencies --    968.5812               994.2999              1021.8951
 Red. masses --      1.2931                 6.2225                 2.0156
 Frc consts  --      0.7148                 3.6245                 1.2401
 IR Inten    --      0.0648                 3.6848                14.9299

                     49                     50                     51
                      A                      A                      A
 Frequencies --   1036.1098              1040.2905              1065.8599
 Red. masses --      2.0668                 1.7686                 1.4558
 Frc consts  --      1.3072                 1.1277                 0.9744
 IR Inten    --      6.7624                56.5782                20.2452

                     52                     53                     54
                      A                      A                      A
 Frequencies --   1082.8501              1101.9591              1129.9581
 Red. masses --      1.9287                 1.5175                 1.0768
 Frc consts  --      1.3324                 1.0857                 0.8101
 IR Inten    --     13.2559                31.7519                 0.0812

                     55                     56                     57
                      A                      A                      A
 Frequencies --   1132.3534              1134.4441              1145.2132
 Red. masses --      1.0884                 1.0664                 1.1264
 Frc consts  --      0.8222                 0.8086                 0.8704
 IR Inten    --      0.0288                 0.1151                 0.1665

                     58                     59                     60
                      A                      A                      A
 Frequencies --   1167.5418              1186.2470              1195.1545
 Red. masses --      3.3987                 2.4248                 3.2508
 Frc consts  --      2.7296                 2.0104                 2.7359
 IR Inten    --      0.0588               147.4687                19.2787

                     61                     62                     63
                      A                      A                      A
 Frequencies --   1247.4889              1265.3090              1289.0218
 Red. masses --      1.9935                 1.6471                 1.3907
 Frc consts  --      1.8278                 1.5537                 1.3614
 IR Inten    --    396.8427                14.5479                 0.9650

                     64                     65                     66
                      A                      A                      A
 Frequencies --   1311.1845              1316.2777              1340.3891
 Red. masses --      3.2327                 3.6504                 7.6566
 Frc consts  --      3.2745                 3.7263                 8.1049
 IR Inten    --    112.8895               959.0475                 3.7485

                     67                     68                     69
                      A                      A                      A
 Frequencies --   1349.4191              1371.3395              1430.5224
 Red. masses --      6.5603                 8.4731                 2.6480
 Frc consts  --      7.0383                 9.3881                 3.1927
 IR Inten    --     47.4906                 8.1010                 1.4849

                     70                     71                     72
                      A                      A                      A
 Frequencies --   1434.6050              1447.8826              1468.7161
 Red. masses --      2.3156                 2.7069                 3.2284
 Frc consts  --      2.8079                 3.3434                 4.1031
 IR Inten    --      5.6077                19.7142              1305.7334

                     73                     74                     75
                      A                      A                      A
 Frequencies --   1478.5129              1499.4490              1558.7404
 Red. masses --      2.4845                 3.4130                 6.2168
 Frc consts  --      3.1999                 4.5212                 8.8995
 IR Inten    --     63.9412                44.8485                17.6776

                     76                     77                     78
                      A                      A                      A
 Frequencies --   1581.2187              1584.1146              1590.7195
 Red. masses --      6.9981                 6.4248                 6.2988
 Frc consts  --     10.3090                 9.4991                 9.3906
 IR Inten    --     71.3733                 5.4721                45.9646

                     79                     80                     81
                      A                      A                      A
 Frequencies --   1597.7571              1623.5300              3106.3614
 Red. masses --      7.7810                 7.8345                 1.0854
 Frc consts  --     11.7032                12.1670                 6.1710
 IR Inten    --      2.2832                29.2249                 0.5167

                     82                     83                     84
                      A                      A                      A
 Frequencies --   3111.4099              3111.6403              3113.2145
 Red. masses --      1.0853                 1.0855                 1.0878
 Frc consts  --      6.1905                 6.1924                 6.2120
 IR Inten    --      2.0359                 0.5825                 3.5266

                     85                     86                     87
                      A                      A                      A
 Frequencies --   3119.2005              3119.2930              3120.3526
 Red. masses --      1.0896                 1.0897                 1.0916
 Frc consts  --      6.2460                 6.2471                 6.2619
 IR Inten    --     23.5867                 3.1003                16.7671

                     88                     89                     90
                      A                      A                      A
 Frequencies --   3126.3801              3130.2715              3130.4999
 Red. masses --      1.0952                 1.0923                 1.0925
 Frc consts  --      6.3068                 6.3058                 6.3079
 IR Inten    --     16.9222                 8.4744                15.7121

                     91                     92                     93
                      A                      A                      A
 Frequencies --   3131.9768              3136.3840              3136.6870
 Red. masses --      1.0985                 1.0963                 1.0962
 Frc consts  --      6.3486                 6.3541                 6.3545
 IR Inten    --      7.1501                12.7819                 0.2780

 - Thermochemistry -
 -------------------
 Temperature   298.150 Kelvin.  Pressure   1.00000 Atm.
 Atom     1 has atomic number  6 and mass  12.00000

 Molecular mass:   259.09971 amu.
 Principal axes and moments of inertia in atomic units:
                           1         2         3
     Eigenvalues --  4194.808465052.788278609.94504
           X            0.99999  -0.00006   0.00353
           Y            0.00006   1.00000  -0.00005
           Z           -0.00353   0.00005   0.99999
 This molecule is an asymmetric top.
 Rotational symmetry number  1.
 Warning -- assumption of classical behavior for rotation
           may cause significant error
 Rotational temperatures (Kelvin)      0.02065     0.01714     0.01006
 Rotational constants (GHZ):           0.43023     0.35718     0.20961
 Zero-point vibrational energy     663960.8 (Joules/Mol)
                                  158.69044 (Kcal/Mol)
 Warning -- explicit consideration of  24 degrees of freedom as
           vibrations may cause significant error
 Vibrational temperatures:     37.32    52.48    54.36    90.46   163.56
          (Kelvin)            266.87   286.24   360.95   375.58   376.16
                              452.09   573.89   579.42   581.00   626.06
                              633.91   659.86   711.75   779.80   787.46
                              831.99   846.20   875.36   879.93   934.67
                              970.60   992.58   995.98  1005.27  1035.21
                             1039.82  1088.47  1127.83  1170.38  1174.18
                             1190.09  1233.29  1262.45  1264.85  1283.40
                             1304.17  1305.04  1323.41  1345.76  1359.97
                             1393.57  1430.57  1470.28  1490.73  1496.74
                             1533.53  1557.98  1585.47  1625.76  1629.20
                             1632.21  1647.70  1679.83  1706.74  1719.56
                             1794.86  1820.50  1854.61  1886.50  1893.83
                             1928.52  1941.51  1973.05  2058.20  2064.07
                             2083.18  2113.15  2127.25  2157.37  2242.68
                             2275.02  2279.18  2288.69  2298.81  2335.89
                             4469.36  4476.62  4476.95  4479.22  4487.83
                             4487.96  4489.49  4498.16  4503.76  4504.09
                             4506.21  4512.55  4512.99

 Zero-point correction=                           0.252889 (Hartree/Particle)
 Thermal correction to Energy=                    0.268046
 Thermal correction to Enthalpy=                  0.268990
 Thermal correction to Gibbs Free Energy=         0.209040
 Sum of electronic and zero-point Energies=           -822.795970
 Sum of electronic and thermal Energies=              -822.780813
 Sum of electronic and thermal Enthalpies=            -822.779869
 Sum of electronic and thermal Free Energies=         -822.839819

                     E (Thermal)             CV                S
                      KCal/Mol        Cal/Mol-Kelvin    Cal/Mol-Kelvin
 Total                  168.202             62.670            126.176
 Electronic               0.000              0.000              0.000
 Translational            0.889              2.981             42.556
 Rotational               0.889              2.981             33.567
 Vibrational            166.424             56.709             50.053
 Vibration     1          0.593              1.985              6.118
 Vibration     2          0.594              1.982              5.442
 Vibration     3          0.594              1.982              5.372
 Vibration     4          0.597              1.972              4.365
 Vibration     5          0.607              1.938              3.205
 Vibration     6          0.632              1.860              2.273
 Vibration     7          0.637              1.841              2.143
 Vibration     8          0.663              1.761              1.724
 Vibration     9          0.669              1.744              1.655
 Vibration    10          0.669              1.743              1.652
 Vibration    11          0.702              1.647              1.340
 Vibration    12          0.765              1.473              0.967
 Vibration    13          0.768              1.464              0.953
 Vibration    14          0.769              1.462              0.949
 Vibration    15          0.796              1.394              0.842
 Vibration    16          0.800              1.382              0.825
 Vibration    17          0.817              1.342              0.770
 Vibration    18          0.850              1.262              0.672
 Vibration    19          0.897              1.157              0.561
 Vibration    20          0.903              1.146              0.550
 Vibration    21          0.935              1.078              0.489
 Vibration    22          0.945              1.057              0.471
 Vibration    23          0.967              1.014              0.435
 Vibration    24          0.971              1.007              0.430

 Normal termination of Gaussian 09 at Tue Nov 23 17:29:57 2021.
 Gaussian 09:  ES64L-G09RevE.01 30-Nov-2015

 ----------------------------------------------------------------------
 #p PBEPBE chkbasis geom=allcheck Guess=Read int=ultrafine scrf=(SMD,so
 lvent=n,n-DiMethylAcetamide) td=(NStates=30) EmpiricalDispersion=GD3BJ
 ----------------------------------------------------------------------

 Structure from the checkpoint file:  "cp.chk"
 -----
 Title
 -----
 Charge =  0 Multiplicity = 1

                         Standard orientation:
 ---------------------------------------------------------------------
 Center     Atomic      Atomic             Coordinates (Angstroms)
 Number     Number       Type             X           Y           Z
 ---------------------------------------------------------------------
      1          6           0        0.650313    3.643578   -0.001146
      2          6           0       -0.091486    2.456405   -0.001379
      3          6           0        0.548760    1.209669   -0.000612
      4          6           0        1.958883    1.187110    0.000413
      5          6           0        2.695221    2.364171    0.000706
      6          6           0        2.042726    3.604461    0.000001
      7          6           0        1.958895   -1.187094    0.000414
      8          6           0        0.548772   -1.209665   -0.000610
      9          6           0       -0.091463   -2.456408   -0.001372
     10          1           0       -1.180910   -2.493488   -0.002164
     11          6           0        0.650347   -3.643574   -0.001136
     12          6           0        2.042760   -3.604444    0.000007
     13          6           0        2.695244   -2.364148    0.000707
     14          1           0       -1.180934    2.493475   -0.002174
     15          1           0        3.784689    2.296620    0.001594
     16          1           0        0.123618   -4.599224   -0.001746
     17          7           0       -0.155285   -0.000002   -0.000775
     18          6           0       -1.588899   -0.000008   -0.000163
     19          6           0       -2.280522    0.000003    1.214159
     20          6           0       -2.281738   -0.000024   -1.213781
     21          6           0       -3.677097    0.000000    1.212077
     22          6           0       -3.678321   -0.000027   -1.210298
     23          1           0       -1.721597   -0.000033   -2.150582
     24          6           0       -4.375705   -0.000015    0.001241
     25          1           0       -4.222797   -0.000039   -2.156266
     26          1           0       -5.467293   -0.000017    0.001794
     27          1           0        3.784711   -2.296587    0.001592
     28          1           0        0.123575    4.599223   -0.001760
     29          8           0        2.670867    0.000011    0.001290
     30          1           0        2.628474   -4.524538    0.000235
     31          1           0        2.628431    4.524560    0.000227
     32          1           0       -4.220624    0.000010    2.158592
     33          1           0       -1.719423    0.000015    2.150388
 ---------------------------------------------------------------------

 SCF Done:  E(RPBE-PBE) =  -823.048859425     A.U. after    4 cycles

 Excitation energies and oscillator strengths:

 Excited State   1:      Singlet-A      2.8154 eV  440.38 nm  f=0.0005  <S**2>=0.000
      68 -> 69         0.68240
      68 -> 71         0.16069
 This state for optimization and/or second-order correction.
 Total Energy, E(TD-HF/TD-KS) =  -822.945396320
 Copying the excited state density for this state as the 1-particle RhoCI density.

 Excited State   2:      Singlet-A      2.8448 eV  435.83 nm  f=0.0000  <S**2>=0.000
      68 -> 70         0.70710

 Excited State   3:      Singlet-A      3.1924 eV  388.38 nm  f=0.0598  <S**2>=0.000
      68 -> 69        -0.17549
      68 -> 71         0.65543
      68 -> 73         0.18224

 Excited State   4:      Singlet-A      3.5337 eV  350.87 nm  f=0.1636  <S**2>=0.000
      67 -> 69        -0.15328
      67 -> 71         0.10216
      68 -> 71        -0.17831
      68 -> 73         0.65570

 Excited State   5:      Singlet-A      3.6074 eV  343.70 nm  f=0.0011  <S**2>=0.000
      68 -> 72         0.68816

 Excited State   6:      Singlet-A      4.2727 eV  290.18 nm  f=0.0000  <S**2>=0.000
      67 -> 70         0.70710

 Excited State   7:      Singlet-A      4.3091 eV  287.72 nm  f=0.0997  <S**2>=0.000
      67 -> 69         0.60263
      67 -> 71         0.31151
      67 -> 73         0.16620

 Excited State   8:      Singlet-A      4.4977 eV  275.66 nm  f=0.0602  <S**2>=0.000
      64 -> 69        -0.18689
      64 -> 71         0.16146
      66 -> 69        -0.13830
      68 -> 74         0.63506

 Excited State   9:      Singlet-A      4.7289 eV  262.18 nm  f=0.6110  <S**2>=0.000
      64 -> 72        -0.11079
      66 -> 72        -0.10548
      67 -> 69        -0.29339
      67 -> 71         0.59552
      68 -> 73        -0.12707

 Excited State  10:      Singlet-A      4.8725 eV  254.46 nm  f=0.0048  <S**2>=0.000
      63 -> 69        -0.14948
      63 -> 71        -0.12110
      64 -> 69         0.13192
      66 -> 69        -0.32722
      66 -> 71        -0.11156
      66 -> 73         0.13639
      67 -> 72         0.54332

 Excited State  11:      Singlet-A      4.9506 eV  250.44 nm  f=0.0000  <S**2>=0.000
      65 -> 69         0.48298
      66 -> 70         0.50187

 Excited State  12:      Singlet-A      4.9713 eV  249.40 nm  f=0.0599  <S**2>=0.000
      63 -> 72         0.13206
      64 -> 72        -0.17400
      66 -> 72         0.24187
      67 -> 73         0.61321

 Excited State  13:      Singlet-A      4.9848 eV  248.72 nm  f=0.0691  <S**2>=0.000
      63 -> 71         0.12831
      63 -> 73         0.10929
      64 -> 69         0.12838
      64 -> 71         0.31358
      66 -> 69         0.50600
      66 -> 71        -0.18673
      67 -> 72         0.22703

 Excited State  14:      Singlet-A      5.0238 eV  246.79 nm  f=0.0001  <S**2>=0.000
      64 -> 70         0.70143

 Excited State  15:      Singlet-A      5.0436 eV  245.82 nm  f=0.0026  <S**2>=0.000
      63 -> 70        -0.32694
      65 -> 69         0.38802
      65 -> 71        -0.30157
      66 -> 70        -0.36331

 Excited State  16:      Singlet-A      5.0694 eV  244.57 nm  f=0.0001  <S**2>=0.000
      63 -> 69         0.14811
      63 -> 71        -0.10744
      64 -> 69         0.52542
      64 -> 71         0.25881
      64 -> 73         0.19615
      66 -> 69        -0.10528
      66 -> 71         0.18871
      67 -> 72        -0.13711

 Excited State  17:      Singlet-A      5.1155 eV  242.37 nm  f=0.0135  <S**2>=0.000
      63 -> 69         0.46703
      63 -> 71        -0.10140
      64 -> 69        -0.16326
      64 -> 73        -0.12392
      66 -> 71         0.37952
      66 -> 73         0.17454
      67 -> 72         0.20073

 Excited State  18:      Singlet-A      5.1322 eV  241.58 nm  f=0.0010  <S**2>=0.000
      68 -> 75         0.69684

 Excited State  19:      Singlet-A      5.1813 eV  239.29 nm  f=0.0043  <S**2>=0.000
      63 -> 70         0.10136
      65 -> 71        -0.16450
      68 -> 76         0.67496

 Excited State  20:      Singlet-A      5.2048 eV  238.21 nm  f=0.0002  <S**2>=0.000
      63 -> 70        -0.36015
      65 -> 69         0.12580
      65 -> 71         0.55283
      68 -> 76         0.19529

 Excited State  21:      Singlet-A      5.3445 eV  231.98 nm  f=0.0203  <S**2>=0.000
      63 -> 69         0.28083
      63 -> 71         0.21744
      63 -> 73        -0.29115
      66 -> 69        -0.12139
      66 -> 71        -0.33118
      66 -> 73         0.37659

 Excited State  22:      Singlet-A      5.3625 eV  231.21 nm  f=0.0371  <S**2>=0.000
      63 -> 69        -0.16114
      63 -> 71         0.41167
      63 -> 73         0.17322
      64 -> 69         0.11133
      64 -> 71        -0.26115
      64 -> 73         0.16032
      66 -> 71         0.21015
      66 -> 73         0.29121
      67 -> 74         0.16758

 Excited State  23:      Singlet-A      5.4202 eV  228.74 nm  f=0.0000  <S**2>=0.000
      65 -> 72         0.70690

 Excited State  24:      Singlet-A      5.4340 eV  228.16 nm  f=0.0000  <S**2>=0.000
      63 -> 72        -0.40875
      66 -> 72         0.55817
      67 -> 73        -0.10667

 Excited State  25:      Singlet-A      5.4368 eV  228.05 nm  f=0.0081  <S**2>=0.000
      63 -> 70        -0.31857
      65 -> 73         0.60284
      66 -> 70         0.14271

 Excited State  26:      Singlet-A      5.5560 eV  223.15 nm  f=0.0000  <S**2>=0.000
      68 -> 77         0.70691

 Excited State  27:      Singlet-A      5.6007 eV  221.37 nm  f=0.0018  <S**2>=0.000
      63 -> 71         0.15859
      63 -> 73        -0.15855
      64 -> 73        -0.42707
      66 -> 73        -0.11344
      67 -> 74         0.48734

 Excited State  28:      Singlet-A      5.7102 eV  217.13 nm  f=0.0011  <S**2>=0.000
      68 -> 78         0.70565

 Excited State  29:      Singlet-A      5.7247 eV  216.58 nm  f=0.2780  <S**2>=0.000
      63 -> 72         0.27238
      64 -> 72         0.57957
      64 -> 74        -0.10398
      66 -> 72         0.12212
      66 -> 74         0.15661

 Excited State  30:      Singlet-A      5.7772 eV  214.61 nm  f=0.1609  <S**2>=0.000
      63 -> 71         0.26487
      63 -> 73        -0.20847
      64 -> 69        -0.24108
      64 -> 71         0.36495
      64 -> 73         0.26208
      65 -> 70        -0.10848
      66 -> 69        -0.10020
      66 -> 71         0.17534
      68 -> 74        -0.19402

 The electronic state is 1-A.
 Alpha  occ. eigenvalues --  -18.80365 -14.03260  -9.95011  -9.95009  -9.93690
 Alpha  occ. eigenvalues --   -9.93688  -9.93039  -9.89302  -9.89301  -9.89183
 Alpha  occ. eigenvalues --   -9.89174  -9.89100  -9.88614  -9.88613  -9.88586
 Alpha  occ. eigenvalues --   -9.88586  -9.88291  -9.88291  -9.88177  -9.88177
 Alpha  occ. eigenvalues --   -1.00359  -0.89834  -0.79228  -0.78450  -0.76182
 Alpha  occ. eigenvalues --   -0.69887  -0.69295  -0.69008  -0.68149  -0.66367
 Alpha  occ. eigenvalues --   -0.63686  -0.58893  -0.58648  -0.55317  -0.54089
 Alpha  occ. eigenvalues --   -0.53315  -0.52407  -0.50645  -0.48464  -0.45026
 Alpha  occ. eigenvalues --   -0.44598  -0.42690  -0.42174  -0.41864  -0.41814
 Alpha  occ. eigenvalues --   -0.40402  -0.38824  -0.38757  -0.38448  -0.38219
 Alpha  occ. eigenvalues --   -0.37620  -0.34336  -0.34027  -0.33650  -0.33579
 Alpha  occ. eigenvalues --   -0.33123  -0.32007  -0.31244  -0.31139  -0.30582
 Alpha  occ. eigenvalues --   -0.29076  -0.28775  -0.24345  -0.23739  -0.23720
 Alpha  occ. eigenvalues --   -0.23325  -0.20985  -0.15737
 Alpha virt. eigenvalues --   -0.05683  -0.05286  -0.04776  -0.03807  -0.03577
 Alpha virt. eigenvalues --   -0.00475   0.02903   0.03295   0.04649   0.05226
 Alpha virt. eigenvalues --    0.06010   0.06840   0.07411   0.07730   0.08525

 Mulliken charges:
               1
     1  C   -0.193889
     2  C   -0.211803
     3  C    0.048052
     4  C    0.202106
     5  C   -0.287876
     6  C   -0.139686
     7  C    0.202106
     8  C    0.048052
     9  C   -0.211803
    10  H    0.157901
    11  C   -0.193889
    12  C   -0.139686
    13  C   -0.287876
    14  H    0.157902
    15  H    0.130603
    16  H    0.141364
    17  N    0.185096
    18  C    0.046937
    19  C   -0.203979
    20  C   -0.203773
    21  C   -0.116533
    22  C   -0.116536
    23  H    0.143009
    24  C   -0.117796
    25  H    0.146572
    26  H    0.148051
    27  H    0.130603
    28  H    0.141364
    29  O   -0.178762
    30  H    0.142285
    31  H    0.142285
    32  H    0.146568
    33  H    0.143032
 Sum of Mulliken charges =  -0.00000

 Dipole moment (field-independent basis, Debye):
    X=             -3.4318    Y=             -0.0000    Z=             -0.0001  Tot=              3.4318
 Quadrupole moment (field-independent basis, Debye-Ang):
   XX=            -99.4310   YY=           -110.7891   ZZ=           -114.8533
   XY=              0.0000   XZ=              0.0088   YZ=              0.0001

 1\1\GINC-CN083\SP\RPBEPBE TD-FC\Gen\C18H13N1O1\PNG4RJV\23-Nov-2021\0\\
 #p PBEPBE chkbasis geom=allcheck Guess=Read int=ultrafine scrf=(SMD,so
 lvent=n,n-DiMethylAcetamide) td=(NStates=30) EmpiricalDispersion=GD3BJ
 \\Title\\0,1\C,0,0.6512983306,-3.6435391592,-0.0474862115\C,0,-0.09056
 21982,-2.4564080075,-0.0445713597\C,0,0.5496064511,-1.2096355125,-0.04
 75377295\C,0,1.9597160534,-1.1869970352,-0.0535453136\C,0,2.6961153607
 ,-2.3640161069,-0.0565011731\C,0,2.0436971704,-3.6043426825,-0.0535529
 859\C,0,1.9595926158,1.1872076297,-0.0534250813\C,0,0.5494807553,1.209

 Normal termination of Gaussian 09 at Tue Nov 23 18:28:55 2021.
