 Gaussian 09, Revision E.01,

 ----------------------------------------------------------------------
 #p hf/def2TZVP opt=tight freq=noraman nosymm int=ultrafine scrf=(SMD,s
 olvent=n,n-DiMethylAcetamide)
 ----------------------------------------------------------------------

 -----
 Title
 -----
 Symbolic Z-matrix:
 Charge =  0 Multiplicity = 1

 SCF Done:  E(RHF) =  -818.805300715     A.U. after   14 cycles
 SCF Done:  E(RHF) =  -818.809957798     A.U. after   12 cycles
 SCF Done:  E(RHF) =  -818.810170033     A.U. after   11 cycles
 SCF Done:  E(RHF) =  -818.810188743     A.U. after   10 cycles
 SCF Done:  E(RHF) =  -818.810194231     A.U. after   10 cycles
 SCF Done:  E(RHF) =  -818.810198224     A.U. after   10 cycles
 SCF Done:  E(RHF) =  -818.810199941     A.U. after    9 cycles
 SCF Done:  E(RHF) =  -818.810200569     A.U. after    9 cycles
 SCF Done:  E(RHF) =  -818.810200675     A.U. after    8 cycles
 SCF Done:  E(RHF) =  -818.810200701     A.U. after    7 cycles
 SCF Done:  E(RHF) =  -818.810200724     A.U. after    7 cycles
 SCF Done:  E(RHF) =  -818.810200741     A.U. after    7 cycles
 SCF Done:  E(RHF) =  -818.810200748     A.U. after    6 cycles
 SCF Done:  E(RHF) =  -818.810200749     A.U. after    5 cycles
 SCF Done:  E(RHF) =  -818.810200749     A.U. after    3 cycles
 SCF Done:  E(RHF) =  -818.810200749     A.U. after    3 cycles
 Optimization completed.
    -- Stationary point found.
 Normal termination of Gaussian 09 at Tue Nov 23 18:45:53 2021.

 -----------------------------------------------------------------
 #P Geom=AllCheck Guess=TCheck SCRF=Check GenChk RHF/def2TZVP Freq
 -----------------------------------------------------------------

 Structure from the checkpoint file:  "cp.chk"
 -----
 Title
 -----
 Charge =  0 Multiplicity = 1

 SCF Done:  E(RHF) =  -818.810200749     A.U. after    1 cycles

  Exact polarizability: 340.068   0.001 327.455   3.627   0.006 217.921
 Approx polarizability: 220.559   0.001 204.496   3.223   0.003 160.603

                      1                      2                      3
                      A                      A                      A
 Frequencies --     31.4763                46.1660                49.7811
 Red. masses --      5.2132                 5.3032                 3.8637
 Frc consts  --      0.0030                 0.0067                 0.0056
 IR Inten    --      0.5753                 2.5615                 0.0415

                      4                      5                      6
                      A                      A                      A
 Frequencies --     76.2317               136.6106               198.2118
 Red. masses --      4.8733                 3.7811                 4.9616
 Frc consts  --      0.0167                 0.0416                 0.1148
 IR Inten    --      0.3370                 0.0368                 0.0680

                      7                      8                      9
                      A                      A                      A
 Frequencies --    235.7972               284.0674               292.9568
 Red. masses --      5.7770                 4.2749                 4.9287
 Frc consts  --      0.1892                 0.2032                 0.2492
 IR Inten    --      0.5393                 1.0237                 0.2054

                     10                     11                     12
                      A                      A                      A
 Frequencies --    301.0745               361.3941               426.4398
 Red. masses --      5.7201                 5.4356                 6.1973
 Frc consts  --      0.3055                 0.4183                 0.6640
 IR Inten    --      3.6390                 5.5433                 0.0025

                     13                     14                     15
                      A                      A                      A
 Frequencies --    462.6420               464.2448               482.6514
 Red. masses --      2.8625                 5.8043                 5.0060
 Frc consts  --      0.3610                 0.7370                 0.6871
 IR Inten    --      0.0025                12.9739                 0.9873

                     16                     17                     18
                      A                      A                      A
 Frequencies --    502.4490               517.3615               556.4690
 Red. masses --      3.1130                 3.5195                 4.6590
 Frc consts  --      0.4630                 0.5550                 0.8500
 IR Inten    --      0.0017                 8.4409                13.2304

                     19                     20                     21
                      A                      A                      A
 Frequencies --    613.7544               623.0197               642.4221
 Red. masses --      3.7765                 4.0481                 5.2788
 Frc consts  --      0.8382                 0.9258                 1.2836
 IR Inten    --      0.5047                 0.8894                21.6346

                     22                     23                     24
                      A                      A                      A
 Frequencies --    657.0821               675.0665               675.3157
 Red. masses --      7.2846                 5.8814                 6.4363
 Frc consts  --      1.8531                 1.5792                 1.7294
 IR Inten    --     15.7091                30.9825                 0.5223

                     25                     26                     27
                      A                      A                      A
 Frequencies --    713.5135               757.0591               778.5155
 Red. masses --      6.2065                 6.0759                 1.7079
 Frc consts  --      1.8617                 2.0517                 0.6099
 IR Inten    --      8.1766                 0.5884               120.3911

                     28                     29                     30
                      A                      A                      A
 Frequencies --    795.7466               812.5964               839.4754
 Red. masses --      4.6089                 4.1408                 1.3007
 Frc consts  --      1.7195                 1.6110                 0.5401
 IR Inten    --      1.4422                 3.6853               320.4028

                     31                     32                     33
                      A                      A                      A
 Frequencies --    839.9609               855.6962               867.2268
 Red. masses --      1.2312                 2.0140                 5.3506
 Frc consts  --      0.5118                 0.8689                 2.3709
 IR Inten    --      6.8093                16.3914                28.9077

                     34                     35                     36
                      A                      A                      A
 Frequencies --    943.3615               955.8797               960.8781
 Red. masses --      5.6173                 1.2492                 1.4096
 Frc consts  --      2.9453                 0.6725                 0.7668
 IR Inten    --     15.4383                 0.0062                 0.0705

                     37                     38                     39
                      A                      A                      A
 Frequencies --    964.4267               992.2345              1006.4262
 Red. masses --      1.4696                 3.3539                 6.2240
 Frc consts  --      0.8054                 1.9455                 3.7144
 IR Inten    --      0.2982                14.0958                 5.3994

                     40                     41                     42
                      A                      A                      A
 Frequencies --   1054.0553              1056.1207              1068.9719
 Red. masses --      1.3721                 1.3851                 1.7806
 Frc consts  --      0.8982                 0.9102                 1.1988
 IR Inten    --      0.0025                20.5090                 3.9216

                     43                     44                     45
                      A                      A                      A
 Frequencies --   1086.3642              1091.0175              1091.4068
 Red. masses --      5.9049                 1.2904                 1.2953
 Frc consts  --      4.1059                 0.9050                 0.9091
 IR Inten    --      0.4192                 0.0094                 0.5091

                     46                     47                     48
                      A                      A                      A
 Frequencies --   1114.4805              1114.7421              1123.2190
 Red. masses --      1.3773                 2.2088                 2.3871
 Frc consts  --      1.0079                 1.6171                 1.7744
 IR Inten    --      0.0357                11.5809                 5.8235

                     49                     50                     51
                      A                      A                      A
 Frequencies --   1129.5547              1133.8790              1157.1676
 Red. masses --      1.4063                 1.8601                 1.8592
 Frc consts  --      1.0572                 1.4091                 1.4668
 IR Inten    --     10.6812                83.3418                 2.5437

                     52                     53                     54
                      A                      A                      A
 Frequencies --   1182.0998              1188.2979              1199.8035
 Red. masses --      2.6403                 2.3557                 2.1369
 Frc consts  --      2.1738                 1.9598                 1.8124
 IR Inten    --     43.2644                17.5008                31.3595

                     55                     56                     57
                      A                      A                      A
 Frequencies --   1201.7014              1218.7342              1269.7712
 Red. masses --      2.1500                 1.6570                 1.1497
 Frc consts  --      1.8293                 1.4501                 1.0921
 IR Inten    --      0.6591                27.6322                 0.0645

                     58                     59                     60
                      A                      A                      A
 Frequencies --   1278.1432              1288.8274              1297.7555
 Red. masses --      2.9515                 1.5222                 1.4428
 Frc consts  --      2.8409                 1.4898                 1.4316
 IR Inten    --      0.6759                65.1960                 3.9860

                     61                     62                     63
                      A                      A                      A
 Frequencies --   1305.8575              1325.9910              1345.5630
 Red. masses --      1.7461                 2.1336                 3.3603
 Frc consts  --      1.7543                 2.2103                 3.5845
 IR Inten    --     13.0467                37.5596                13.7448

                     64                     65                     66
                      A                      A                      A
 Frequencies --   1403.2142              1414.9235              1449.8010
 Red. masses --      2.0554                 2.2268                 1.3702
 Frc consts  --      2.3845                 2.6267                 1.6969
 IR Inten    --     90.2747               383.5330                 3.3507

                     67                     68                     69
                      A                      A                      A
 Frequencies --   1449.9267              1456.2768              1592.0664
 Red. masses --      3.2394                 2.3830                 2.0941
 Frc consts  --      4.0124                 2.9775                 3.1272
 IR Inten    --    989.5888               111.5255                 8.8898

                     70                     71                     72
                      A                      A                      A
 Frequencies --   1597.0282              1608.6436              1636.2698
 Red. masses --      2.3339                 2.3700                 2.8073
 Frc consts  --      3.5072                 3.6134                 4.4284
 IR Inten    --      0.3039                38.6508              1178.5787

                     73                     74                     75
                      A                      A                      A
 Frequencies --   1648.6094              1669.0797              1746.8703
 Red. masses --      2.2929                 2.9061                 5.6941
 Frc consts  --      3.6718                 4.7700                10.2376
 IR Inten    --     68.1909                71.8686                 0.0132

                     76                     77                     78
                      A                      A                      A
 Frequencies --   1758.6357              1762.9615              1775.0053
 Red. masses --      5.5063                 6.0650                 5.5463
 Frc consts  --     10.0337                11.1062                10.2956
 IR Inten    --      5.0444                40.0361                61.0781

                     79                     80                     81
                      A                      A                      A
 Frequencies --   1786.7178              1800.8208              3323.8201
 Red. masses --      7.2365                 6.5850                 1.0874
 Frc consts  --     13.6109                12.5819                 7.0783
 IR Inten    --      3.5083                23.1051                 0.4532

                     82                     83                     84
                      A                      A                      A
 Frequencies --   3329.2765              3329.4479              3332.2309
 Red. masses --      1.0879                 1.0880                 1.0904
 Frc consts  --      7.1043                 7.1059                 7.1333
 IR Inten    --      1.3114                 2.3223                 3.2613

                     85                     86                     87
                      A                      A                      A
 Frequencies --   3340.2484              3340.6622              3340.7710
 Red. masses --      1.0937                 1.0928                 1.0929
 Frc consts  --      7.1894                 7.1854                 7.1866
 IR Inten    --     28.5114                30.3339                 8.7171

                     88                     89                     90
                      A                      A                      A
 Frequencies --   3347.7219              3353.8022              3353.9125
 Red. masses --      1.0967                 1.0978                 1.0981
 Frc consts  --      7.2419                 7.2752                 7.2774
 IR Inten    --     32.6386                25.6376                25.8561

                     91                     92                     93
                      A                      A                      A
 Frequencies --   3354.2215              3373.5083              3374.1510
 Red. masses --      1.0991                 1.0937                 1.0937
 Frc consts  --      7.2855                 7.3333                 7.3366
 IR Inten    --      0.9005                 0.3588                 9.6426

 - Thermochemistry -
 -------------------
 Temperature   298.150 Kelvin.  Pressure   1.00000 Atm.
 Atom     1 has atomic number  6 and mass  12.00000

 Molecular mass:   259.09971 amu.
 Principal axes and moments of inertia in atomic units:
                           1         2         3
     Eigenvalues --  4074.953425032.211178427.47097
           X            0.99999  -0.00005   0.00521
           Y            0.00005   1.00000  -0.00005
           Z           -0.00521   0.00005   0.99999
 This molecule is an asymmetric top.
 Rotational symmetry number  1.
 Warning -- assumption of classical behavior for rotation
           may cause significant error
 Rotational temperatures (Kelvin)      0.02126     0.01721     0.01028
 Rotational constants (GHZ):           0.44289     0.35864     0.21415
 Zero-point vibrational energy     728345.3 (Joules/Mol)
                                  174.07871 (Kcal/Mol)
 Warning -- explicit consideration of  19 degrees of freedom as
           vibrations may cause significant error
 Vibrational temperatures:     45.29    66.42    71.62   109.68   196.55
          (Kelvin)            285.18   339.26   408.71   421.50   433.18
                              519.96   613.55   665.64   667.94   694.43
                              722.91   744.37   800.63   883.05   896.39
                              924.30   945.39   971.27   971.63  1026.59
                             1089.24  1120.11  1144.90  1169.14  1207.82
                             1208.51  1231.15  1247.74  1357.29  1375.30
                             1382.49  1387.59  1427.60  1448.02  1516.55
                             1519.52  1538.01  1563.03  1569.73  1570.29
                             1603.49  1603.86  1616.06  1625.18  1631.40
                             1664.90  1700.78  1709.69  1726.25  1728.98
                             1753.48  1826.92  1838.96  1854.33  1867.18
                             1878.84  1907.80  1935.96  2018.91  2035.76
                             2085.94  2086.12  2095.25  2290.63  2297.76
                             2314.48  2354.22  2371.98  2401.43  2513.35
                             2530.28  2536.51  2553.83  2570.69  2590.98
                             4782.23  4790.08  4790.33  4794.33  4805.87
                             4806.46  4806.62  4816.62  4825.37  4825.53
                             4825.97  4853.72  4854.64

 Zero-point correction=                           0.277412 (Hartree/Particle)
 Thermal correction to Energy=                    0.290883
 Thermal correction to Enthalpy=                  0.291827
 Thermal correction to Gibbs Free Energy=         0.235367
 Sum of electronic and zero-point Energies=           -818.532789
 Sum of electronic and thermal Energies=              -818.519318
 Sum of electronic and thermal Enthalpies=            -818.518374
 Sum of electronic and thermal Free Energies=         -818.574834

                     E (Thermal)             CV                S
                      KCal/Mol        Cal/Mol-Kelvin    Cal/Mol-Kelvin
 Total                  182.532             55.172            118.831
 Electronic               0.000              0.000              0.000
 Translational            0.889              2.981             42.556
 Rotational               0.889              2.981             33.513
 Vibrational            180.754             49.211             42.762
 Vibration     1          0.594              1.983              5.734
 Vibration     2          0.595              1.979              4.975
 Vibration     3          0.595              1.978              4.826
 Vibration     4          0.599              1.965              3.986
 Vibration     5          0.614              1.917              2.851
 Vibration     6          0.637              1.842              2.150
 Vibration     7          0.655              1.786              1.834
 Vibration     8          0.682              1.703              1.509
 Vibration     9          0.688              1.687              1.457
 Vibration    10          0.693              1.672              1.411
 Vibration    11          0.736              1.552              1.116
 Vibration    12          0.788              1.413              0.870
 Vibration    13          0.820              1.333              0.758
 Vibration    14          0.822              1.329              0.754
 Vibration    15          0.839              1.289              0.703
 Vibration    16          0.858              1.245              0.652
 Vibration    17          0.872              1.212              0.616
 Vibration    18          0.912              1.126              0.531
 Vibration    19          0.973              1.003              0.427

 Normal termination of Gaussian 09 at Tue Nov 23 20:15:29 2021.
 Gaussian 09:  ES64L-G09RevE.01 30-Nov-2015

 ----------------------------------------------------------------------
 #p hf chkbasis geom=allcheck Guess=Read int=ultrafine scrf=(SMD,solven
 t=n,n-DiMethylAcetamide) td=(NStates=30)
 ----------------------------------------------------------------------

 Structure from the checkpoint file:  "cp.chk"
 -----
 Title
 -----
 Charge =  0 Multiplicity = 1

                         Standard orientation:
 ---------------------------------------------------------------------
 Center     Atomic      Atomic             Coordinates (Angstroms)
 Number     Number       Type             X           Y           Z
 ---------------------------------------------------------------------
      1          6           0       -0.696603    3.582373   -0.280309
      2          6           0        0.062888    2.426589   -0.178807
      3          6           0       -0.539808    1.199349    0.037547
      4          6           0       -1.926760    1.165801    0.149544
      5          6           0       -2.682955    2.305000    0.034991
      6          6           0       -2.068174    3.528902   -0.177842
      7          6           0       -1.926765   -1.165795    0.149542
      8          6           0       -0.539813   -1.199348    0.037543
      9          6           0        0.062878   -2.426590   -0.178816
     10          1           0        1.128541   -2.491923   -0.261906
     11          6           0       -0.696618   -3.582370   -0.280318
     12          6           0       -2.068188   -3.528895   -0.177847
     13          6           0       -2.682964   -2.304990    0.034989
     14          1           0        1.128551    2.491919   -0.261893
     15          1           0       -3.750066    2.227979    0.127387
     16          1           0       -0.199636   -4.520454   -0.442409
     17          7           0        0.171460   -0.000001    0.165557
     18          6           0        1.596678   -0.000004    0.100451
     19          6           0        2.248020    0.000008   -1.120503
     20          6           0        2.326770   -0.000018    1.273144
     21          6           0        3.629194    0.000009   -1.165710
     22          6           0        3.710071   -0.000019    1.227261
     23          1           0        1.812622   -0.000028    2.215992
     24          6           0        4.362278   -0.000005    0.008525
     25          1           0        4.273770   -0.000031    2.141420
     26          1           0        5.435796   -0.000006   -0.027785
     27          1           0       -3.750075   -2.227965    0.127386
     28          1           0       -0.199617    4.520455   -0.442396
     29          8           0       -2.573144    0.000004    0.420725
     30          1           0       -2.661351   -4.419895   -0.258385
     31          1           0       -2.661333    4.419905   -0.258381
     32          1           0        4.131703    0.000019   -2.114895
     33          1           0        1.675265    0.000019   -2.029149
 ---------------------------------------------------------------------

 SCF Done:  E(RHF) =  -818.810201587     A.U. after    4 cycles

 Excitation energies and oscillator strengths:

 Excited State   1:      Singlet-A      4.8555 eV  255.35 nm  f=0.0525  <S**2>=0.000
      63 -> 72        -0.10067
      64 -> 75        -0.16187
      67 -> 73        -0.12147
      68 -> 69        -0.38942
      68 -> 70         0.21372
      68 -> 71         0.43036
      68 -> 73         0.15445
 This state for optimization and/or second-order correction.
 Total Energy, E(TD-HF/TD-KS) =  -818.631765066
 Copying the excited state density for this state as the 1-particle RhoCI density.

 Excited State   2:      Singlet-A      5.3180 eV  233.14 nm  f=0.2410  <S**2>=0.000
      63 -> 75        -0.10182
      64 -> 72         0.25108
      67 -> 69        -0.12148
      67 -> 71         0.14740
      68 -> 69        -0.32677
      68 -> 70        -0.16131
      68 -> 71        -0.33200
      68 -> 73         0.33890

 Excited State   3:      Singlet-A      5.3250 eV  232.83 nm  f=0.0031  <S**2>=0.000
      63 -> 69        -0.12138
      63 -> 73         0.10331
      64 -> 71        -0.18175
      64 -> 73         0.11684
      66 -> 69         0.10579
      67 -> 75        -0.15186
      68 -> 72         0.60422

 Excited State   4:      Singlet-A      5.8803 eV  210.85 nm  f=0.0094  <S**2>=0.000
      63 -> 69         0.11323
      63 -> 73         0.15094
      64 -> 69         0.17196
      65 -> 70         0.35116
      65 -> 71        -0.14222
      66 -> 69         0.22701
      66 -> 71         0.20441
      66 -> 73         0.14864
      67 -> 72         0.23623
      68 -> 75         0.23625

 Excited State   5:      Singlet-A      5.9335 eV  208.96 nm  f=0.0029  <S**2>=0.000
      63 -> 70         0.20756
      65 -> 69        -0.37191
      65 -> 71        -0.16106
      65 -> 73        -0.25548
      66 -> 70         0.40826
      66 -> 71        -0.15726

 Excited State   6:      Singlet-A      5.9881 eV  207.05 nm  f=0.0030  <S**2>=0.000
      63 -> 69        -0.15501
      63 -> 71        -0.20809
      64 -> 69         0.13545
      64 -> 71        -0.10135
      64 -> 73        -0.15211
      65 -> 70        -0.26642
      66 -> 69        -0.22706
      66 -> 73        -0.19977
      67 -> 72         0.29991
      68 -> 75         0.27310

 Excited State   7:      Singlet-A      6.3211 eV  196.14 nm  f=0.0008  <S**2>=0.000
      62 -> 70         0.12992
      67 -> 70         0.13880
      68 -> 70         0.58568
      68 -> 71        -0.25165

 Excited State   8:      Singlet-A      6.6210 eV  187.26 nm  f=0.1942  <S**2>=0.000
      63 -> 72         0.29697
      64 -> 72        -0.19359
      66 -> 72        -0.16764
      67 -> 69        -0.25934
      67 -> 70        -0.10459
      67 -> 71        -0.28481
      67 -> 73         0.27185
      68 -> 69        -0.25838
      68 -> 70         0.13089

 Excited State   9:      Singlet-A      6.7021 eV  184.99 nm  f=1.3819  <S**2>=0.000
      63 -> 75        -0.21035
      64 -> 75         0.11059
      66 -> 75         0.11465
      67 -> 69        -0.34980
      67 -> 70         0.17486
      67 -> 71         0.36775
      67 -> 73         0.19729
      68 -> 69         0.17991
      68 -> 71         0.22303

 Excited State  10:      Singlet-A      6.7942 eV  182.49 nm  f=0.0140  <S**2>=0.000
      68 -> 74         0.41190
      68 -> 76         0.29467
      68 -> 78         0.32067
      68 -> 79         0.17979
      68 -> 83         0.14869
      68 -> 88        -0.16106

 Excited State  11:      Singlet-A      7.0117 eV  176.83 nm  f=2.0786  <S**2>=0.000
      63 -> 73         0.22844
      65 -> 70        -0.28202
      65 -> 71         0.11965
      66 -> 69         0.36528
      67 -> 72         0.26234
      67 -> 75        -0.15161
      68 -> 75        -0.26702

 Excited State  12:      Singlet-A      7.0846 eV  175.01 nm  f=0.1321  <S**2>=0.000
      63 -> 72         0.14658
      66 -> 72        -0.11413
      67 -> 71        -0.14228
      67 -> 73         0.12262
      68 -> 69         0.30658
      68 -> 71         0.19152
      68 -> 73         0.50412

 Excited State  13:      Singlet-A      7.2475 eV  171.07 nm  f=0.4768  <S**2>=0.000
      63 -> 71        -0.24163
      64 -> 69        -0.13029
      64 -> 70         0.14997
      64 -> 71         0.23665
      65 -> 69         0.20035
      65 -> 73         0.11491
      66 -> 70         0.23099
      67 -> 72         0.21428
      67 -> 75         0.25680
      68 -> 72         0.20128
      68 -> 75        -0.22700

 Excited State  14:      Singlet-A      7.2981 eV  169.89 nm  f=0.7224  <S**2>=0.000
      63 -> 70         0.21810
      64 -> 71        -0.15373
      65 -> 69         0.36730
      65 -> 71         0.14527
      65 -> 73         0.21259
      66 -> 70         0.32520
      66 -> 71        -0.18235
      67 -> 72        -0.11539
      67 -> 75        -0.13367
      68 -> 72        -0.11413
      68 -> 75         0.10562

 Excited State  15:      Singlet-A      7.5544 eV  164.12 nm  f=0.0662  <S**2>=0.000
      63 -> 69        -0.30628
      65 -> 70         0.34592
      65 -> 71        -0.13638
      66 -> 69        -0.14589
      66 -> 71        -0.13706
      66 -> 73        -0.24073
      67 -> 72         0.18423
      67 -> 75        -0.16040
      68 -> 72        -0.16307
      68 -> 75        -0.23392

 Excited State  16:      Singlet-A      7.7887 eV  159.18 nm  f=0.0052  <S**2>=0.000
      64 -> 77        -0.19255
      68 -> 74        -0.32540
      68 -> 75        -0.11919
      68 -> 76         0.48671
      68 -> 90         0.12499

 Excited State  17:      Singlet-A      8.0753 eV  153.54 nm  f=0.0003  <S**2>=0.000
      64 -> 76        -0.22601
      68 -> 77         0.59784

 Excited State  18:      Singlet-A      8.1942 eV  151.31 nm  f=0.0196  <S**2>=0.000
      64 -> 69        -0.13625
      64 -> 77         0.11641
      67 -> 74        -0.19803
      67 -> 78        -0.19269
      68 -> 74        -0.19875
      68 -> 75         0.13156
      68 -> 76        -0.14702
      68 -> 78         0.32286
      68 -> 79        -0.22853
      68 -> 83         0.11025
      68 -> 88        -0.15046
      68 -> 90         0.10810

 Excited State  19:      Singlet-A      8.3334 eV  148.78 nm  f=0.1163  <S**2>=0.000
      62 -> 71         0.10027
      63 -> 72         0.10333
      64 -> 72         0.39688
      64 -> 74        -0.13212
      64 -> 76        -0.11309
      64 -> 78        -0.11726
      66 -> 72        -0.17030
      68 -> 73        -0.17195
      68 -> 87         0.18289
      68 -> 89         0.29450

 Excited State  20:      Singlet-A      8.4248 eV  147.17 nm  f=0.0132  <S**2>=0.000
      62 -> 72         0.10433
      62 -> 75         0.13056
      63 -> 69        -0.12067
      63 -> 71         0.15421
      64 -> 69        -0.12634
      64 -> 70         0.18553
      64 -> 71         0.34745
      66 -> 71        -0.20677
      67 -> 74         0.13092
      67 -> 78         0.10465
      68 -> 75         0.28973

 Excited State  21:      Singlet-A      8.4717 eV  146.35 nm  f=0.0754  <S**2>=0.000
      62 -> 72        -0.20257
      64 -> 69        -0.40948
      64 -> 71        -0.11768
      64 -> 73         0.31855
      66 -> 69         0.11627
      66 -> 71         0.10249
      66 -> 73        -0.10948
      67 -> 75         0.11577
      68 -> 72        -0.14788
      68 -> 75         0.14796
      68 -> 78        -0.11910
      68 -> 79         0.10116

 Excited State  22:      Singlet-A      8.5092 eV  145.71 nm  f=0.0679  <S**2>=0.000
      62 -> 73        -0.10761
      64 -> 72         0.34981
      64 -> 74         0.12472
      64 -> 76         0.11434
      64 -> 78         0.11912
      66 -> 72        -0.14920
      66 -> 74        -0.12738
      68 -> 73        -0.16310
      68 -> 87        -0.21109
      68 -> 89        -0.31828

 Excited State  23:      Singlet-A      8.5517 eV  144.98 nm  f=0.0063  <S**2>=0.000
      63 -> 77        -0.12299
      64 -> 71        -0.10399
      67 -> 74         0.10550
      67 -> 76         0.39530
      67 -> 78         0.11367
      67 -> 88        -0.12748
      68 -> 76         0.11628
      68 -> 78         0.22398
      68 -> 79        -0.27747

 Excited State  24:      Singlet-A      8.6127 eV  143.95 nm  f=0.0019  <S**2>=0.000
      63 -> 74         0.18325
      63 -> 78        -0.12223
      64 -> 74         0.12483
      66 -> 74         0.50306
      66 -> 76        -0.16765
      66 -> 78        -0.19137
      66 -> 82         0.12729

 Excited State  25:      Singlet-A      8.7544 eV  141.62 nm  f=0.0020  <S**2>=0.000
      65 -> 74         0.52256
      65 -> 75         0.10407
      65 -> 76        -0.19739
      65 -> 78        -0.25977
      65 -> 82         0.17851
      65 -> 84        -0.10922

 Excited State  26:      Singlet-A      8.8074 eV  140.77 nm  f=0.0022  <S**2>=0.000
      63 -> 77         0.17947
      66 -> 77        -0.11460
      67 -> 74         0.22290
      67 -> 75         0.10171
      67 -> 76        -0.18609
      67 -> 78         0.23101
      68 -> 74        -0.13662
      68 -> 78         0.17615
      68 -> 80         0.30464
      68 -> 84        -0.15989
      68 -> 85        -0.17690

 Excited State  27:      Singlet-A      8.8124 eV  140.69 nm  f=0.0000  <S**2>=0.000
      63 -> 74         0.12036
      63 -> 76        -0.25373
      64 -> 75        -0.13097
      64 -> 76         0.12358
      66 -> 76         0.17213
      67 -> 70         0.20510
      67 -> 71        -0.10993
      67 -> 77         0.41406
      67 -> 86         0.11399
      68 -> 81         0.16534

 Excited State  28:      Singlet-A      8.8152 eV  140.65 nm  f=0.0005  <S**2>=0.000
      63 -> 74        -0.20433
      64 -> 75         0.20708
      66 -> 78         0.10139
      67 -> 69         0.18597
      67 -> 70         0.44372
      67 -> 87         0.10107
      67 -> 89         0.13460

 Excited State  29:      Singlet-A      8.8208 eV  140.56 nm  f=0.0013  <S**2>=0.000
      63 -> 77        -0.14265
      67 -> 74        -0.10216
      67 -> 76         0.14481
      67 -> 78        -0.18307
      68 -> 80         0.41005
      68 -> 82         0.17941
      68 -> 85        -0.29230

 Excited State  30:      Singlet-A      8.8679 eV  139.81 nm  f=0.0062  <S**2>=0.000
      62 -> 69        -0.16366
      62 -> 71         0.19254
      63 -> 74         0.10423
      63 -> 75         0.12491
      64 -> 74        -0.11920
      64 -> 75         0.34388
      65 -> 74        -0.10811
      66 -> 75        -0.14641
      67 -> 69         0.10881
      67 -> 70        -0.17263
      67 -> 71         0.18923
      67 -> 77         0.17741
      68 -> 96         0.12480

 The electronic state is 1-A.
 Alpha  occ. eigenvalues --  -20.59903 -15.59123 -11.29530 -11.29528 -11.28303
 Alpha  occ. eigenvalues --  -11.28301 -11.26993 -11.23116 -11.23086 -11.23025
 Alpha  occ. eigenvalues --  -11.22948 -11.22888 -11.22825 -11.22825 -11.22697
 Alpha  occ. eigenvalues --  -11.22697 -11.22524 -11.22524 -11.22276 -11.22276
 Alpha  occ. eigenvalues --   -1.44906  -1.29242  -1.17342  -1.16126  -1.13362
 Alpha  occ. eigenvalues --   -1.04186  -1.03335  -1.03291  -1.02308  -1.00372
 Alpha  occ. eigenvalues --   -0.96166  -0.87788  -0.87508  -0.83764  -0.82587
 Alpha  occ. eigenvalues --   -0.81000  -0.77756  -0.76474  -0.72549  -0.69391
 Alpha  occ. eigenvalues --   -0.68301  -0.66560  -0.65690  -0.64816  -0.64741
 Alpha  occ. eigenvalues --   -0.63662  -0.61118  -0.60760  -0.60350  -0.60126
 Alpha  occ. eigenvalues --   -0.59100  -0.56025  -0.54526  -0.53203  -0.52133
 Alpha  occ. eigenvalues --   -0.51863  -0.51749  -0.51035  -0.50413  -0.49714
 Alpha  occ. eigenvalues --   -0.48265  -0.45454  -0.35616  -0.34873  -0.34443
 Alpha  occ. eigenvalues --   -0.33949  -0.32321  -0.26654
 Alpha virt. eigenvalues --    0.10891   0.11870   0.12175   0.12443   0.14148
 Alpha virt. eigenvalues --    0.15988   0.16553   0.16881   0.17662   0.17807
 Alpha virt. eigenvalues --    0.18240   0.19042   0.20112   0.20238   0.21227

 Mulliken charges:
               1
     1  C   -0.183141
     2  C   -0.271293
     3  C    0.178018
     4  C    0.222521
     5  C   -0.293120
     6  C   -0.137413
     7  C    0.222522
     8  C    0.178017
     9  C   -0.271290
    10  H    0.175121
    11  C   -0.183143
    12  C   -0.137412
    13  C   -0.293121
    14  H    0.175121
    15  H    0.156998
    16  H    0.161842
    17  N   -0.040185
    18  C    0.216962
    19  C   -0.330919
    20  C   -0.291637
    21  C   -0.093800
    22  C   -0.094332
    23  H    0.160089
    24  C   -0.152379
    25  H    0.163895
    26  H    0.165393
    27  H    0.156998
    28  H    0.161842
    29  O   -0.378232
    30  H    0.163599
    31  H    0.163599
    32  H    0.164885
    33  H    0.163996
 Sum of Mulliken charges =  -0.00000

 Dipole moment (field-independent basis, Debye):
    X=              2.9302    Y=             -0.0000    Z=             -0.6311  Tot=              2.9974
 Quadrupole moment (field-independent basis, Debye-Ang):
   XX=           -100.1231   YY=           -108.5690   ZZ=           -116.4152
   XY=              0.0000   XZ=              0.0525   YZ=             -0.0001

 Normal termination of Gaussian 09 at Tue Nov 23 21:27:10 2021.
