 Gaussian 09, Revision E.01,

 ----------------------------------------------------------------------
 #p m06l/def2TZVP opt=tight freq=noraman nosymm int=ultrafine scrf=(SMD
 ,solvent=n,n-DiMethylAcetamide)
 ----------------------------------------------------------------------

 -----
 Title
 -----
 Symbolic Z-matrix:
 Charge =  0 Multiplicity = 1

 SCF Done:  E(RM06L) =  -823.906803553     A.U. after   15 cycles
 SCF Done:  E(RM06L) =  -823.908099030     A.U. after   12 cycles
 SCF Done:  E(RM06L) =  -823.908285227     A.U. after   11 cycles
 SCF Done:  E(RM06L) =  -823.908421081     A.U. after   11 cycles
 SCF Done:  E(RM06L) =  -823.908545647     A.U. after   12 cycles
 SCF Done:  E(RM06L) =  -823.908664278     A.U. after   13 cycles
 SCF Done:  E(RM06L) =  -823.908678901     A.U. after   11 cycles
 SCF Done:  E(RM06L) =  -823.908680003     A.U. after    9 cycles
 SCF Done:  E(RM06L) =  -823.908680392     A.U. after    9 cycles
 SCF Done:  E(RM06L) =  -823.908680574     A.U. after    8 cycles
 SCF Done:  E(RM06L) =  -823.908680599     A.U. after    7 cycles
 SCF Done:  E(RM06L) =  -823.908680600     A.U. after    5 cycles
 SCF Done:  E(RM06L) =  -823.908680601     A.U. after    4 cycles
 SCF Done:  E(RM06L) =  -823.908680601     A.U. after    4 cycles
 Optimization completed.
    -- Stationary point found.
 Normal termination of Gaussian 09 at Tue Nov 23 16:33:21 2021.

 -------------------------------------------------------------------
 #P Geom=AllCheck Guess=TCheck SCRF=Check GenChk RM06L/def2TZVP Freq
 -------------------------------------------------------------------

 Structure from the checkpoint file:  "cp.chk"
 -----
 Title
 -----
 Charge =  0 Multiplicity = 1

 SCF Done:  E(RM06L) =  -823.908680601     A.U. after    1 cycles

  Exact polarizability: 369.148  -0.002 413.161  -0.687   0.000 223.240
 Approx polarizability: 468.549  -0.001 496.228  -0.976  -0.002 268.662

                      1                      2                      3
                      A                      A                      A
 Frequencies --      8.0630                29.2519                41.5672
 Red. masses --      3.7738                 6.3627                 4.6105
 Frc consts  --      0.0001                 0.0032                 0.0047
 IR Inten    --      0.0000                 0.6445                 0.1254

                      4                      5                      6
                      A                      A                      A
 Frequencies --     63.6737               120.0260               195.2564
 Red. masses --      5.0222                 3.8047                 5.3681
 Frc consts  --      0.0120                 0.0323                 0.1206
 IR Inten    --      0.2629                 0.0000                 0.4108

                      7                      8                      9
                      A                      A                      A
 Frequencies --    204.1502               258.9622               271.6435
 Red. masses --      5.3782                 4.2276                 4.9159
 Frc consts  --      0.1321                 0.1670                 0.2137
 IR Inten    --      0.0083                 0.4396                 0.0000

                     10                     11                     12
                      A                      A                      A
 Frequencies --    274.9377               323.5149               410.3993
 Red. masses --      5.3780                 5.9103                 6.7243
 Frc consts  --      0.2395                 0.3645                 0.6673
 IR Inten    --      2.4527                 6.9799                 0.3579

                     13                     14                     15
                      A                      A                      A
 Frequencies --    417.7396               419.3632               450.6359
 Red. masses --      4.8254                 2.8619                 4.9172
 Frc consts  --      0.4961                 0.2965                 0.5883
 IR Inten    --      4.9957                 0.0000                 0.1939

                     16                     17                     18
                      A                      A                      A
 Frequencies --    459.4752               475.1213               512.3770
 Red. masses --      3.1656                 3.6827                 4.6178
 Frc consts  --      0.3938                 0.4898                 0.7143
 IR Inten    --      0.0001                 4.8933                 9.6409

                     19                     20                     21
                      A                      A                      A
 Frequencies --    566.6620               572.9876               596.5653
 Red. masses --      4.1471                 4.4426                 4.9459
 Frc consts  --      0.7846                 0.8594                 1.0371
 IR Inten    --      0.0005                 0.0037                19.4037

                     22                     23                     24
                      A                      A                      A
 Frequencies --    605.8743               628.6057               632.6047
 Red. masses --      8.1019                 6.0674                 6.4342
 Frc consts  --      1.7523                 1.4126                 1.5171
 IR Inten    --      9.7102                31.8130                 0.2373

                     25                     26                     27
                      A                      A                      A
 Frequencies --    670.2971               709.6019               719.0672
 Red. masses --      6.3306                 6.0258                 5.1247
 Frc consts  --      1.6758                 1.7877                 1.5612
 IR Inten    --     13.3604                 0.0461                 0.0916

                     28                     29                     30
                      A                      A                      A
 Frequencies --    719.2056               733.1903               752.1381
 Red. masses --      1.6315                 4.7879                 1.2339
 Frc consts  --      0.4972                 1.5164                 0.4113
 IR Inten    --     80.4103                 0.3891               275.1400

                     31                     32                     33
                      A                      A                      A
 Frequencies --    755.5668               784.1793               809.1527
 Red. masses --      1.2358                 2.3282                 6.4026
 Frc consts  --      0.4157                 0.8435                 2.4699
 IR Inten    --      0.0001                12.5780                 9.9739

                     34                     35                     36
                      A                      A                      A
 Frequencies --    852.6707               852.8410               862.4158
 Red. masses --      1.4099                 1.3839                 1.2477
 Frc consts  --      0.6040                 0.5931                 0.5468
 IR Inten    --      0.2269                 0.0000                 0.0000

                     37                     38                     39
                      A                      A                      A
 Frequencies --    885.3314               923.9909               929.7491
 Red. masses --      5.3218                 2.1353                 1.3550
 Frc consts  --      2.4577                 1.0741                 0.6901
 IR Inten    --      7.1647                 0.3771                 0.0000

                     40                     41                     42
                      A                      A                      A
 Frequencies --    931.0768               947.5792               966.7113
 Red. masses --      1.3667                 6.1796                 2.6043
 Frc consts  --      0.6981                 3.2692                 1.4339
 IR Inten    --     19.1209                 1.7270                 2.3636

                     43                     44                     45
                      A                      A                      A
 Frequencies --    970.8315               970.9060               998.9182
 Red. masses --      1.2380                 1.2355                 1.3766
 Frc consts  --      0.6875                 0.6862                 0.8093
 IR Inten    --      0.1405                 0.0001                 0.0000

                     46                     47                     48
                      A                      A                      A
 Frequencies --   1022.1147              1023.9659              1052.7677
 Red. masses --      1.2954                 6.3230                 2.0493
 Frc consts  --      0.7974                 3.9061                 1.3382
 IR Inten    --      0.0023                 2.5544                11.7296

                     49                     50                     51
                      A                      A                      A
 Frequencies --   1065.5429              1071.0533              1099.3726
 Red. masses --      2.1226                 1.7921                 1.4789
 Frc consts  --      1.4199                 1.2113                 1.0531
 IR Inten    --      6.1657                53.0481                16.3071

                     52                     53                     54
                      A                      A                      A
 Frequencies --   1116.6280              1137.5360              1167.4235
 Red. masses --      1.9717                 1.5315                 1.0883
 Frc consts  --      1.4484                 1.1676                 0.8739
 IR Inten    --     10.3264                25.5602                 0.3525

                     55                     56                     57
                      A                      A                      A
 Frequencies --   1169.6641              1171.2547              1184.2258
 Red. masses --      1.0973                 1.0826                 1.1512
 Frc consts  --      0.8845                 0.8750                 0.9512
 IR Inten    --      0.0251                 0.1498                 0.8151

                     58                     59                     60
                      A                      A                      A
 Frequencies --   1203.7296              1225.1717              1233.5519
 Red. masses --      3.1403                 2.3609                 3.3785
 Frc consts  --      2.6809                 2.0880                 3.0289
 IR Inten    --      0.9871               111.5156                29.1709

                     61                     62                     63
                      A                      A                      A
 Frequencies --   1290.4224              1301.6754              1328.8561
 Red. masses --      2.0943                 1.8148                 1.5714
 Frc consts  --      2.0547                 1.8117                 1.6349
 IR Inten    --    485.5903                40.8652                 2.0288

                     64                     65                     66
                      A                      A                      A
 Frequencies --   1347.8782              1349.9273              1366.1731
 Red. masses --      2.8662                 3.9635                 4.4979
 Frc consts  --      3.0680                 4.2555                 4.9462
 IR Inten    --    124.4421              1020.4766                 2.9119

                     67                     68                     69
                      A                      A                      A
 Frequencies --   1380.4763              1400.1104              1477.3977
 Red. masses --      5.6928                 8.1399                 2.5315
 Frc consts  --      6.3919                 9.4014                 3.2555
 IR Inten    --    156.7762                 9.6128                 2.1769

                     70                     71                     72
                      A                      A                      A
 Frequencies --   1482.3162              1495.8954              1519.6408
 Red. masses --      2.2726                 2.6187                 3.1123
 Frc consts  --      2.9421                 3.4526                 4.2346
 IR Inten    --      1.9754                 9.7906              1243.6082

                     73                     74                     75
                      A                      A                      A
 Frequencies --   1528.1740              1549.4661              1611.3085
 Red. masses --      2.3979                 3.2544                 5.9774
 Frc consts  --      3.2993                 4.6034                 9.1436
 IR Inten    --     60.8059                40.0526                11.6661

                     76                     77                     78
                      A                      A                      A
 Frequencies --   1633.6190              1633.8896              1644.1948
 Red. masses --      6.7879                 6.1139                 6.0209
 Frc consts  --     10.6730                 9.6164                 9.5900
 IR Inten    --     79.5401                 5.7821                55.1219

                     79                     80                     81
                      A                      A                      A
 Frequencies --   1653.1237              1676.1034              3182.4346
 Red. masses --      7.5742                 7.5852                 1.0852
 Frc consts  --     12.1955                12.5551                 6.4755
 IR Inten    --      4.4993                30.1451                 1.7321

                     82                     83                     84
                      A                      A                      A
 Frequencies --   3187.7743              3189.4753              3189.7555
 Red. masses --      1.0881                 1.0849                 1.0851
 Frc consts  --      6.5149                 6.5023                 6.5046
 IR Inten    --      0.2133                 3.2866                 0.0043

                     85                     86                     87
                      A                      A                      A
 Frequencies --   3194.3813              3198.4126              3198.5284
 Red. masses --      1.0917                 1.0892                 1.0894
 Frc consts  --      6.5635                 6.5651                 6.5665
 IR Inten    --     14.4785                24.7261                 1.6468

                     88                     89                     90
                      A                      A                      A
 Frequencies --   3201.0696              3206.0786              3206.3875
 Red. masses --      1.0959                 1.0925                 1.0926
 Frc consts  --      6.6163                 6.6165                 6.6184
 IR Inten    --     26.7601                 0.0324                33.0663

                     91                     92                     93
                      A                      A                      A
 Frequencies --   3209.0642              3214.2430              3214.4665
 Red. masses --      1.0989                 1.0981                 1.0981
 Frc consts  --      6.6678                 6.6844                 6.6849
 IR Inten    --     13.2070                22.6561                 0.8301

 - Thermochemistry -
 -------------------
 Temperature   298.150 Kelvin.  Pressure   1.00000 Atm.
 Atom     1 has atomic number  6 and mass  12.00000

 Molecular mass:   259.09971 amu.
 Principal axes and moments of inertia in atomic units:
                           1         2         3
     Eigenvalues --  4142.605644999.653658513.84269
           X            0.99999  -0.00006   0.00379
           Y            0.00006   1.00000  -0.00002
           Z           -0.00379   0.00002   0.99999
 This molecule is an asymmetric top.
 Rotational symmetry number  1.
 Warning -- assumption of classical behavior for rotation
           may cause significant error
 Rotational temperatures (Kelvin)      0.02091     0.01732     0.01017
 Rotational constants (GHZ):           0.43565     0.36097     0.21198
 Zero-point vibrational energy     684811.8 (Joules/Mol)
                                  163.67396 (Kcal/Mol)
 Warning -- explicit consideration of  22 degrees of freedom as
           vibrations may cause significant error
 Vibrational temperatures:     11.60    42.09    59.81    91.61   172.69
          (Kelvin)            280.93   293.73   372.59   390.83   395.57
                              465.47   590.47   601.03   603.37   648.36
                              661.08   683.59   737.20   815.30   824.40
                              858.32   871.72   904.42   910.18   964.41
                             1020.96  1034.58  1034.78  1054.90  1082.16
                             1087.09  1128.26  1164.19  1226.80  1227.05
                             1240.82  1273.79  1329.42  1337.70  1339.61
                             1363.35  1390.88  1396.81  1396.92  1437.22
                             1470.59  1473.26  1514.70  1533.08  1541.00
                             1581.75  1606.58  1636.66  1679.66  1682.88
                             1685.17  1703.83  1731.90  1762.75  1774.80
                             1856.63  1872.82  1911.93  1939.29  1942.24
                             1965.62  1986.20  2014.44  2125.64  2132.72
                             2152.26  2186.42  2198.70  2229.33  2318.31
                             2350.41  2350.80  2365.63  2378.47  2411.54
                             4578.81  4586.49  4588.94  4589.34  4596.00
                             4601.80  4601.96  4605.62  4612.83  4613.27
                             4617.12  4624.57  4624.89

 Zero-point correction=                           0.260831 (Hartree/Particle)
 Thermal correction to Energy=                    0.275497
 Thermal correction to Enthalpy=                  0.276441
 Thermal correction to Gibbs Free Energy=         0.216175
 Sum of electronic and zero-point Energies=           -823.647850
 Sum of electronic and thermal Energies=              -823.633183
 Sum of electronic and thermal Enthalpies=            -823.632239
 Sum of electronic and thermal Free Energies=         -823.692506

                     E (Thermal)             CV                S
                      KCal/Mol        Cal/Mol-Kelvin    Cal/Mol-Kelvin
 Total                  172.877             60.156            126.842
 Electronic               0.000              0.000              0.000
 Translational            0.889              2.981             42.556
 Rotational               0.889              2.981             33.533
 Vibrational            171.100             54.194             50.753
 Vibration     1          0.593              1.987              8.439
 Vibration     2          0.593              1.984              5.880
 Vibration     3          0.594              1.981              5.183
 Vibration     4          0.597              1.972              4.340
 Vibration     5          0.609              1.933              3.100
 Vibration     6          0.636              1.846              2.177
 Vibration     7          0.640              1.834              2.095
 Vibration     8          0.668              1.748              1.669
 Vibration     9          0.675              1.726              1.586
 Vibration    10          0.677              1.720              1.565
 Vibration    11          0.708              1.628              1.292
 Vibration    12          0.775              1.448              0.925
 Vibration    13          0.781              1.432              0.900
 Vibration    14          0.782              1.428              0.894
 Vibration    15          0.809              1.359              0.794
 Vibration    16          0.817              1.340              0.768
 Vibration    17          0.832              1.305              0.723
 Vibration    18          0.867              1.223              0.628
 Vibration    19          0.923              1.103              0.511
 Vibration    20          0.929              1.090              0.499
 Vibration    21          0.954              1.039              0.456
 Vibration    22          0.965              1.019              0.440

 Normal termination of Gaussian 09 at Tue Nov 23 18:23:05 2021.
 Gaussian 09:  ES64L-G09RevE.01 30-Nov-2015

 ----------------------------------------------------------------------
 #p m06l chkbasis geom=allcheck Guess=Read int=ultrafine scrf=(SMD,solv
 ent=n,n-DiMethylAcetamide) td=(NStates=30)
 ----------------------------------------------------------------------

 Structure from the checkpoint file:  "cp.chk"
 -----
 Title
 -----
 Charge =  0 Multiplicity = 1

                         Standard orientation:
 ---------------------------------------------------------------------
 Center     Atomic      Atomic             Coordinates (Angstroms)
 Number     Number       Type             X           Y           Z
 ---------------------------------------------------------------------
      1          6           0        0.652038    3.621863   -0.000843
      2          6           0       -0.086581    2.443945   -0.001942
      3          6           0        0.546964    1.204556   -0.001468
      4          6           0        1.947085    1.179794    0.000163
      5          6           0        2.680115    2.348001    0.001349
      6          6           0        2.034141    3.580441    0.000884
      7          6           0        1.947101   -1.179771    0.000143
      8          6           0        0.546981   -1.204552   -0.001494
      9          6           0       -0.086548   -2.443949   -0.002012
     10          1           0       -1.167819   -2.483004   -0.003295
     11          6           0        0.652086   -3.621858   -0.000935
     12          6           0        2.034188   -3.580417    0.000810
     13          6           0        2.680146   -2.347968    0.001307
     14          1           0       -1.167853    2.482987   -0.003208
     15          1           0        3.760408    2.278081    0.002685
     16          1           0        0.131532   -4.570709   -0.001398
     17          7           0       -0.154999   -0.000003   -0.002552
     18          6           0       -1.583611   -0.000011   -0.000943
     19          6           0       -2.271463   -0.000167    1.205219
     20          6           0       -2.274506    0.000139   -1.205340
     21          6           0       -3.658288   -0.000174    1.204094
     22          6           0       -3.661351    0.000137   -1.200636
     23          1           0       -1.719722    0.000259   -2.135693
     24          6           0       -4.353111   -0.000021    0.002604
     25          1           0       -4.202217    0.000256   -2.138462
     26          1           0       -5.435761   -0.000024    0.003973
     27          1           0        3.760438   -2.278035    0.002649
     28          1           0        0.131472    4.570708   -0.001274
     29          8           0        2.650106    0.000016    0.000645
     30          1           0        2.616225   -4.492281    0.001707
     31          1           0        2.616165    4.492313    0.001796
     32          1           0       -4.196751   -0.000296    2.143304
     33          1           0       -1.714298   -0.000283    2.134153
 ---------------------------------------------------------------------

 SCF Done:  E(RM06L) =  -823.908680544     A.U. after    5 cycles

 Excitation energies and oscillator strengths:

 Excited State   1:      Singlet-A      3.1325 eV  395.80 nm  f=0.0007  <S**2>=0.000
      68 -> 69         0.69337
      68 -> 71         0.11190
 This state for optimization and/or second-order correction.
 Total Energy, E(TD-HF/TD-KS) =  -823.793563918
 Copying the excited state density for this state as the 1-particle RhoCI density.

 Excited State   2:      Singlet-A      3.1977 eV  387.72 nm  f=0.0000  <S**2>=0.000
      68 -> 70         0.70710

 Excited State   3:      Singlet-A      3.4937 eV  354.88 nm  f=0.0693  <S**2>=0.000
      68 -> 69        -0.12564
      68 -> 71         0.66606
      68 -> 73         0.18475

 Excited State   4:      Singlet-A      3.8136 eV  325.11 nm  f=0.1886  <S**2>=0.000
      67 -> 69        -0.13598
      67 -> 71         0.10955
      68 -> 71        -0.17699
      68 -> 73         0.65918

 Excited State   5:      Singlet-A      3.9264 eV  315.77 nm  f=0.0015  <S**2>=0.000
      68 -> 72         0.68853

 Excited State   6:      Singlet-A      4.6929 eV  264.20 nm  f=0.1129  <S**2>=0.000
      67 -> 69         0.62926
      67 -> 71         0.26006
      67 -> 73         0.15960

 Excited State   7:      Singlet-A      4.6989 eV  263.86 nm  f=0.0000  <S**2>=0.000
      67 -> 70         0.70705

 Excited State   8:      Singlet-A      4.8599 eV  255.12 nm  f=0.0721  <S**2>=0.000
      64 -> 69        -0.16335
      64 -> 71         0.15823
      66 -> 69        -0.12586
      68 -> 74         0.64500

 Excited State   9:      Singlet-A      5.0898 eV  243.60 nm  f=0.6158  <S**2>=0.000
      64 -> 72        -0.11578
      66 -> 72        -0.11041
      67 -> 69        -0.24371
      67 -> 71         0.61721
      68 -> 73        -0.12333

 Excited State  10:      Singlet-A      5.2764 eV  234.98 nm  f=0.0041  <S**2>=0.000
      63 -> 69        -0.17695
      63 -> 71        -0.10227
      66 -> 69        -0.35704
      66 -> 73         0.12571
      67 -> 72         0.54073

 Excited State  11:      Singlet-A      5.2888 eV  234.43 nm  f=0.0000  <S**2>=0.000
      65 -> 69         0.53910
      66 -> 70         0.44593

 Excited State  12:      Singlet-A      5.3470 eV  231.88 nm  f=0.0764  <S**2>=0.000
      63 -> 72         0.12819
      64 -> 72        -0.16604
      66 -> 72         0.18946
      67 -> 73         0.63166

 Excited State  13:      Singlet-A      5.3799 eV  230.46 nm  f=0.0709  <S**2>=0.000
      63 -> 73         0.10099
      64 -> 69         0.17049
      64 -> 71         0.35406
      66 -> 69         0.46923
      66 -> 71        -0.12303
      67 -> 72         0.27438

 Excited State  14:      Singlet-A      5.4516 eV  227.43 nm  f=0.0010  <S**2>=0.000
      63 -> 70         0.18715
      64 -> 70         0.55136
      65 -> 69        -0.19731
      65 -> 71         0.17507
      66 -> 70         0.29637

 Excited State  15:      Singlet-A      5.4652 eV  226.86 nm  f=0.0028  <S**2>=0.000
      63 -> 71        -0.11114
      64 -> 69         0.57606
      64 -> 71         0.17491
      64 -> 73         0.19865
      66 -> 69        -0.15905
      67 -> 72        -0.17801

 Excited State  16:      Singlet-A      5.4668 eV  226.80 nm  f=0.0016  <S**2>=0.000
      63 -> 70        -0.25803
      64 -> 70         0.43808
      65 -> 69         0.23764
      65 -> 71        -0.29121
      66 -> 70        -0.30565

 Excited State  17:      Singlet-A      5.5129 eV  224.90 nm  f=0.0039  <S**2>=0.000
      63 -> 69         0.48276
      63 -> 71        -0.14571
      66 -> 71         0.43468
      66 -> 73         0.16568
      67 -> 72         0.13390

 Excited State  18:      Singlet-A      5.5524 eV  223.30 nm  f=0.0000  <S**2>=0.000
      63 -> 70        -0.42363
      65 -> 71         0.55253
      66 -> 70        -0.11518

 Excited State  19:      Singlet-A      5.7066 eV  217.27 nm  f=0.0158  <S**2>=0.000
      63 -> 69        -0.31497
      63 -> 71        -0.16029
      63 -> 73         0.26215
      64 -> 73         0.10112
      65 -> 70        -0.14899
      66 -> 69         0.14358
      66 -> 71         0.39145
      66 -> 73        -0.28951

 Excited State  20:      Singlet-A      5.7302 eV  216.37 nm  f=0.0288  <S**2>=0.000
      63 -> 71         0.40544
      63 -> 73         0.15535
      64 -> 69         0.10542
      64 -> 71        -0.26360
      64 -> 73         0.21230
      66 -> 71         0.11920
      66 -> 73         0.38245

 Excited State  21:      Singlet-A      5.7341 eV  216.22 nm  f=0.0022  <S**2>=0.000
      68 -> 75         0.69779
      68 -> 76        -0.10501

 Excited State  22:      Singlet-A      5.7727 eV  214.78 nm  f=0.0071  <S**2>=0.000
      63 -> 70        -0.26438
      65 -> 69        -0.12648
      65 -> 71        -0.16734
      65 -> 73         0.60847

 Excited State  23:      Singlet-A      5.8146 eV  213.23 nm  f=0.0034  <S**2>=0.000
      68 -> 75         0.10631
      68 -> 76         0.69451

 Excited State  24:      Singlet-A      5.8238 eV  212.89 nm  f=0.0000  <S**2>=0.000
      65 -> 72         0.70687

 Excited State  25:      Singlet-A      5.8524 eV  211.85 nm  f=0.0005  <S**2>=0.000
      63 -> 72        -0.37781
      66 -> 72         0.58498

 Excited State  26:      Singlet-A      5.9664 eV  207.80 nm  f=0.0031  <S**2>=0.000
      63 -> 71         0.28352
      63 -> 73        -0.14513
      64 -> 73        -0.32637
      66 -> 71         0.12506
      67 -> 74         0.49886

 Excited State  27:      Singlet-A      6.0590 eV  204.63 nm  f=0.1251  <S**2>=0.000
      63 -> 71         0.23511
      63 -> 73        -0.25761
      64 -> 69        -0.19229
      64 -> 71         0.35238
      64 -> 73         0.34323
      65 -> 70        -0.11875
      66 -> 71         0.14844
      67 -> 74        -0.12443
      68 -> 74        -0.15663

 Excited State  28:      Singlet-A      6.0996 eV  203.27 nm  f=0.3039  <S**2>=0.000
      63 -> 72         0.26015
      63 -> 74         0.10607
      64 -> 72         0.58553
      64 -> 74        -0.10434
      66 -> 72         0.12352
      66 -> 74         0.14935

 Excited State  29:      Singlet-A      6.1220 eV  202.52 nm  f=0.1024  <S**2>=0.000
      63 -> 69         0.12405
      63 -> 71         0.18543
      63 -> 73         0.24483
      64 -> 73         0.16611
      65 -> 70         0.52560
      66 -> 73        -0.26420

 Excited State  30:      Singlet-A      6.1770 eV  200.72 nm  f=0.0000  <S**2>=0.000
      68 -> 77         0.70701

 The electronic state is 1-A.
 Alpha  occ. eigenvalues --  -19.01434 -14.21498 -10.11174 -10.11173 -10.09799
 Alpha  occ. eigenvalues --  -10.09799 -10.09191 -10.05387 -10.05387 -10.05311
 Alpha  occ. eigenvalues --  -10.05301 -10.05199 -10.04628 -10.04628 -10.04622
 Alpha  occ. eigenvalues --  -10.04622 -10.04382 -10.04382 -10.04238 -10.04238
 Alpha  occ. eigenvalues --   -1.06477  -0.94425  -0.83314  -0.82606  -0.80216
 Alpha  occ. eigenvalues --   -0.73330  -0.72772  -0.72535  -0.71861  -0.70007
 Alpha  occ. eigenvalues --   -0.67103  -0.61221  -0.61043  -0.57844  -0.56590
 Alpha  occ. eigenvalues --   -0.55678  -0.53654  -0.52928  -0.49853  -0.46517
 Alpha  occ. eigenvalues --   -0.46129  -0.44088  -0.43558  -0.43196  -0.43163
 Alpha  occ. eigenvalues --   -0.41724  -0.40138  -0.39890  -0.39641  -0.39464
 Alpha  occ. eigenvalues --   -0.38802  -0.35384  -0.34906  -0.34727  -0.34498
 Alpha  occ. eigenvalues --   -0.34180  -0.32959  -0.32079  -0.32057  -0.31432
 Alpha  occ. eigenvalues --   -0.29681  -0.29468  -0.24587  -0.24035  -0.23934
 Alpha  occ. eigenvalues --   -0.23652  -0.21255  -0.15763
 Alpha virt. eigenvalues --   -0.04437  -0.03979  -0.03531  -0.02495  -0.02434
 Alpha virt. eigenvalues --    0.00965   0.05227   0.05656   0.06951   0.08464
 Alpha virt. eigenvalues --    0.08790   0.09289   0.10018   0.10308   0.10951

 Mulliken charges:
               1
     1  C   -0.164404
     2  C   -0.162720
     3  C    0.246596
     4  C    0.337571
     5  C   -0.244413
     6  C   -0.076214
     7  C    0.337570
     8  C    0.246597
     9  C   -0.162719
    10  H    0.133650
    11  C   -0.164405
    12  C   -0.076214
    13  C   -0.244413
    14  H    0.133650
    15  H    0.098536
    16  H    0.089805
    17  N   -0.169292
    18  C    0.139490
    19  C   -0.308987
    20  C   -0.307996
    21  C    0.048014
    22  C    0.047850
    23  H    0.100885
    24  C   -0.100647
    25  H    0.094867
    26  H    0.096741
    27  H    0.098536
    28  H    0.089805
    29  O   -0.536337
    30  H    0.091429
    31  H    0.091429
    32  H    0.094873
    33  H    0.100865
 Sum of Mulliken charges =  -0.00000

 Dipole moment (field-independent basis, Debye):
    X=             -3.1639    Y=             -0.0000    Z=              0.0016  Tot=              3.1639
 Quadrupole moment (field-independent basis, Debye-Ang):
   XX=           -100.4912   YY=           -111.1043   ZZ=           -113.4842
   XY=              0.0000   XZ=              0.0149   YZ=             -0.0010

 Normal termination of Gaussian 09 at Tue Nov 23 20:09:58 2021.
