 Gaussian 09, Revision E.01,

 ----------------------------------------------------------------------
 #p TPSSTPSS/def2TZVP opt=tight freq=noraman nosymm int=ultrafine scrf=
 (SMD,solvent=n,n-DiMethylAcetamide)
 ----------------------------------------------------------------------

 -----
 Title
 -----
 Symbolic Z-matrix:
 Charge =  0 Multiplicity = 1

 SCF Done:  E(RTPSS-TPSS) =  -824.169670700     A.U. after   13 cycles
 SCF Done:  E(RTPSS-TPSS) =  -824.171430153     A.U. after   10 cycles
 SCF Done:  E(RTPSS-TPSS) =  -824.171512201     A.U. after   10 cycles
 SCF Done:  E(RTPSS-TPSS) =  -824.171612876     A.U. after    9 cycles
 SCF Done:  E(RTPSS-TPSS) =  -824.171691476     A.U. after   10 cycles
 SCF Done:  E(RTPSS-TPSS) =  -824.171781083     A.U. after   10 cycles
 SCF Done:  E(RTPSS-TPSS) =  -824.171798741     A.U. after    9 cycles
 SCF Done:  E(RTPSS-TPSS) =  -824.171802233     A.U. after    9 cycles
 SCF Done:  E(RTPSS-TPSS) =  -824.171802775     A.U. after    8 cycles
 SCF Done:  E(RTPSS-TPSS) =  -824.171803150     A.U. after    8 cycles
 SCF Done:  E(RTPSS-TPSS) =  -824.171803216     A.U. after    7 cycles
 SCF Done:  E(RTPSS-TPSS) =  -824.171803220     A.U. after    6 cycles
 SCF Done:  E(RTPSS-TPSS) =  -824.171803221     A.U. after    5 cycles
 SCF Done:  E(RTPSS-TPSS) =  -824.171803221     A.U. after    4 cycles
 SCF Done:  E(RTPSS-TPSS) =  -824.171803221     A.U. after    4 cycles
 Optimization completed.
    -- Stationary point found.
 Normal termination of Gaussian 09 at Tue Nov 23 20:05:40 2021.

 ----------------------------------------------------------------------
 #P Geom=AllCheck Guess=TCheck SCRF=Check GenChk RTPSSTPSS/def2TZVP Fre
 q
 ----------------------------------------------------------------------

 Structure from the checkpoint file:  "cp.chk"
 -----
 Title
 -----
 Charge =  0 Multiplicity = 1

 SCF Done:  E(RTPSS-TPSS) =  -824.171803221     A.U. after    1 cycles

  Exact polarizability: 383.591  -0.002 428.862  -0.698   0.011 225.120
 Approx polarizability: 496.169  -0.001 530.817  -0.965   0.014 284.751

                      1                      2                      3
                      A                      A                      A
 Frequencies --     23.6110                38.3716                39.5325
 Red. masses --      6.4298                 4.6271                 3.7953
 Frc consts  --      0.0021                 0.0040                 0.0035
 IR Inten    --      0.9983                 0.3272                 0.0000

                      4                      5                      6
                      A                      A                      A
 Frequencies --     65.4695               115.2833               187.9055
 Red. masses --      5.0342                 3.8023                 5.4068
 Frc consts  --      0.0127                 0.0298                 0.1125
 IR Inten    --      0.3533                 0.0000                 0.2668

                      7                      8                      9
                      A                      A                      A
 Frequencies --    197.6721               252.1894               263.9332
 Red. masses --      5.3753                 4.2895                 5.3640
 Frc consts  --      0.1237                 0.1607                 0.2202
 IR Inten    --      0.0503                 0.6677                 2.3835

                     10                     11                     12
                      A                      A                      A
 Frequencies --    264.8931               312.5221               396.2611
 Red. masses --      4.9681                 5.9468                 6.7451
 Frc consts  --      0.2054                 0.3422                 0.6240
 IR Inten    --      0.0000                 7.6380                 0.3340

                     13                     14                     15
                      A                      A                      A
 Frequencies --    399.9411               410.4242               434.4532
 Red. masses --      5.1114                 2.9233                 4.9825
 Frc consts  --      0.4817                 0.2901                 0.5541
 IR Inten    --      5.5046                 0.0000                 0.1575

                     16                     17                     18
                      A                      A                      A
 Frequencies --    445.5657               459.0202               498.2596
 Red. masses --      3.2367                 3.6330                 4.7195
 Frc consts  --      0.3786                 0.4510                 0.6903
 IR Inten    --      0.0000                 6.6610                 9.9048

                     19                     20                     21
                      A                      A                      A
 Frequencies --    547.9132               551.3629               579.2922
 Red. masses --      4.3588                 4.6773                 5.1411
 Frc consts  --      0.7710                 0.8378                 1.0165
 IR Inten    --      0.0006                 0.0002                21.6064

                     22                     23                     24
                      A                      A                      A
 Frequencies --    587.1638               611.9244               614.3287
 Red. masses --      8.1781                 6.1312                 6.4727
 Frc consts  --      1.6612                 1.3527                 1.4392
 IR Inten    --      9.2847                34.4220                 0.2293

                     25                     26                     27
                      A                      A                      A
 Frequencies --    651.3080               680.7228               689.5799
 Red. masses --      6.4030                 6.0860                 6.1123
 Frc consts  --      1.6003                 1.6616                 1.7125
 IR Inten    --     13.4829                 0.0002                 0.0161

                     28                     29                     30
                      A                      A                      A
 Frequencies --    701.6538               704.5869               738.6304
 Red. masses --      5.3497                 1.7848                 1.2277
 Frc consts  --      1.5518                 0.5221                 0.3946
 IR Inten    --      0.7071                87.6758               291.8733

                     31                     32                     33
                      A                      A                      A
 Frequencies --    742.0741               766.4644               783.5807
 Red. masses --      1.2310                 2.0653                 6.4957
 Frc consts  --      0.3994                 0.7149                 2.3499
 IR Inten    --      0.0000                19.1552                11.0376

                     34                     35                     36
                      A                      A                      A
 Frequencies --    833.2593               834.5435               848.8961
 Red. masses --      1.3462                 1.3899                 1.2447
 Frc consts  --      0.5507                 0.5703                 0.5285
 IR Inten    --      0.0000                 0.1934                 0.0002

                     37                     38                     39
                      A                      A                      A
 Frequencies --    857.9349               903.3405               904.9883
 Red. masses --      5.6249                 1.3295                 1.3422
 Frc consts  --      2.4393                 0.6392                 0.6476
 IR Inten    --     14.0357                 0.0000                15.9706

                     40                     41                     42
                      A                      A                      A
 Frequencies --    906.3874               924.4499               933.5899
 Red. masses --      2.4768                 6.2547                 1.2134
 Frc consts  --      1.1989                 3.1494                 0.6231
 IR Inten    --      0.7692                 3.3288                 0.9519

                     43                     44                     45
                      A                      A                      A
 Frequencies --    934.0356               948.0957               971.7798
 Red. masses --      1.2153                 2.1775                 1.3634
 Frc consts  --      0.6247                 1.1532                 0.7586
 IR Inten    --      0.0005                 3.1830                 0.0003

                     46                     47                     48
                      A                      A                      A
 Frequencies --    993.8292              1003.8946              1031.3651
 Red. masses --      1.2816                 6.2804                 2.1530
 Frc consts  --      0.7458                 3.7292                 1.3493
 IR Inten    --      0.0065                 2.2689                15.8391

                     49                     50                     51
                      A                      A                      A
 Frequencies --   1043.3536              1049.9542              1079.1040
 Red. masses --      2.2629                 1.8846                 1.5391
 Frc consts  --      1.4514                 1.2241                 1.0559
 IR Inten    --      5.5564                61.2804                16.8452

                     52                     53                     54
                      A                      A                      A
 Frequencies --   1092.4974              1116.5229              1152.9279
 Red. masses --      2.3185                 1.7416                 1.0987
 Frc consts  --      1.6304                 1.2792                 0.8605
 IR Inten    --     19.9464                28.5950                 1.0975

                     55                     56                     57
                      A                      A                      A
 Frequencies --   1154.8538              1157.6492              1166.9868
 Red. masses --      1.1463                 1.0808                 1.4416
 Frc consts  --      0.9007                 0.8534                 1.1567
 IR Inten    --      0.3297                 0.1079                 0.8523

                     58                     59                     60
                      A                      A                      A
 Frequencies --   1173.7513              1187.4485              1194.4662
 Red. masses --      1.8154                 2.3887                 3.2935
 Frc consts  --      1.4736                 1.9844                 2.7686
 IR Inten    --      0.0509               198.3426                30.1049

                     61                     62                     63
                      A                      A                      A
 Frequencies --   1261.1484              1277.5976              1314.0429
 Red. masses --      2.1637                 2.3661                 2.1458
 Frc consts  --      2.0276                 2.2755                 2.1831
 IR Inten    --    613.6798                86.1661                 3.1626

                     64                     65                     66
                      A                      A                      A
 Frequencies --   1315.8206              1318.9688              1336.4534
 Red. masses --      3.3751                 2.1591                 2.6432
 Frc consts  --      3.4429                 2.2130                 2.7815
 IR Inten    --    799.9650                69.1981                 2.1060

                     67                     68                     69
                      A                      A                      A
 Frequencies --   1343.6009              1362.8934              1451.1791
 Red. masses --      6.2986                 8.0561                 2.2783
 Frc consts  --      6.6994                 8.8165                 2.8269
 IR Inten    --    196.8245                12.9988                 0.7150

                     70                     71                     72
                      A                      A                      A
 Frequencies --   1458.9978              1470.1706              1483.8776
 Red. masses --      2.1284                 2.4245                 2.7387
 Frc consts  --      2.6694                 3.0876                 3.5529
 IR Inten    --      4.9371                17.3824              1047.4889

                     73                     74                     75
                      A                      A                      A
 Frequencies --   1502.1194              1513.6836              1569.5313
 Red. masses --      2.2294                 2.8943                 5.4707
 Frc consts  --      2.9637                 3.9072                 7.9403
 IR Inten    --     55.0366                39.6002                20.2156

                     76                     77                     78
                      A                      A                      A
 Frequencies --   1592.6725              1595.9491              1600.7783
 Red. masses --      6.3266                 5.7665                 5.7277
 Frc consts  --      9.4553                 8.6536                 8.6475
 IR Inten    --     54.6957                 5.3564                45.3289

                     79                     80                     81
                      A                      A                      A
 Frequencies --   1607.0547              1631.6768              3135.1666
 Red. masses --      6.9676                 7.2781                 1.0855
 Frc consts  --     10.6021                11.4166                 6.2861
 IR Inten    --      2.5471                27.4948                 0.4385

                     82                     83                     84
                      A                      A                      A
 Frequencies --   3139.8788              3140.0718              3142.5010
 Red. masses --      1.0854                 1.0855                 1.0880
 Frc consts  --      6.3047                 6.3063                 6.3305
 IR Inten    --      3.3925                 1.3003                 5.9711

                     85                     86                     87
                      A                      A                      A
 Frequencies --   3149.0255              3149.1211              3150.6929
 Red. masses --      1.0896                 1.0897                 1.0917
 Frc consts  --      6.3659                 6.3670                 6.3848
 IR Inten    --     32.1069                 5.0675                27.1917

                     88                     89                     90
                      A                      A                      A
 Frequencies --   3157.0583              3160.4450              3160.6627
 Red. masses --      1.0949                 1.0929                 1.0931
 Frc consts  --      6.4294                 6.4317                 6.4338
 IR Inten    --     28.3411                15.4283                32.2491

                     91                     92                     93
                      A                      A                      A
 Frequencies --   3162.4501              3166.8707              3167.2846
 Red. masses --      1.0979                 1.0952                 1.0951
 Frc consts  --      6.4692                 6.4716                 6.4726
 IR Inten    --      7.7887                18.6676                 2.0677

 - Thermochemistry -
 -------------------
 Temperature   298.150 Kelvin.  Pressure   1.00000 Atm.
 Atom     1 has atomic number  6 and mass  12.00000

 Molecular mass:   259.09971 amu.
 Principal axes and moments of inertia in atomic units:
                           1         2         3
     Eigenvalues --  4197.921705072.726668634.31234
           X            0.99999  -0.00006   0.00379
           Y            0.00006   1.00000  -0.00005
           Z           -0.00379   0.00005   0.99999
 This molecule is an asymmetric top.
 Rotational symmetry number  1.
 Warning -- assumption of classical behavior for rotation
           may cause significant error
 Rotational temperatures (Kelvin)      0.02063     0.01707     0.01003
 Rotational constants (GHZ):           0.42991     0.35577     0.20902
 Zero-point vibrational energy     670777.5 (Joules/Mol)
                                  160.31968 (Kcal/Mol)
 Warning -- explicit consideration of  24 degrees of freedom as
           vibrations may cause significant error
 Vibrational temperatures:     33.97    55.21    56.88    94.20   165.87
          (Kelvin)            270.35   284.41   362.84   379.74   381.12
                              449.65   570.13   575.43   590.51   625.08
                              641.07   660.43   716.88   788.32   793.29
                              833.47   844.80   880.42   883.88   937.09
                              979.41   992.15  1009.52  1013.74  1062.72
                             1067.68  1102.77  1127.40  1198.87  1200.72
                             1221.37  1234.38  1299.70  1302.07  1304.09
                             1330.08  1343.23  1343.87  1364.10  1398.17
                             1429.90  1444.38  1483.90  1501.15  1510.65
                             1552.59  1571.86  1606.43  1658.80  1661.57
                             1665.60  1679.03  1688.76  1708.47  1718.57
                             1814.51  1838.18  1890.61  1893.17  1897.70
                             1922.86  1933.14  1960.90  2087.92  2099.17
                             2115.24  2134.97  2161.21  2177.85  2258.20
                             2291.50  2296.21  2303.16  2312.19  2347.62
                             4510.80  4517.58  4517.86  4521.35  4530.74
                             4530.88  4533.14  4542.30  4547.17  4547.48
                             4550.05  4556.41  4557.01

 Zero-point correction=                           0.255486 (Hartree/Particle)
 Thermal correction to Energy=                    0.270503
 Thermal correction to Enthalpy=                  0.271448
 Thermal correction to Gibbs Free Energy=         0.211730
 Sum of electronic and zero-point Energies=           -823.916318
 Sum of electronic and thermal Energies=              -823.901300
 Sum of electronic and thermal Enthalpies=            -823.900356
 Sum of electronic and thermal Free Energies=         -823.960073

                     E (Thermal)             CV                S
                      KCal/Mol        Cal/Mol-Kelvin    Cal/Mol-Kelvin
 Total                  169.743             61.915            125.685
 Electronic               0.000              0.000              0.000
 Translational            0.889              2.981             42.556
 Rotational               0.889              2.981             33.574
 Vibrational            167.966             55.953             49.555
 Vibration     1          0.593              1.985              6.305
 Vibration     2          0.594              1.982              5.341
 Vibration     3          0.594              1.981              5.282
 Vibration     4          0.597              1.971              4.285
 Vibration     5          0.608              1.937              3.178
 Vibration     6          0.633              1.856              2.248
 Vibration     7          0.637              1.843              2.155
 Vibration     8          0.664              1.759              1.715
 Vibration     9          0.670              1.739              1.636
 Vibration    10          0.671              1.737              1.629
 Vibration    11          0.701              1.650              1.349
 Vibration    12          0.763              1.478              0.976
 Vibration    13          0.766              1.470              0.963
 Vibration    14          0.775              1.448              0.925
 Vibration    15          0.795              1.395              0.844
 Vibration    16          0.805              1.371              0.809
 Vibration    17          0.817              1.341              0.769
 Vibration    18          0.854              1.254              0.662
 Vibration    19          0.903              1.144              0.549
 Vibration    20          0.907              1.137              0.541
 Vibration    21          0.936              1.076              0.487
 Vibration    22          0.944              1.059              0.472
 Vibration    23          0.971              1.007              0.430
 Vibration    24          0.974              1.002              0.426

 Optimization completed.
    -- Stationary point found.
 Normal termination of Gaussian 09 at Tue Nov 23 21:49:29 2021.
 Gaussian 09:  ES64L-G09RevE.01 30-Nov-2015

 ----------------------------------------------------------------------
 #p TPSSTPSS chkbasis geom=allcheck Guess=Read int=ultrafine scrf=(SMD,
 solvent=n,n-DiMethylAcetamide) td=(NStates=30)
 ----------------------------------------------------------------------

 Structure from the checkpoint file:  "cp.chk"
 -----
 Title
 -----
 Charge =  0 Multiplicity = 1

                         Standard orientation:
 ---------------------------------------------------------------------
 Center     Atomic      Atomic             Coordinates (Angstroms)
 Number     Number       Type             X           Y           Z
 ---------------------------------------------------------------------
      1          6           0        0.657762    3.645371   -0.001571
      2          6           0       -0.085651    2.460077   -0.001723
      3          6           0        0.551334    1.212343   -0.000627
      4          6           0        1.959240    1.190183    0.000617
      5          6           0        2.698834    2.364144    0.000808
      6          6           0        2.049118    3.604655   -0.000199
      7          6           0        1.959252   -1.190166    0.000619
      8          6           0        0.551346   -1.212340   -0.000624
      9          6           0       -0.085626   -2.460080   -0.001714
     10          1           0       -1.170101   -2.501287   -0.002683
     11          6           0        0.657799   -3.645366   -0.001558
     12          6           0        2.049155   -3.604637   -0.000189
     13          6           0        2.698858   -2.364119    0.000811
     14          1           0       -1.170127    2.501273   -0.002695
     15          1           0        3.783352    2.295595    0.001873
     16          1           0        0.134132   -4.597363   -0.002410
     17          7           0       -0.157077   -0.000002   -0.000655
     18          6           0       -1.597337   -0.000009   -0.000062
     19          6           0       -2.289922    0.000009    1.213467
     20          6           0       -2.291162   -0.000031   -1.212880
     21          6           0       -3.686014    0.000007    1.210963
     22          6           0       -3.687260   -0.000035   -1.208938
     23          1           0       -1.737584   -0.000045   -2.147868
     24          6           0       -4.384754   -0.000016    0.001370
     25          1           0       -4.228817   -0.000052   -2.151138
     26          1           0       -5.471595   -0.000018    0.001929
     27          1           0        3.783376   -2.295560    0.001874
     28          1           0        0.134086    4.597362   -0.002428
     29          8           0        2.673397    0.000012    0.001894
     30          1           0        2.633916   -4.519795   -0.000014
     31          1           0        2.633870    4.519819   -0.000026
     32          1           0       -4.226601    0.000021    2.153721
     33          1           0       -1.735373    0.000026    2.147879
 ---------------------------------------------------------------------

 SCF Done:  E(RTPSS-TPSS) =  -824.171803177     A.U. after    3 cycles

 Excitation energies and oscillator strengths:

 Excited State   1:      Singlet-A      2.9700 eV  417.45 nm  f=0.0003  <S**2>=0.000
      68 -> 69         0.68413
      68 -> 71         0.15547
 This state for optimization and/or second-order correction.
 Total Energy, E(TD-HF/TD-KS) =  -824.062656302
 Copying the excited state density for this state as the 1-particle RhoCI density.

 Excited State   2:      Singlet-A      2.9927 eV  414.29 nm  f=0.0000  <S**2>=0.000
      68 -> 70         0.70709

 Excited State   3:      Singlet-A      3.3262 eV  372.75 nm  f=0.0682  <S**2>=0.000
      68 -> 69        -0.16896
      68 -> 71         0.65795
      68 -> 73         0.17894

 Excited State   4:      Singlet-A      3.6600 eV  338.76 nm  f=0.1642  <S**2>=0.000
      67 -> 69        -0.14970
      68 -> 71        -0.17353
      68 -> 73         0.65856

 Excited State   5:      Singlet-A      3.7248 eV  332.87 nm  f=0.0011  <S**2>=0.000
      68 -> 72         0.68866

 Excited State   6:      Singlet-A      4.4307 eV  279.83 nm  f=0.0000  <S**2>=0.000
      67 -> 70         0.70709

 Excited State   7:      Singlet-A      4.4741 eV  277.11 nm  f=0.1126  <S**2>=0.000
      67 -> 69         0.60416
      67 -> 71         0.30842
      67 -> 73         0.16610

 Excited State   8:      Singlet-A      4.6410 eV  267.15 nm  f=0.0670  <S**2>=0.000
      64 -> 69        -0.18568
      64 -> 71         0.15437
      66 -> 69        -0.12834
      68 -> 74         0.63983

 Excited State   9:      Singlet-A      4.8593 eV  255.15 nm  f=0.6012  <S**2>=0.000
      64 -> 72        -0.11393
      66 -> 72        -0.10431
      67 -> 69        -0.29149
      67 -> 71         0.59624
      68 -> 73        -0.12424

 Excited State  10:      Singlet-A      5.0204 eV  246.96 nm  f=0.0019  <S**2>=0.000
      63 -> 69        -0.14491
      63 -> 71        -0.11658
      66 -> 69        -0.30293
      66 -> 71        -0.10528
      66 -> 73         0.13610
      67 -> 72         0.56712

 Excited State  11:      Singlet-A      5.0919 eV  243.49 nm  f=0.0000  <S**2>=0.000
      65 -> 69         0.50490
      66 -> 70         0.49213

 Excited State  12:      Singlet-A      5.1170 eV  242.30 nm  f=0.0636  <S**2>=0.000
      63 -> 72         0.13429
      64 -> 72        -0.16956
      66 -> 72         0.22606
      67 -> 73         0.61893

 Excited State  13:      Singlet-A      5.1381 eV  241.30 nm  f=0.0691  <S**2>=0.000
      63 -> 71         0.12769
      63 -> 73         0.10507
      64 -> 71         0.29334
      66 -> 69         0.52746
      66 -> 71        -0.19883
      67 -> 72         0.21927

 Excited State  14:      Singlet-A      5.1913 eV  238.83 nm  f=0.0001  <S**2>=0.000
      64 -> 70         0.69686

 Excited State  15:      Singlet-A      5.2046 eV  238.22 nm  f=0.0026  <S**2>=0.000
      63 -> 70        -0.34575
      64 -> 70         0.11628
      65 -> 69         0.37259
      65 -> 71        -0.28546
      66 -> 70        -0.36985

 Excited State  16:      Singlet-A      5.2381 eV  236.70 nm  f=0.0015  <S**2>=0.000
      63 -> 69         0.20065
      63 -> 71        -0.10948
      64 -> 69         0.51474
      64 -> 71         0.29802
      64 -> 73         0.16519
      66 -> 71         0.19085

 Excited State  17:      Singlet-A      5.2710 eV  235.22 nm  f=0.0129  <S**2>=0.000
      63 -> 69         0.46059
      64 -> 69        -0.23100
      64 -> 73        -0.14235
      66 -> 71         0.36478
      66 -> 73         0.14536
      67 -> 72         0.19211

 Excited State  18:      Singlet-A      5.3360 eV  232.36 nm  f=0.0005  <S**2>=0.000
      63 -> 70        -0.37942
      65 -> 71         0.51111
      68 -> 75        -0.29812

 Excited State  19:      Singlet-A      5.3472 eV  231.87 nm  f=0.0014  <S**2>=0.000
      63 -> 70        -0.14582
      65 -> 71         0.26073
      68 -> 75         0.63780

 Excited State  20:      Singlet-A      5.4360 eV  228.08 nm  f=0.0036  <S**2>=0.000
      68 -> 76         0.70441

 Excited State  21:      Singlet-A      5.4817 eV  226.18 nm  f=0.0220  <S**2>=0.000
      63 -> 69        -0.29859
      63 -> 71        -0.18186
      63 -> 73         0.27708
      65 -> 70        -0.10090
      66 -> 69         0.12725
      66 -> 71         0.36948
      66 -> 73        -0.34428

 Excited State  22:      Singlet-A      5.5102 eV  225.01 nm  f=0.0353  <S**2>=0.000
      63 -> 69        -0.11602
      63 -> 71         0.41916
      63 -> 73         0.16567
      64 -> 69         0.12198
      64 -> 71        -0.25169
      64 -> 73         0.17310
      66 -> 71         0.18157
      66 -> 73         0.33690
      67 -> 74         0.13205

 Excited State  23:      Singlet-A      5.5689 eV  222.64 nm  f=0.0000  <S**2>=0.000
      65 -> 72         0.70125

 Excited State  24:      Singlet-A      5.5696 eV  222.61 nm  f=0.0000  <S**2>=0.000
      63 -> 72        -0.38464
      66 -> 72         0.56940

 Excited State  25:      Singlet-A      5.5747 eV  222.40 nm  f=0.0095  <S**2>=0.000
      63 -> 70        -0.28564
      65 -> 69        -0.10114
      65 -> 71        -0.15145
      65 -> 73         0.60492
      66 -> 70         0.13496

 Excited State  26:      Singlet-A      5.7377 eV  216.09 nm  f=0.0017  <S**2>=0.000
      63 -> 71         0.18871
      63 -> 73        -0.15242
      64 -> 73        -0.40621
      66 -> 73        -0.10046
      67 -> 74         0.49777

 Excited State  27:      Singlet-A      5.7953 eV  213.94 nm  f=0.0000  <S**2>=0.000
      68 -> 77         0.70699

 Excited State  28:      Singlet-A      5.8583 eV  211.64 nm  f=0.2981  <S**2>=0.000
      63 -> 72         0.27222
      63 -> 74         0.10162
      64 -> 72         0.58188
      64 -> 74        -0.10295
      66 -> 72         0.10929
      66 -> 74         0.15571

 Excited State  29:      Singlet-A      5.8888 eV  210.54 nm  f=0.1531  <S**2>=0.000
      63 -> 71         0.26754
      63 -> 73        -0.22822
      64 -> 69        -0.23822
      64 -> 71         0.35485
      64 -> 73         0.28559
      65 -> 70        -0.11710
      66 -> 71         0.15718
      68 -> 74        -0.18104

 Excited State  30:      Singlet-A      5.9566 eV  208.15 nm  f=0.0011  <S**2>=0.000
      68 -> 78         0.70587

 The electronic state is 1-A.
 Alpha  occ. eigenvalues --  -18.93148 -14.14358 -10.05067 -10.05066 -10.03780
 Alpha  occ. eigenvalues --  -10.03780 -10.03142  -9.99454  -9.99454  -9.99305
 Alpha  occ. eigenvalues --   -9.99294  -9.99230  -9.98788  -9.98788  -9.98755
 Alpha  occ. eigenvalues --   -9.98755  -9.98458  -9.98458  -9.98331  -9.98331
 Alpha  occ. eigenvalues --   -1.01734  -0.90956  -0.80662  -0.79924  -0.77643
 Alpha  occ. eigenvalues --   -0.71051  -0.70490  -0.70255  -0.69604  -0.67804
 Alpha  occ. eigenvalues --   -0.64960  -0.59532  -0.59474  -0.56371  -0.55154
 Alpha  occ. eigenvalues --   -0.54281  -0.52535  -0.51633  -0.49062  -0.45780
 Alpha  occ. eigenvalues --   -0.45267  -0.42860  -0.42850  -0.42424  -0.42377
 Alpha  occ. eigenvalues --   -0.40533  -0.39615  -0.39194  -0.38974  -0.38921
 Alpha  occ. eigenvalues --   -0.38297  -0.34682  -0.34240  -0.33859  -0.33790
 Alpha  occ. eigenvalues --   -0.33715  -0.32517  -0.31729  -0.31660  -0.31025
 Alpha  occ. eigenvalues --   -0.29363  -0.28906  -0.24229  -0.23685  -0.23647
 Alpha  occ. eigenvalues --   -0.23248  -0.20898  -0.15626
 Alpha virt. eigenvalues --   -0.04984  -0.04613  -0.04099  -0.03173  -0.02912
 Alpha virt. eigenvalues --    0.00214   0.03836   0.04368   0.05663   0.06297
 Alpha virt. eigenvalues --    0.07078   0.07858   0.08498   0.08702   0.09501

 Mulliken charges:
               1
     1  C   -0.184203
     2  C   -0.206448
     3  C    0.068727
     4  C    0.208065
     5  C   -0.281580
     6  C   -0.125973
     7  C    0.208065
     8  C    0.068727
     9  C   -0.206448
    10  H    0.157184
    11  C   -0.184203
    12  C   -0.125973
    13  C   -0.281580
    14  H    0.157184
    15  H    0.125665
    16  H    0.137386
    17  N    0.106967
    18  C    0.010571
    19  C   -0.175716
    20  C   -0.175525
    21  C   -0.107554
    22  C   -0.107547
    23  H    0.134158
    24  C   -0.112201
    25  H    0.142062
    26  H    0.143984
    27  H    0.125665
    28  H    0.137386
    29  O   -0.211728
    30  H    0.139319
    31  H    0.139319
    32  H    0.142058
    33  H    0.134188
 Sum of Mulliken charges =  -0.00000

 Dipole moment (field-independent basis, Debye):
    X=             -3.4659    Y=             -0.0000    Z=             -0.0006  Tot=              3.4659
 Quadrupole moment (field-independent basis, Debye-Ang):
   XX=            -99.2915   YY=           -109.8862   ZZ=           -114.3465
   XY=              0.0000   XZ=              0.0092   YZ=              0.0001

 Normal termination of Gaussian 09 at Tue Nov 23 23:31:39 2021.
