                         Program Version 5.0.2 -  RELEASE  -
|  1> %maxcore 20000
|  2> %pal
|  3>  nprocs= 6
|  4> end
|  5> ! RI-SCS-PBE-QIDH   def2-TZVP def2/J def2-TZVP/C RIJCOSX CPCM TightSCF
|  6> %TDDFT
|  7>    NROOTS   30
|  8>    dcorr 4
|  9>    doscs true
| 10>    TDA      FALSE
| 11> END
| 12>
| 13> %CPCM
| 14>    SMD          TRUE
| 15>    SMDsolvent   "N,N-DIMETHYLACETAMIDE"
| 16> END
| 17>
| 18>
| 19> * xyz 0 1
| 20> C                   0.65203800    3.62186300   -0.00084300
| 21> C                  -0.08658100    2.44394500   -0.00194200
| 22> C                   0.54696400    1.20455600   -0.00146800
| 23> C                   1.94708500    1.17979400    0.00016300
| 24> C                   2.68011500    2.34800100    0.00134900
| 25> C                   2.03414100    3.58044100    0.00088400
| 26> C                   1.94710100   -1.17977100    0.00014300
| 27> C                   0.54698100   -1.20455200   -0.00149400
| 28> C                  -0.08654800   -2.44394900   -0.00201200
| 29> H                  -1.16781900   -2.48300400   -0.00329500
| 30> C                   0.65208600   -3.62185800   -0.00093500
| 31> C                   2.03418800   -3.58041700    0.00081000
| 32> C                   2.68014600   -2.34796800    0.00130700
| 33> H                  -1.16785300    2.48298700   -0.00320800
| 34> H                   3.76040800    2.27808100    0.00268500
| 35> H                   0.13153200   -4.57070900   -0.00139800
| 36> N                  -0.15499900   -0.00000300   -0.00255200
| 37> C                  -1.58361100   -0.00001100   -0.00094300
| 38> C                  -2.27146300   -0.00016700    1.20521900
| 39> C                  -2.27450600    0.00013900   -1.20534000
| 40> C                  -3.65828800   -0.00017400    1.20409400
| 41> C                  -3.66135100    0.00013700   -1.20063600
| 42> H                  -1.71972200    0.00025900   -2.13569300
| 43> C                  -4.35311100   -0.00002100    0.00260400
| 44> H                  -4.20221700    0.00025600   -2.13846200
| 45> H                  -5.43576100   -0.00002400    0.00397300
| 46> H                   3.76043800   -2.27803500    0.00264900
| 47> H                   0.13147200    4.57070800   -0.00127400
| 48> O                   2.65010600    0.00001600    0.00064500
| 49> H                   2.61622500   -4.49228100    0.00170700
| 50> H                   2.61616500    4.49231300    0.00179600
| 51> H                  -4.19675100   -0.00029600    2.14330400
| 52> H                  -1.71429800   -0.00028300    2.13415300
| 53> *
| 54>
| 55>
| 56>                          ****END OF INPUT****

CARTESIAN COORDINATES (ANGSTROEM)
---------------------------------
  C      0.652038    3.621863   -0.000843
  C     -0.086581    2.443945   -0.001942
  C      0.546964    1.204556   -0.001468
  C      1.947085    1.179794    0.000163
  C      2.680115    2.348001    0.001349
  C      2.034141    3.580441    0.000884
  C      1.947101   -1.179771    0.000143
  C      0.546981   -1.204552   -0.001494
  C     -0.086548   -2.443949   -0.002012
  H     -1.167819   -2.483004   -0.003295
  C      0.652086   -3.621858   -0.000935
  C      2.034188   -3.580417    0.000810
  C      2.680146   -2.347968    0.001307
  H     -1.167853    2.482987   -0.003208
  H      3.760408    2.278081    0.002685
  H      0.131532   -4.570709   -0.001398
  N     -0.154999   -0.000003   -0.002552
  C     -1.583611   -0.000011   -0.000943
  C     -2.271463   -0.000167    1.205219
  C     -2.274506    0.000139   -1.205340
  C     -3.658288   -0.000174    1.204094
  C     -3.661351    0.000137   -1.200636
  H     -1.719722    0.000259   -2.135693
  C     -4.353111   -0.000021    0.002604
  H     -4.202217    0.000256   -2.138462
  H     -5.435761   -0.000024    0.003973
  H      3.760438   -2.278035    0.002649
  H      0.131472    4.570708   -0.001274
  O      2.650106    0.000016    0.000645
  H      2.616225   -4.492281    0.001707
  H      2.616165    4.492313    0.001796
  H     -4.196751   -0.000296    2.143304
  H     -1.714298   -0.000283    2.134153

 Total Charge           Charge          ....    0
 Multiplicity           Mult            ....    1
 Number of Electrons    NEL             ....  136
 Basis Dimension        Dim             ....  698

ORBITAL ENERGIES
----------------

  NO   OCC          E(Eh)            E(eV)
   0   2.0000     -20.053678      -545.6883
   1   2.0000     -15.119689      -411.4277
   2   2.0000     -10.889810      -296.3268
   3   2.0000     -10.889792      -296.3263
   4   2.0000     -10.877140      -295.9820
   5   2.0000     -10.877124      -295.9816
   6   2.0000     -10.864968      -295.6508
   7   2.0000     -10.825680      -294.5817
   8   2.0000     -10.825655      -294.5810
   9   2.0000     -10.824808      -294.5580
  10   2.0000     -10.824200      -294.5415
  11   2.0000     -10.823507      -294.5226
  12   2.0000     -10.822048      -294.4829
  13   2.0000     -10.822047      -294.4829
  14   2.0000     -10.821144      -294.4583
  15   2.0000     -10.821143      -294.4583
  16   2.0000     -10.818901      -294.3973
  17   2.0000     -10.818901      -294.3972
  18   2.0000     -10.816598      -294.3346
  19   2.0000     -10.816598      -294.3346
  20   2.0000      -1.322171       -35.9781
  21   2.0000      -1.188685       -32.3458
  22   2.0000      -1.070278       -29.1237
  23   2.0000      -1.059612       -28.8335
  24   2.0000      -1.033157       -28.1136
  25   2.0000      -0.950298       -25.8589
  26   2.0000      -0.941893       -25.6302
  27   2.0000      -0.941782       -25.6272
  28   2.0000      -0.931726       -25.3536
  29   2.0000      -0.912407       -24.8278
  30   2.0000      -0.874717       -23.8023
  31   2.0000      -0.802038       -21.8246
  32   2.0000      -0.801901       -21.8208
  33   2.0000      -0.763142       -20.7662
  34   2.0000      -0.750230       -20.4148
  35   2.0000      -0.737681       -20.0733
  36   2.0000      -0.706350       -19.2208
  37   2.0000      -0.706148       -19.2153
  38   2.0000      -0.664884       -18.0924
  39   2.0000      -0.630858       -17.1665
  40   2.0000      -0.622327       -16.9344
  41   2.0000      -0.602378       -16.3916
  42   2.0000      -0.596689       -16.2367
  43   2.0000      -0.590392       -16.0654
  44   2.0000      -0.589385       -16.0380
  45   2.0000      -0.577427       -15.7126
  46   2.0000      -0.553133       -15.0515
  47   2.0000      -0.550642       -14.9837
  48   2.0000      -0.547111       -14.8877
  49   2.0000      -0.544806       -14.8249
  50   2.0000      -0.536163       -14.5897
  51   2.0000      -0.506357       -13.7787
  52   2.0000      -0.492446       -13.4001
  53   2.0000      -0.484699       -13.1893
  54   2.0000      -0.482058       -13.1175
  55   2.0000      -0.474752       -12.9187
  56   2.0000      -0.468247       -12.7417
  57   2.0000      -0.459329       -12.4990
  58   2.0000      -0.457316       -12.4442
  59   2.0000      -0.448730       -12.2106
  60   2.0000      -0.434913       -11.8346
  61   2.0000      -0.417505       -11.3609
  62   2.0000      -0.337687        -9.1889
  63   2.0000      -0.331861        -9.0304
  64   2.0000      -0.326417        -8.8822
  65   2.0000      -0.322543        -8.7768
  66   2.0000      -0.302429        -8.2295
  67   2.0000      -0.242395        -6.5959
  68   0.0000       0.042696         1.1618
  69   0.0000       0.052474         1.4279
  70   0.0000       0.053481         1.4553
  71   0.0000       0.061266         1.6671
  72   0.0000       0.072568         1.9747

MULLIKEN ATOMIC CHARGES
-----------------------
   0 C :   -0.205309
   1 C :   -0.267318
   2 C :    0.130934
   3 C :    0.217821
   4 C :   -0.316755
   5 C :   -0.150032
   6 C :    0.217535
   7 C :    0.131751
   8 C :   -0.268439
   9 H :    0.187112
  10 C :   -0.204793
  11 C :   -0.151195
  12 C :   -0.315203
  13 H :    0.187279
  14 H :    0.164652
  15 H :    0.170092
  16 N :    0.065495
  17 C :    0.088739
  18 C :   -0.273706
  19 C :   -0.272609
  20 C :   -0.114717
  21 C :   -0.115304
  22 H :    0.171667
  23 C :   -0.151041
  24 H :    0.172845
  25 H :    0.173179
  26 H :    0.164773
  27 H :    0.170148
  28 O :   -0.295408
  29 H :    0.171502
  30 H :    0.171489
  31 H :    0.173095
  32 H :    0.171723
Sum of atomic charges:    0.0000000

LOEWDIN ATOMIC CHARGES
----------------------
   0 C :   -0.160357
   1 C :   -0.124598
   2 C :   -0.142786
   3 C :   -0.196086
   4 C :   -0.121070
   5 C :   -0.166384
   6 C :   -0.196084
   7 C :   -0.142786
   8 C :   -0.124599
   9 H :    0.163472
  10 C :   -0.160357
  11 C :   -0.166387
  12 C :   -0.121067
  13 H :    0.163473
  14 H :    0.160464
  15 H :    0.154910
  16 N :    0.270867
  17 C :   -0.177438
  18 C :   -0.100564
  19 C :   -0.100584
  20 C :   -0.139856
  21 C :   -0.139858
  22 H :    0.162928
  23 C :   -0.140016
  24 H :    0.156133
  25 H :    0.155458
  26 H :    0.160464
  27 H :    0.154911
  28 O :    0.291743
  29 H :    0.153487
  30 H :    0.153486
  31 H :    0.156134
  32 H :    0.162947

  Mayer bond orders larger than 0.100000
B(  0-C ,  1-C ) :   1.3950 B(  0-C ,  5-C ) :   1.4270 B(  0-C , 27-H ) :   0.9803
B(  1-C ,  2-C ) :   1.3864 B(  1-C , 13-H ) :   0.9607 B(  2-C ,  3-C ) :   1.3555
B(  2-C , 16-N ) :   1.0858 B(  3-C ,  4-C ) :   1.4656 B(  3-C , 28-O ) :   1.0086
B(  4-C ,  5-C ) :   1.3591 B(  4-C , 14-H ) :   0.9934 B(  5-C , 30-H ) :   0.9825
B(  6-C ,  7-C ) :   1.3555 B(  6-C , 12-C ) :   1.4655 B(  6-C , 28-O ) :   1.0087
B(  7-C ,  8-C ) :   1.3858 B(  7-C , 16-N ) :   1.0857 B(  8-C ,  9-H ) :   0.9611
B(  8-C , 10-C ) :   1.3951 B( 10-C , 11-C ) :   1.4271 B( 10-C , 15-H ) :   0.9803
B( 11-C , 12-C ) :   1.3589 B( 11-C , 29-H ) :   0.9827 B( 12-C , 26-H ) :   0.9931
B( 16-N , 17-C ) :   0.7260 B( 17-C , 18-C ) :   1.4900 B( 17-C , 19-C ) :   1.4897
B( 18-C , 20-C ) :   1.4223 B( 18-C , 32-H ) :   0.9808 B( 19-C , 21-C ) :   1.4218
B( 19-C , 22-H ) :   0.9808 B( 20-C , 23-C ) :   1.3939 B( 20-C , 31-H ) :   0.9747
B( 21-C , 23-C ) :   1.3936 B( 21-C , 24-H ) :   0.9753 B( 23-C , 25-H ) :   0.9747

MP2 TOTAL ENERGY:     -822.919239428 Eh

-----------------------------------------------------------------------------
         ABSORPTION SPECTRUM VIA TRANSITION ELECTRIC DIPOLE MOMENTS
-----------------------------------------------------------------------------
State   Energy    Wavelength  fosc         T2        TX        TY        TZ
        (cm-1)      (nm)                 (au**2)    (au)      (au)      (au)
-----------------------------------------------------------------------------
   1   30723.7    325.5   0.049057074   0.52566  -0.00000   0.72502  -0.00000
   2   31993.3    312.6   0.234920828   2.41734  -0.00000   1.55478   0.00006
   3   33406.7    299.3   0.000867804   0.00855   0.09248   0.00001  -0.00024
   4   34755.0    287.7   0.000000047   0.00000  -0.00028  -0.00060   0.00000
   5   38083.7    262.6   0.007023617   0.06072  -0.00003   0.24640   0.00026
   6   40485.2    247.0   0.001610189   0.01309   0.00055   0.00076  -0.11442
   7   46968.8    212.9   0.045425181   0.31839   0.56426  -0.00000  -0.00025
   8   49563.0    201.8   0.001439678   0.00956  -0.09779   0.00003  -0.00002
   9   44028.1    227.1   1.239831245   9.27062  -0.00002   3.04477   0.00002
  10   48179.9    207.6   0.021627616   0.14778   0.00187  -0.00015  -0.38442
  11   49128.4    203.5   0.010524766   0.07053   0.00003  -0.26557   0.00019
  12   49576.6    201.7   1.435652847   9.53342  -3.08762  -0.00002  -0.00221
  13   48523.3    206.1   0.309942905   2.10284  -1.45012  -0.00001  -0.00036
  14   53737.6    186.1   0.632024123   3.87196   0.00125  -0.00024   1.96773
  15   53331.3    187.5   0.314958596   1.94423   1.39434   0.00000   0.00574
  16   52640.8    190.0   0.030908822   0.19330   0.43903  -0.00002  -0.02359
  17   53285.1    187.7   0.117340244   0.72496   0.85145   0.00001   0.00087
  18   51176.2    195.4   0.000000064   0.00000   0.00064   0.00009  -0.00002
  19   56536.1    176.9   0.000059666   0.00035   0.00003  -0.01864   0.00001
  20   54322.6    184.1   0.225597369   1.36719   0.00001  -1.16927   0.00001
  21   53894.7    185.5   0.066624240   0.40697   0.00006  -0.63794  -0.00003
  22   56903.6    175.7   0.044769786   0.25901  -0.50893  -0.00006   0.00049
  23   58206.9    171.8   0.002084669   0.01179   0.00174   0.00022  -0.10857
  24   56339.8    177.5   0.002189176   0.01279  -0.00049   0.00021  -0.11310
  25   58978.3    169.6   0.002339248   0.01306  -0.00142  -0.00004  -0.11426
  26   56716.1    176.3   0.069617882   0.40410  -0.63569  -0.00000   0.00183
  27   58901.4    169.8   0.000001761   0.00001  -0.00020   0.00313   0.00002
  28   58169.4    171.9   0.013138871   0.07436   0.00051   0.00009   0.27269
  29   57039.1    175.3   0.000768340   0.00443   0.00001   0.06659  -0.00026
  30   58324.5    171.5   0.003393081   0.01915  -0.13839  -0.00000  -0.00115

FINAL SINGLE POINT ENERGY      -821.582571238760

DIPOLE MOMENT
-------------
                                X             Y             Z
Electronic contribution:      5.18370       0.00003      -0.00589
Nuclear contribution   :     -6.44909      -0.00003       0.00683
                        -----------------------------------------
Total Dipole Moment    :     -1.26539       0.00000       0.00094
                        -----------------------------------------
Magnitude (a.u.)       :      1.26539
Magnitude (Debye)      :      3.21637

Rotational constants in cm-1:     0.014520     0.012031     0.007065
Rotational constants in MHz :   435.289597   360.687687   211.804504

                             ****ORCA TERMINATED NORMALLY****
TOTAL RUN TIME: 0 days 1 hours 17 minutes 38 seconds 334 msec
