                         Program Version 5.0.2 -  RELEASE  -
|  1> %maxcore 20000
|  2> %pal
|  3>  nprocs= 4
|  4> end
|  5> ! RI-B2GP-PLYP   def2-TZVP def2/J def2-TZVP/C RIJCOSX CPCM TightSCF
|  6> %TDDFT
|  7>    NROOTS   30
|  8>    dcorr 4
|  9>    TDA      FALSE
| 10> END
| 11>
| 12> %CPCM
| 13>    SMD          TRUE
| 14>    SMDsolvent   "N,N-DIMETHYLFORMAMIDE"
| 15> END
| 16>
| 17>
| 18> * xyz 0 1
| 19> C                  -0.68772600   -3.64018700   -0.29792100
| 20> C                  -0.05985600   -2.42065700   -0.46439600
| 21> C                  -0.76280300   -1.21840200   -0.29972400
| 22> C                  -2.12197800   -1.25661500    0.04491300
| 23> C                  -2.72334300   -2.50211200    0.20230500
| 24> C                  -2.03232400   -3.69111800    0.03669800
| 25> C                  -2.95150100    0.00002700    0.25573900
| 26> C                  -2.12194400    1.25664400    0.04490400
| 27> C                  -0.76277500    1.21839100   -0.29974600
| 28> C                  -0.05979900    2.42062600   -0.46445200
| 29> H                   0.98853900    2.39418000   -0.72769700
| 30> C                  -0.68763400    3.64017500   -0.29798200
| 31> C                  -2.03222300    3.69114500    0.03667100
| 32> C                  -2.72327100    2.50215900    0.20230200
| 33> H                   0.98848800   -2.39424400   -0.72762000
| 34> H                  -3.77400100   -2.53816500    0.46614800
| 35> H                  -2.53643000   -4.63960100    0.16839000
| 36> H                  -0.11838100    4.55160600   -0.43221300
| 37> H                  -2.53629900    4.63964300    0.16836700
| 38> N                  -0.10559900   -0.00001400   -0.47542200
| 39> C                   1.28388500   -0.00002800   -0.81346900
| 40> C                   2.25084800   -0.00001600    0.22320200
| 41> C                   1.66241000   -0.00004700   -2.13014900
| 42> C                   1.90300100   -0.00000100    1.59151800
| 43> C                   3.63127600   -0.00001700   -0.14019800
| 44> C                   3.02280300   -0.00005300   -2.48019000
| 45> H                   0.89863100   -0.00005700   -2.89816200
| 46> C                   2.87379700    0.00001300    2.55784500
| 47> H                   0.85552600   -0.00000100    1.86857700
| 48> C                   4.60314900   -0.00000000    0.88437900
| 49> C                   3.98496300   -0.00003600   -1.50674700
| 50> H                   3.30290900   -0.00006900   -3.52569400
| 51> C                   4.23490800    0.00001400    2.20271100
| 52> H                   2.59410200    0.00002400    3.60380800
| 53> H                   5.64980500   -0.00000000    0.60349100
| 54> H                   5.03613600   -0.00003800   -1.76975100
| 55> H                   4.99056900    0.00002600    2.97810500
| 56> H                  -3.77392100    2.53824600    0.46617000
| 57> H                  -0.11849300   -4.55163500   -0.43212500
| 58> C                  -4.13028600    0.00004000   -0.72900200
| 59> H                  -3.78089100    0.00003500   -1.76199700
| 60> H                  -4.75878500   -0.87895200   -0.58567700
| 61> H                  -4.75876600    0.87904700   -0.58567900
| 62> C                  -3.50470800    0.00004200    1.68925000
| 63> H                  -4.12321100   -0.87935000    1.86946000
| 64> H                  -2.69638900    0.00001900    2.42182100
| 65> H                  -4.12316100    0.87947000    1.86945900
| 66> *
| 67>
| 68>
| 69>                          ****END OF INPUT****

CARTESIAN COORDINATES (ANGSTROEM)
---------------------------------
  C     -0.687726   -3.640187   -0.297921
  C     -0.059856   -2.420657   -0.464396
  C     -0.762803   -1.218402   -0.299724
  C     -2.121978   -1.256615    0.044913
  C     -2.723343   -2.502112    0.202305
  C     -2.032324   -3.691118    0.036698
  C     -2.951501    0.000027    0.255739
  C     -2.121944    1.256644    0.044904
  C     -0.762775    1.218391   -0.299746
  C     -0.059799    2.420626   -0.464452
  H      0.988539    2.394180   -0.727697
  C     -0.687634    3.640175   -0.297982
  C     -2.032223    3.691145    0.036671
  C     -2.723271    2.502159    0.202302
  H      0.988488   -2.394244   -0.727620
  H     -3.774001   -2.538165    0.466148
  H     -2.536430   -4.639601    0.168390
  H     -0.118381    4.551606   -0.432213
  H     -2.536299    4.639643    0.168367
  N     -0.105599   -0.000014   -0.475422
  C      1.283885   -0.000028   -0.813469
  C      2.250848   -0.000016    0.223202
  C      1.662410   -0.000047   -2.130149
  C      1.903001   -0.000001    1.591518
  C      3.631276   -0.000017   -0.140198
  C      3.022803   -0.000053   -2.480190
  H      0.898631   -0.000057   -2.898162
  C      2.873797    0.000013    2.557845
  H      0.855526   -0.000001    1.868577
  C      4.603149   -0.000000    0.884379
  C      3.984963   -0.000036   -1.506747
  H      3.302909   -0.000069   -3.525694
  C      4.234908    0.000014    2.202711
  H      2.594102    0.000024    3.603808
  H      5.649805   -0.000000    0.603491
  H      5.036136   -0.000038   -1.769751
  H      4.990569    0.000026    2.978105
  H     -3.773921    2.538246    0.466170
  H     -0.118493   -4.551635   -0.432125
  C     -4.130286    0.000040   -0.729002
  H     -3.780891    0.000035   -1.761997
  H     -4.758785   -0.878952   -0.585677
  H     -4.758766    0.879047   -0.585679
  C     -3.504708    0.000042    1.689250
  H     -4.123211   -0.879350    1.869460
  H     -2.696389    0.000019    2.421821
  H     -4.123161    0.879470    1.869459

 Total Charge           Charge          ....    0
 Multiplicity           Mult            ....    1
 Number of Electrons    NEL             ....  178
 Basis Dimension        Dim             ....  932

ORBITAL ENERGIES
----------------

  NO   OCC          E(Eh)            E(eV)
   0   2.0000     -15.055024      -409.6680
   1   2.0000     -10.823673      -294.5271
   2   2.0000     -10.823656      -294.5267
   3   2.0000     -10.817733      -294.3655
   4   2.0000     -10.791532      -293.6525
   5   2.0000     -10.790598      -293.6271
   6   2.0000     -10.789796      -293.6053
   7   2.0000     -10.780399      -293.3496
   8   2.0000     -10.779939      -293.3370
   9   2.0000     -10.778597      -293.3005
  10   2.0000     -10.778539      -293.2990
  11   2.0000     -10.778389      -293.2949
  12   2.0000     -10.777408      -293.2682
  13   2.0000     -10.777317      -293.2657
  14   2.0000     -10.777305      -293.2654
  15   2.0000     -10.776593      -293.2460
  16   2.0000     -10.772114      -293.1241
  17   2.0000     -10.772113      -293.1241
  18   2.0000     -10.770957      -293.0926
  19   2.0000     -10.770956      -293.0926
  20   2.0000     -10.767692      -293.0038
  21   2.0000     -10.767692      -293.0038
  22   2.0000     -10.763516      -292.8902
  23   2.0000     -10.763516      -292.8902
  24   2.0000     -10.750558      -292.5375
  25   2.0000     -10.750539      -292.5370
  26   2.0000      -1.162219       -31.6256
  27   2.0000      -1.056007       -28.7354
  28   2.0000      -1.028944       -27.9990
  29   2.0000      -1.027111       -27.9491
  30   2.0000      -0.992033       -26.9946
  31   2.0000      -0.975220       -26.5371
  32   2.0000      -0.936875       -25.4937
  33   2.0000      -0.912989       -24.8437
  34   2.0000      -0.901730       -24.5373
  35   2.0000      -0.899004       -24.4632
  36   2.0000      -0.885007       -24.0823
  37   2.0000      -0.877579       -23.8801
  38   2.0000      -0.849159       -23.1068
  39   2.0000      -0.823745       -22.4152
  40   2.0000      -0.775512       -21.1027
  41   2.0000      -0.759678       -20.6719
  42   2.0000      -0.756626       -20.5889
  43   2.0000      -0.750807       -20.4305
  44   2.0000      -0.734601       -19.9895
  45   2.0000      -0.718848       -19.5608
  46   2.0000      -0.691888       -18.8272
  47   2.0000      -0.661537       -18.0013
  48   2.0000      -0.652741       -17.7620
  49   2.0000      -0.640164       -17.4198
  50   2.0000      -0.630386       -17.1537
  51   2.0000      -0.609726       -16.5915
  52   2.0000      -0.593528       -16.1507
  53   2.0000      -0.573483       -15.6053
  54   2.0000      -0.568090       -15.4585
  55   2.0000      -0.559691       -15.2300
  56   2.0000      -0.555921       -15.1274
  57   2.0000      -0.553183       -15.0529
  58   2.0000      -0.534210       -14.5366
  59   2.0000      -0.530902       -14.4466
  60   2.0000      -0.526741       -14.3334
  61   2.0000      -0.519364       -14.1326
  62   2.0000      -0.516891       -14.0653
  63   2.0000      -0.513503       -13.9731
  64   2.0000      -0.511343       -13.9144
  65   2.0000      -0.497781       -13.5453
  66   2.0000      -0.481565       -13.1040
  67   2.0000      -0.480176       -13.0663
  68   2.0000      -0.475761       -12.9461
  69   2.0000      -0.470737       -12.8094
  70   2.0000      -0.469084       -12.7644
  71   2.0000      -0.458016       -12.4632
  72   2.0000      -0.454535       -12.3685
  73   2.0000      -0.444222       -12.0879
  74   2.0000      -0.435603       -11.8534
  75   2.0000      -0.433115       -11.7857
  76   2.0000      -0.423956       -11.5364
  77   2.0000      -0.420575       -11.4444
  78   2.0000      -0.408336       -11.1114
  79   2.0000      -0.400374       -10.8947
  80   2.0000      -0.397967       -10.8292
  81   2.0000      -0.392395       -10.6776
  82   2.0000      -0.351755        -9.5717
  83   2.0000      -0.312721        -8.5096
  84   2.0000      -0.302782        -8.2391
  85   2.0000      -0.297875        -8.1056
  86   2.0000      -0.296384        -8.0650
  87   2.0000      -0.267386        -7.2759
  88   2.0000      -0.236917        -6.4468
  89   0.0000       0.015423         0.4197
  90   0.0000       0.042121         1.1462
  91   0.0000       0.054083         1.4717
  92   0.0000       0.059741         1.6256
  93   0.0000       0.073911         2.0112

MULLIKEN ATOMIC CHARGES
-----------------------
   0 C :   -0.155204
   1 C :   -0.295335
   2 C :    0.208518
   3 C :   -0.165976
   4 C :   -0.213871
   5 C :   -0.230578
   6 C :    0.314378
   7 C :   -0.165292
   8 C :    0.209207
   9 C :   -0.295825
  10 H :    0.167467
  11 C :   -0.155478
  12 C :   -0.230853
  13 C :   -0.214695
  14 H :    0.167525
  15 H :    0.165755
  16 H :    0.154690
  17 H :    0.158186
  18 H :    0.154877
  19 N :    0.044117
  20 C :    0.239763
  21 C :    0.028246
  22 C :   -0.196236
  23 C :   -0.331977
  24 C :    0.086596
  25 C :   -0.124210
  26 H :    0.160515
  27 C :   -0.112630
  28 H :    0.174385
  29 C :   -0.198617
  30 C :   -0.259153
  31 H :    0.161924
  32 C :   -0.169486
  33 H :    0.162797
  34 H :    0.162513
  35 H :    0.161598
  36 H :    0.161836
  37 H :    0.166008
  38 H :    0.158153
  39 C :   -0.417305
  40 H :    0.127115
  41 H :    0.131396
  42 H :    0.131448
  43 C :   -0.417729
  44 H :    0.131862
  45 H :    0.127782
  46 H :    0.131794
Sum of atomic charges:    0.0000000

LOEWDIN ATOMIC CHARGES
----------------------
   0 C :   -0.152764
   1 C :   -0.129404
   2 C :   -0.124722
   3 C :   -0.070043
   4 C :   -0.106737
   5 C :   -0.175639
   6 C :   -0.233685
   7 C :   -0.070042
   8 C :   -0.124721
   9 C :   -0.129403
  10 H :    0.159837
  11 C :   -0.152769
  12 C :   -0.175638
  13 C :   -0.106737
  14 H :    0.159837
  15 H :    0.156863
  16 H :    0.147129
  17 H :    0.150762
  18 H :    0.147129
  19 N :    0.278547
  20 C :   -0.135741
  21 C :   -0.070400
  22 C :   -0.093648
  23 C :   -0.099089
  24 C :   -0.097801
  25 C :   -0.139755
  26 H :    0.160320
  27 C :   -0.139675
  28 H :    0.159828
  29 C :   -0.102282
  30 C :   -0.097051
  31 H :    0.153503
  32 C :   -0.143631
  33 H :    0.152407
  34 H :    0.156459
  35 H :    0.157276
  36 H :    0.151958
  37 H :    0.156864
  38 H :    0.150762
  39 C :   -0.231575
  40 H :    0.122345
  41 H :    0.122574
  42 H :    0.122572
  43 C :   -0.231558
  44 H :    0.122518
  45 H :    0.122501
  46 H :    0.122519

  Mayer bond orders larger than 0.100000
B(  0-C ,  1-C ) :   1.4271 B(  0-C ,  5-C ) :   1.3679 B(  0-C , 38-H ) :   0.9831
B(  1-C ,  2-C ) :   1.3634 B(  1-C , 14-H ) :   0.9788 B(  2-C ,  3-C ) :   1.2792
B(  2-C , 19-N ) :   1.1020 B(  3-C ,  4-C ) :   1.3580 B(  3-C ,  6-C ) :   0.9220
B(  4-C ,  5-C ) :   1.4390 B(  4-C , 15-H ) :   0.9717 B(  5-C , 16-H ) :   0.9937
B(  6-C ,  7-C ) :   0.9215 B(  6-C , 39-C ) :   0.8928 B(  6-C , 43-C ) :   0.8885
B(  7-C ,  8-C ) :   1.2800 B(  7-C , 13-C ) :   1.3571 B(  8-C ,  9-C ) :   1.3621
B(  8-C , 19-N ) :   1.1024 B(  9-C , 10-H ) :   0.9792 B(  9-C , 11-C ) :   1.4272
B( 11-C , 12-C ) :   1.3685 B( 11-C , 17-H ) :   0.9831 B( 12-C , 13-C ) :   1.4399
B( 12-C , 18-H ) :   0.9933 B( 13-C , 37-H ) :   0.9716 B( 19-N , 20-C ) :   0.6936
B( 20-C , 21-C ) :   1.1628 B( 20-C , 22-C ) :   1.6512 B( 20-C , 23-C ) :  -0.1051
B( 20-C , 24-C ) :  -0.1164 B( 21-C , 23-C ) :   1.2720 B( 21-C , 24-C ) :   1.2904
B( 22-C , 25-C ) :   1.2383 B( 22-C , 26-H ) :   0.9872 B( 23-C , 27-C ) :   1.5645
B( 23-C , 28-H ) :   0.9695 B( 24-C , 29-C ) :   1.2557 B( 24-C , 30-C ) :   1.2314
B( 25-C , 30-C ) :   1.5077 B( 25-C , 31-H ) :   0.9917 B( 27-C , 32-C ) :   1.2358
B( 27-C , 33-H ) :   0.9841 B( 29-C , 32-C ) :   1.5375 B( 29-C , 34-H ) :   0.9833
B( 30-C , 35-H ) :   0.9898 B( 32-C , 36-H ) :   0.9845 B( 39-C , 40-H ) :   0.9846
B( 39-C , 41-H ) :   0.9789 B( 39-C , 42-H ) :   0.9784 B( 43-C , 44-H ) :   0.9778
B( 43-C , 45-H ) :   0.9842 B( 43-C , 46-H ) :   0.9778

MP2 TOTAL ENERGY:    -1019.348727326 Eh

-----------------------------------------------------------------------------
         ABSORPTION SPECTRUM VIA TRANSITION ELECTRIC DIPOLE MOMENTS
-----------------------------------------------------------------------------
State   Energy    Wavelength  fosc         T2        TX        TY        TZ
        (cm-1)      (nm)                 (au**2)    (au)      (au)      (au)
-----------------------------------------------------------------------------
   1   28305.6    353.3   0.000680198   0.00791  -0.00003  -0.08894   0.00001
   2   36404.1    274.7   0.190171069   1.71977  -1.28742   0.00001   0.24963
   3   34635.8    288.7   0.174990194   1.66328   0.00003   1.28968   0.00000
   4   34841.3    287.0   0.006239411   0.05896  -0.22716   0.00002   0.08574
   5   33731.1    296.5   0.069185978   0.67525   0.80537   0.00002  -0.16315
   6   35619.3    280.7   0.191469214   1.76966  -0.00000  -1.33028   0.00001
   7   37195.3    268.9   0.012947326   0.11460  -0.00002  -0.33852   0.00001
   8   44675.4    223.8   1.269993786   9.35855   1.43055   0.00001   2.70408
   9   47255.3    211.6   0.181946286   1.26756  -0.00256  -0.00001   1.12586
  10   48523.6    206.1   0.698651891   4.74005  -2.03695   0.00003   0.76869
  11   49447.2    202.2   0.724347831   4.82260   0.00005   2.19604   0.00006
  12   50288.7    198.9   0.011051545   0.07235  -0.17999  -0.00000  -0.19988
  13   47561.1    210.3   0.030619648   0.21195   0.06730   0.00024  -0.45543
  14   46513.1    215.0   0.396267783   2.80472  -0.00004  -1.67473  -0.00002
  15   47731.0    209.5   0.203439866   1.40317   1.18385  -0.00003  -0.04086
  16   44595.5    224.2   0.014886543   0.10990  -0.00018   0.33150   0.00003
  17   44246.2    226.0   0.022285401   0.16581   0.00005   0.40720  -0.00002
  18   49331.3    202.7   0.399938954   2.66899  -1.55232  -0.00063   0.50921
  19   47424.5    210.9   0.016786884   0.11653   0.00296  -0.34135  -0.00104
  20   46509.4    215.0   0.029882744   0.21152  -0.04362  -0.00008   0.45784
  21   47469.6    210.7   0.069558666   0.48240   0.54430  -0.00005  -0.43144
  22   48601.6    205.8   0.021995467   0.14899  -0.14872  -0.00004   0.35619
  23   48505.4    206.2   0.026666605   0.18099  -0.42372  -0.00006   0.03807
  24   48856.4    204.7   0.013639565   0.09191   0.11868   0.00001  -0.27897
  25   51830.7    192.9   0.000635840   0.00404   0.05336  -0.00001   0.03452
  26   51424.3    194.5   0.246550753   1.57839   0.00017  -1.25634  -0.00005
  27   51480.9    194.2   0.269021366   1.72035  -1.22336  -0.00016   0.47301
  28   51326.1    194.8   0.022213228   0.14248  -0.10559   0.00002  -0.36239
  29   57141.5    175.0   0.000127713   0.00074  -0.00000  -0.02713  -0.00004
  30   54454.0    183.6   0.013145133   0.07947   0.28149  -0.00006   0.01534

FINAL SINGLE POINT ENERGY     -1017.507565556739

DIPOLE MOMENT
-------------
                                X             Y             Z
Electronic contribution:     12.17292      -0.00018      -3.07197
Nuclear contribution   :    -11.75410       0.00018       3.02396
                        -----------------------------------------
Total Dipole Moment    :      0.41882       0.00001      -0.04801
                        -----------------------------------------
Magnitude (a.u.)       :      0.42157
Magnitude (Debye)      :      1.07153

Rotational constants in cm-1:     0.010615     0.006095     0.004924
Rotational constants in MHz :   318.221091   182.736497   147.607039

                             ****ORCA TERMINATED NORMALLY****
TOTAL RUN TIME: 0 days 6 hours 18 minutes 9 seconds 734 msec
