                         Program Version 5.0.2 -  RELEASE  -
|  1> %maxcore 20000
|  2> %pal
|  3>  nprocs= 6
|  4> end
|  5> ! RI-SCS-PBE-QIDH   def2-TZVP def2/J def2-TZVP/C RIJCOSX CPCM TightSCF
|  6> %TDDFT
|  7>    NROOTS   30
|  8>    dcorr 4
|  9>    doscs true
| 10>    TDA      FALSE
| 11> END
| 12>
| 13> %CPCM
| 14>    SMD          TRUE
| 15>    SMDsolvent   "N,N-DIMETHYLFORMAMIDE"
| 16> END
| 17>
| 18>
| 19> * xyz 0 1
| 20> C                  -0.68772600   -3.64018700   -0.29792100
| 21> C                  -0.05985600   -2.42065700   -0.46439600
| 22> C                  -0.76280300   -1.21840200   -0.29972400
| 23> C                  -2.12197800   -1.25661500    0.04491300
| 24> C                  -2.72334300   -2.50211200    0.20230500
| 25> C                  -2.03232400   -3.69111800    0.03669800
| 26> C                  -2.95150100    0.00002700    0.25573900
| 27> C                  -2.12194400    1.25664400    0.04490400
| 28> C                  -0.76277500    1.21839100   -0.29974600
| 29> C                  -0.05979900    2.42062600   -0.46445200
| 30> H                   0.98853900    2.39418000   -0.72769700
| 31> C                  -0.68763400    3.64017500   -0.29798200
| 32> C                  -2.03222300    3.69114500    0.03667100
| 33> C                  -2.72327100    2.50215900    0.20230200
| 34> H                   0.98848800   -2.39424400   -0.72762000
| 35> H                  -3.77400100   -2.53816500    0.46614800
| 36> H                  -2.53643000   -4.63960100    0.16839000
| 37> H                  -0.11838100    4.55160600   -0.43221300
| 38> H                  -2.53629900    4.63964300    0.16836700
| 39> N                  -0.10559900   -0.00001400   -0.47542200
| 40> C                   1.28388500   -0.00002800   -0.81346900
| 41> C                   2.25084800   -0.00001600    0.22320200
| 42> C                   1.66241000   -0.00004700   -2.13014900
| 43> C                   1.90300100   -0.00000100    1.59151800
| 44> C                   3.63127600   -0.00001700   -0.14019800
| 45> C                   3.02280300   -0.00005300   -2.48019000
| 46> H                   0.89863100   -0.00005700   -2.89816200
| 47> C                   2.87379700    0.00001300    2.55784500
| 48> H                   0.85552600   -0.00000100    1.86857700
| 49> C                   4.60314900   -0.00000000    0.88437900
| 50> C                   3.98496300   -0.00003600   -1.50674700
| 51> H                   3.30290900   -0.00006900   -3.52569400
| 52> C                   4.23490800    0.00001400    2.20271100
| 53> H                   2.59410200    0.00002400    3.60380800
| 54> H                   5.64980500   -0.00000000    0.60349100
| 55> H                   5.03613600   -0.00003800   -1.76975100
| 56> H                   4.99056900    0.00002600    2.97810500
| 57> H                  -3.77392100    2.53824600    0.46617000
| 58> H                  -0.11849300   -4.55163500   -0.43212500
| 59> C                  -4.13028600    0.00004000   -0.72900200
| 60> H                  -3.78089100    0.00003500   -1.76199700
| 61> H                  -4.75878500   -0.87895200   -0.58567700
| 62> H                  -4.75876600    0.87904700   -0.58567900
| 63> C                  -3.50470800    0.00004200    1.68925000
| 64> H                  -4.12321100   -0.87935000    1.86946000
| 65> H                  -2.69638900    0.00001900    2.42182100
| 66> H                  -4.12316100    0.87947000    1.86945900
| 67> *
| 68>
| 69>
| 70>                          ****END OF INPUT****

CARTESIAN COORDINATES (ANGSTROEM)
---------------------------------
  C     -0.687726   -3.640187   -0.297921
  C     -0.059856   -2.420657   -0.464396
  C     -0.762803   -1.218402   -0.299724
  C     -2.121978   -1.256615    0.044913
  C     -2.723343   -2.502112    0.202305
  C     -2.032324   -3.691118    0.036698
  C     -2.951501    0.000027    0.255739
  C     -2.121944    1.256644    0.044904
  C     -0.762775    1.218391   -0.299746
  C     -0.059799    2.420626   -0.464452
  H      0.988539    2.394180   -0.727697
  C     -0.687634    3.640175   -0.297982
  C     -2.032223    3.691145    0.036671
  C     -2.723271    2.502159    0.202302
  H      0.988488   -2.394244   -0.727620
  H     -3.774001   -2.538165    0.466148
  H     -2.536430   -4.639601    0.168390
  H     -0.118381    4.551606   -0.432213
  H     -2.536299    4.639643    0.168367
  N     -0.105599   -0.000014   -0.475422
  C      1.283885   -0.000028   -0.813469
  C      2.250848   -0.000016    0.223202
  C      1.662410   -0.000047   -2.130149
  C      1.903001   -0.000001    1.591518
  C      3.631276   -0.000017   -0.140198
  C      3.022803   -0.000053   -2.480190
  H      0.898631   -0.000057   -2.898162
  C      2.873797    0.000013    2.557845
  H      0.855526   -0.000001    1.868577
  C      4.603149   -0.000000    0.884379
  C      3.984963   -0.000036   -1.506747
  H      3.302909   -0.000069   -3.525694
  C      4.234908    0.000014    2.202711
  H      2.594102    0.000024    3.603808
  H      5.649805   -0.000000    0.603491
  H      5.036136   -0.000038   -1.769751
  H      4.990569    0.000026    2.978105
  H     -3.773921    2.538246    0.466170
  H     -0.118493   -4.551635   -0.432125
  C     -4.130286    0.000040   -0.729002
  H     -3.780891    0.000035   -1.761997
  H     -4.758785   -0.878952   -0.585677
  H     -4.758766    0.879047   -0.585679
  C     -3.504708    0.000042    1.689250
  H     -4.123211   -0.879350    1.869460
  H     -2.696389    0.000019    2.421821
  H     -4.123161    0.879470    1.869459

 Total Charge           Charge          ....    0
 Multiplicity           Mult            ....    1
 Number of Electrons    NEL             ....  178
 Basis Dimension        Dim             ....  932

ORBITAL ENERGIES
----------------

  NO   OCC          E(Eh)            E(eV)
   0   2.0000     -15.114704      -411.2920
   1   2.0000     -10.870256      -295.7947
   2   2.0000     -10.870240      -295.7943
   3   2.0000     -10.864633      -295.6417
   4   2.0000     -10.838497      -294.9305
   5   2.0000     -10.837215      -294.8956
   6   2.0000     -10.836288      -294.8704
   7   2.0000     -10.826009      -294.5907
   8   2.0000     -10.825705      -294.5824
   9   2.0000     -10.824286      -294.5438
  10   2.0000     -10.824274      -294.5435
  11   2.0000     -10.824005      -294.5362
  12   2.0000     -10.823967      -294.5351
  13   2.0000     -10.823835      -294.5315
  14   2.0000     -10.822845      -294.5046
  15   2.0000     -10.821859      -294.4778
  16   2.0000     -10.817579      -294.3613
  17   2.0000     -10.817579      -294.3613
  18   2.0000     -10.816735      -294.3383
  19   2.0000     -10.816734      -294.3383
  20   2.0000     -10.813369      -294.2467
  21   2.0000     -10.813369      -294.2467
  22   2.0000     -10.808812      -294.1227
  23   2.0000     -10.808812      -294.1227
  24   2.0000     -10.794137      -293.7234
  25   2.0000     -10.794128      -293.7231
  26   2.0000      -1.189755       -32.3749
  27   2.0000      -1.081891       -29.4398
  28   2.0000      -1.054432       -28.6926
  29   2.0000      -1.052477       -28.6393
  30   2.0000      -1.016636       -27.6641
  31   2.0000      -0.999602       -27.2006
  32   2.0000      -0.960455       -26.1353
  33   2.0000      -0.936190       -25.4750
  34   2.0000      -0.924499       -25.1569
  35   2.0000      -0.921907       -25.0864
  36   2.0000      -0.907505       -24.6945
  37   2.0000      -0.899921       -24.4881
  38   2.0000      -0.870941       -23.6995
  39   2.0000      -0.844493       -22.9798
  40   2.0000      -0.796070       -21.6622
  41   2.0000      -0.779682       -21.2162
  42   2.0000      -0.777006       -21.1434
  43   2.0000      -0.770685       -20.9714
  44   2.0000      -0.754261       -20.5245
  45   2.0000      -0.737978       -20.0814
  46   2.0000      -0.710585       -19.3360
  47   2.0000      -0.679554       -18.4916
  48   2.0000      -0.671325       -18.2677
  49   2.0000      -0.658131       -17.9086
  50   2.0000      -0.647764       -17.6265
  51   2.0000      -0.626688       -17.0531
  52   2.0000      -0.610097       -16.6016
  53   2.0000      -0.589647       -16.0451
  54   2.0000      -0.583968       -15.8906
  55   2.0000      -0.575663       -15.6646
  56   2.0000      -0.571991       -15.5647
  57   2.0000      -0.569051       -15.4847
  58   2.0000      -0.549211       -14.9448
  59   2.0000      -0.546003       -14.8575
  60   2.0000      -0.541927       -14.7466
  61   2.0000      -0.534098       -14.5335
  62   2.0000      -0.531907       -14.4739
  63   2.0000      -0.528206       -14.3732
  64   2.0000      -0.525920       -14.3110
  65   2.0000      -0.511784       -13.9264
  66   2.0000      -0.498133       -13.5549
  67   2.0000      -0.495200       -13.4751
  68   2.0000      -0.490843       -13.3565
  69   2.0000      -0.484058       -13.1719
  70   2.0000      -0.482481       -13.1290
  71   2.0000      -0.470926       -12.8146
  72   2.0000      -0.467645       -12.7253
  73   2.0000      -0.459894       -12.5143
  74   2.0000      -0.448236       -12.1971
  75   2.0000      -0.445955       -12.1351
  76   2.0000      -0.436220       -11.8702
  77   2.0000      -0.433278       -11.7901
  78   2.0000      -0.423661       -11.5284
  79   2.0000      -0.413228       -11.2445
  80   2.0000      -0.412970       -11.2375
  81   2.0000      -0.404372       -11.0035
  82   2.0000      -0.366262        -9.9665
  83   2.0000      -0.326469        -8.8837
  84   2.0000      -0.316398        -8.6096
  85   2.0000      -0.311129        -8.4662
  86   2.0000      -0.309667        -8.4265
  87   2.0000      -0.280148        -7.6232
  88   2.0000      -0.249450        -6.7879
  89   0.0000       0.013463         0.3663
  90   0.0000       0.040144         1.0924
  91   0.0000       0.052724         1.4347
  92   0.0000       0.058088         1.5807
  93   0.0000       0.072964         1.9855

MULLIKEN ATOMIC CHARGES
-----------------------
   0 C :   -0.156880
   1 C :   -0.327109
   2 C :    0.219902
   3 C :   -0.197703
   4 C :   -0.224494
   5 C :   -0.241356
   6 C :    0.295176
   7 C :   -0.197007
   8 C :    0.220657
   9 C :   -0.327645
  10 H :    0.175866
  11 C :   -0.157115
  12 C :   -0.241719
  13 C :   -0.225277
  14 H :    0.175936
  15 H :    0.177387
  16 H :    0.165410
  17 H :    0.167653
  18 H :    0.165591
  19 N :    0.119998
  20 C :    0.189591
  21 C :    0.064684
  22 C :   -0.189949
  23 C :   -0.364136
  24 C :    0.104595
  25 C :   -0.131976
  26 H :    0.169944
  27 C :   -0.110461
  28 H :    0.179519
  29 C :   -0.227990
  30 C :   -0.293998
  31 H :    0.171539
  32 C :   -0.175000
  33 H :    0.171903
  34 H :    0.173905
  35 H :    0.172463
  36 H :    0.171589
  37 H :    0.177638
  38 H :    0.167624
  39 C :   -0.436677
  40 H :    0.141429
  41 H :    0.145151
  42 H :    0.145206
  43 C :   -0.437047
  44 H :    0.145661
  45 H :    0.141930
  46 H :    0.145590
Sum of atomic charges:    0.0000000

LOEWDIN ATOMIC CHARGES
----------------------
   0 C :   -0.154507
   1 C :   -0.131447
   2 C :   -0.128477
   3 C :   -0.073367
   4 C :   -0.108860
   5 C :   -0.177499
   6 C :   -0.240930
   7 C :   -0.073367
   8 C :   -0.128475
   9 C :   -0.131446
  10 H :    0.163102
  11 C :   -0.154512
  12 C :   -0.177498
  13 C :   -0.108860
  14 H :    0.163101
  15 H :    0.160356
  16 H :    0.150602
  17 H :    0.154220
  18 H :    0.150602
  19 N :    0.279560
  20 C :   -0.142044
  21 C :   -0.073832
  22 C :   -0.094729
  23 C :   -0.101537
  24 C :   -0.101409
  25 C :   -0.141435
  26 H :    0.164064
  27 C :   -0.141262
  28 H :    0.163069
  29 C :   -0.104148
  30 C :   -0.098429
  31 H :    0.156903
  32 C :   -0.145558
  33 H :    0.155763
  34 H :    0.159903
  35 H :    0.160761
  36 H :    0.155281
  37 H :    0.160356
  38 H :    0.154220
  39 C :   -0.237661
  40 H :    0.126160
  41 H :    0.126179
  42 H :    0.126177
  43 C :   -0.237631
  44 H :    0.126131
  45 H :    0.126279
  46 H :    0.126132

  Mayer bond orders larger than 0.100000
B(  0-C ,  1-C ) :   1.4250 B(  0-C ,  5-C ) :   1.3670 B(  0-C , 38-H ) :   0.9807
B(  1-C ,  2-C ) :   1.3687 B(  1-C , 14-H ) :   0.9780 B(  2-C ,  3-C ) :   1.2891
B(  2-C , 19-N ) :   1.1042 B(  3-C ,  4-C ) :   1.3489 B(  3-C ,  6-C ) :   0.9299
B(  3-C ,  7-C ) :   0.1046 B(  4-C ,  5-C ) :   1.4381 B(  4-C , 15-H ) :   0.9692
B(  5-C , 16-H ) :   0.9903 B(  6-C ,  7-C ) :   0.9291 B(  6-C , 39-C ) :   0.8999
B(  6-C , 43-C ) :   0.8937 B(  7-C ,  8-C ) :   1.2898 B(  7-C , 13-C ) :   1.3479
B(  8-C ,  9-C ) :   1.3673 B(  8-C , 19-N ) :   1.1046 B(  9-C , 10-H ) :   0.9784
B(  9-C , 11-C ) :   1.4250 B( 11-C , 12-C ) :   1.3675 B( 11-C , 17-H ) :   0.9807
B( 12-C , 13-C ) :   1.4389 B( 12-C , 18-H ) :   0.9898 B( 13-C , 37-H ) :   0.9691
B( 19-N , 20-C ) :   0.7179 B( 20-C , 21-C ) :   1.1802 B( 20-C , 22-C ) :   1.6819
B( 20-C , 23-C ) :  -0.1202 B( 20-C , 24-C ) :  -0.1235 B( 21-C , 23-C ) :   1.2812
B( 21-C , 24-C ) :   1.2931 B( 22-C , 25-C ) :   1.2401 B( 22-C , 26-H ) :   0.9816
B( 23-C , 27-C ) :   1.5635 B( 23-C , 28-H ) :   0.9745 B( 24-C , 29-C ) :   1.2585
B( 24-C , 30-C ) :   1.2343 B( 25-C , 30-C ) :   1.4985 B( 25-C , 31-H ) :   0.9876
B( 27-C , 32-C ) :   1.2332 B( 27-C , 33-H ) :   0.9807 B( 29-C , 32-C ) :   1.5338
B( 29-C , 34-H ) :   0.9849 B( 30-C , 35-H ) :   0.9933 B( 32-C , 36-H ) :   0.9815
B( 39-C , 40-H ) :   0.9794 B( 39-C , 41-H ) :   0.9709 B( 39-C , 42-H ) :   0.9704
B( 43-C , 44-H ) :   0.9698 B( 43-C , 45-H ) :   0.9790 B( 43-C , 46-H ) :   0.9698

MP2 TOTAL ENERGY:    -1019.078909716 Eh

-----------------------------------------------------------------------------
         ABSORPTION SPECTRUM VIA TRANSITION ELECTRIC DIPOLE MOMENTS
-----------------------------------------------------------------------------
State   Energy    Wavelength  fosc         T2        TX        TY        TZ
        (cm-1)      (nm)                 (au**2)    (au)      (au)      (au)
-----------------------------------------------------------------------------
   1   29891.4    334.5   0.000664015   0.00731   0.00003   0.08552  -0.00001
   2   36475.2    274.2   0.192916295   1.74119   1.29636  -0.00001  -0.24627
   3   34705.0    288.1   0.177407127   1.68289   0.00003   1.29726   0.00000
   4   33530.2    298.2   0.003169335   0.03112   0.16367  -0.00002  -0.06581
   5   33311.1    300.2   0.070560492   0.69735   0.81781   0.00002  -0.16890
   6   35360.1    282.8   0.185483514   1.72690   0.00000  -1.31412   0.00001
   7   38077.9    262.6   0.010318018   0.08921   0.00002   0.29868  -0.00001
   8   44891.5    222.8   1.287369948   9.44093  -1.41424  -0.00001  -2.72779
   9   47153.8    212.1   0.183673335   1.28235  -0.00690   0.00001  -1.13239
  10   48538.6    206.0   0.717482500   4.86631  -2.06634   0.00003   0.77236
  11   49561.5    201.8   0.754671463   5.01290  -0.00005  -2.23895  -0.00004
  12   50560.9    197.8   0.010178622   0.06628  -0.23245  -0.00006  -0.11064
  13   47122.9    212.2   0.441659891   3.08554  -0.00004  -1.75657   0.00001
  14   48256.3    207.2   0.146807700   1.00154  -0.94250  -0.00001   0.33651
  15   49654.4    201.4   0.093105766   0.61730  -0.71486   0.00006  -0.32598
  16   46184.9    216.5   0.016102723   0.11478  -0.00040   0.33880   0.00012
  17   46376.3    215.6   0.008481110   0.06020  -0.00013  -0.24537   0.00004
  18   50408.2    198.4   0.534503147   3.49080  -1.76364  -0.00005   0.61675
  19   48620.1    205.7   0.020866652   0.14129  -0.25395   0.00002   0.27712
  20   49382.3    202.5   0.009783669   0.06522  -0.00026   0.25539   0.00011
  21   48248.6    207.3   0.033787716   0.23054  -0.07517  -0.00004   0.47423
  22   48163.9    207.6   0.016493699   0.11274   0.25606   0.00001  -0.21719
  23   49821.8    200.7   0.011005305   0.07272   0.26876   0.00006   0.02211
  24   49901.0    200.4   0.015076930   0.09947  -0.09888  -0.00002   0.29948
  25   52391.0    190.9   0.220285107   1.38422  -0.00025   1.17653   0.00007
  26   52289.4    191.2   0.214060825   1.34772  -1.09509  -0.00025   0.38537
  27   54962.8    181.9   0.000386845   0.00232   0.04763   0.00004   0.00696
  28   53218.2    187.9   0.024812758   0.15349  -0.02330  -0.00003   0.39109
  29   54600.1    183.1   0.032160077   0.19391  -0.43949   0.00002   0.02751
  30   59967.6    166.8   0.000018232   0.00010  -0.00000   0.01000   0.00003

FINAL SINGLE POINT ENERGY     -1017.402993681727

DIPOLE MOMENT
-------------
                                X             Y             Z
Electronic contribution:     12.16888      -0.00018      -3.06791
Nuclear contribution   :    -11.75410       0.00018       3.02396
                        -----------------------------------------
Total Dipole Moment    :      0.41478       0.00001      -0.04395
                        -----------------------------------------
Magnitude (a.u.)       :      0.41710
Magnitude (Debye)      :      1.06018

Rotational constants in cm-1:     0.010615     0.006095     0.004924
Rotational constants in MHz :   318.221091   182.736497   147.607039

                             ****ORCA TERMINATED NORMALLY****
TOTAL RUN TIME: 0 days 4 hours 16 minutes 30 seconds 393 msec
