                         Program Version 5.0.2 -  RELEASE  -
|  1> %maxcore 20000
|  2> %pal
|  3>  nprocs= 4
|  4> end
|  5> ! RI-wPBEPP86   def2-TZVP def2/J def2-TZVP/C RIJCOSX CPCM TightSCF
|  6> %TDDFT
|  7>    NROOTS   30
|  8>    dcorr 1
|  9>    TDA      FALSE
| 10> END
| 11>
| 12> %CPCM
| 13>    SMD          TRUE
| 14>    SMDsolvent   "N,N-DIMETHYLFORMAMIDE"
| 15> END
| 16>
| 17>
| 18> * xyz 0 1
| 19> C                  -0.68772600   -3.64018700   -0.29792100
| 20> C                  -0.05985600   -2.42065700   -0.46439600
| 21> C                  -0.76280300   -1.21840200   -0.29972400
| 22> C                  -2.12197800   -1.25661500    0.04491300
| 23> C                  -2.72334300   -2.50211200    0.20230500
| 24> C                  -2.03232400   -3.69111800    0.03669800
| 25> C                  -2.95150100    0.00002700    0.25573900
| 26> C                  -2.12194400    1.25664400    0.04490400
| 27> C                  -0.76277500    1.21839100   -0.29974600
| 28> C                  -0.05979900    2.42062600   -0.46445200
| 29> H                   0.98853900    2.39418000   -0.72769700
| 30> C                  -0.68763400    3.64017500   -0.29798200
| 31> C                  -2.03222300    3.69114500    0.03667100
| 32> C                  -2.72327100    2.50215900    0.20230200
| 33> H                   0.98848800   -2.39424400   -0.72762000
| 34> H                  -3.77400100   -2.53816500    0.46614800
| 35> H                  -2.53643000   -4.63960100    0.16839000
| 36> H                  -0.11838100    4.55160600   -0.43221300
| 37> H                  -2.53629900    4.63964300    0.16836700
| 38> N                  -0.10559900   -0.00001400   -0.47542200
| 39> C                   1.28388500   -0.00002800   -0.81346900
| 40> C                   2.25084800   -0.00001600    0.22320200
| 41> C                   1.66241000   -0.00004700   -2.13014900
| 42> C                   1.90300100   -0.00000100    1.59151800
| 43> C                   3.63127600   -0.00001700   -0.14019800
| 44> C                   3.02280300   -0.00005300   -2.48019000
| 45> H                   0.89863100   -0.00005700   -2.89816200
| 46> C                   2.87379700    0.00001300    2.55784500
| 47> H                   0.85552600   -0.00000100    1.86857700
| 48> C                   4.60314900   -0.00000000    0.88437900
| 49> C                   3.98496300   -0.00003600   -1.50674700
| 50> H                   3.30290900   -0.00006900   -3.52569400
| 51> C                   4.23490800    0.00001400    2.20271100
| 52> H                   2.59410200    0.00002400    3.60380800
| 53> H                   5.64980500   -0.00000000    0.60349100
| 54> H                   5.03613600   -0.00003800   -1.76975100
| 55> H                   4.99056900    0.00002600    2.97810500
| 56> H                  -3.77392100    2.53824600    0.46617000
| 57> H                  -0.11849300   -4.55163500   -0.43212500
| 58> C                  -4.13028600    0.00004000   -0.72900200
| 59> H                  -3.78089100    0.00003500   -1.76199700
| 60> H                  -4.75878500   -0.87895200   -0.58567700
| 61> H                  -4.75876600    0.87904700   -0.58567900
| 62> C                  -3.50470800    0.00004200    1.68925000
| 63> H                  -4.12321100   -0.87935000    1.86946000
| 64> H                  -2.69638900    0.00001900    2.42182100
| 65> H                  -4.12316100    0.87947000    1.86945900
| 66> *
| 67>
| 68>
| 69>                          ****END OF INPUT****

CARTESIAN COORDINATES (ANGSTROEM)
---------------------------------
  C     -0.687726   -3.640187   -0.297921
  C     -0.059856   -2.420657   -0.464396
  C     -0.762803   -1.218402   -0.299724
  C     -2.121978   -1.256615    0.044913
  C     -2.723343   -2.502112    0.202305
  C     -2.032324   -3.691118    0.036698
  C     -2.951501    0.000027    0.255739
  C     -2.121944    1.256644    0.044904
  C     -0.762775    1.218391   -0.299746
  C     -0.059799    2.420626   -0.464452
  H      0.988539    2.394180   -0.727697
  C     -0.687634    3.640175   -0.297982
  C     -2.032223    3.691145    0.036671
  C     -2.723271    2.502159    0.202302
  H      0.988488   -2.394244   -0.727620
  H     -3.774001   -2.538165    0.466148
  H     -2.536430   -4.639601    0.168390
  H     -0.118381    4.551606   -0.432213
  H     -2.536299    4.639643    0.168367
  N     -0.105599   -0.000014   -0.475422
  C      1.283885   -0.000028   -0.813469
  C      2.250848   -0.000016    0.223202
  C      1.662410   -0.000047   -2.130149
  C      1.903001   -0.000001    1.591518
  C      3.631276   -0.000017   -0.140198
  C      3.022803   -0.000053   -2.480190
  H      0.898631   -0.000057   -2.898162
  C      2.873797    0.000013    2.557845
  H      0.855526   -0.000001    1.868577
  C      4.603149   -0.000000    0.884379
  C      3.984963   -0.000036   -1.506747
  H      3.302909   -0.000069   -3.525694
  C      4.234908    0.000014    2.202711
  H      2.594102    0.000024    3.603808
  H      5.649805   -0.000000    0.603491
  H      5.036136   -0.000038   -1.769751
  H      4.990569    0.000026    2.978105
  H     -3.773921    2.538246    0.466170
  H     -0.118493   -4.551635   -0.432125
  C     -4.130286    0.000040   -0.729002
  H     -3.780891    0.000035   -1.761997
  H     -4.758785   -0.878952   -0.585677
  H     -4.758766    0.879047   -0.585679
  C     -3.504708    0.000042    1.689250
  H     -4.123211   -0.879350    1.869460
  H     -2.696389    0.000019    2.421821
  H     -4.123161    0.879470    1.869459

 Total Charge           Charge          ....    0
 Multiplicity           Mult            ....    1
 Number of Electrons    NEL             ....  178
 Basis Dimension        Dim             ....  932

ORBITAL ENERGIES
----------------

  NO   OCC          E(Eh)            E(eV)
   0   2.0000     -15.163934      -412.6316
   1   2.0000     -10.917065      -297.0684
   2   2.0000     -10.917048      -297.0680
   3   2.0000     -10.910771      -296.8972
   4   2.0000     -10.883953      -296.1674
   5   2.0000     -10.883444      -296.1536
   6   2.0000     -10.882478      -296.1273
   7   2.0000     -10.872039      -295.8432
   8   2.0000     -10.871755      -295.8355
   9   2.0000     -10.870502      -295.8014
  10   2.0000     -10.870489      -295.8010
  11   2.0000     -10.870015      -295.7882
  12   2.0000     -10.869865      -295.7841
  13   2.0000     -10.869846      -295.7836
  14   2.0000     -10.868857      -295.7566
  15   2.0000     -10.867714      -295.7255
  16   2.0000     -10.863788      -295.6187
  17   2.0000     -10.863788      -295.6187
  18   2.0000     -10.863145      -295.6012
  19   2.0000     -10.863144      -295.6012
  20   2.0000     -10.859555      -295.5035
  21   2.0000     -10.859555      -295.5035
  22   2.0000     -10.854803      -295.3742
  23   2.0000     -10.854803      -295.3742
  24   2.0000     -10.839267      -294.9515
  25   2.0000     -10.839257      -294.9512
  26   2.0000      -1.229533       -33.4573
  27   2.0000      -1.121467       -30.5167
  28   2.0000      -1.094022       -29.7698
  29   2.0000      -1.091908       -29.7123
  30   2.0000      -1.055689       -28.7268
  31   2.0000      -1.038697       -28.2644
  32   2.0000      -0.999111       -27.1872
  33   2.0000      -0.974873       -26.5276
  34   2.0000      -0.962785       -26.1987
  35   2.0000      -0.960449       -26.1351
  36   2.0000      -0.945724       -25.7345
  37   2.0000      -0.938104       -25.5271
  38   2.0000      -0.908905       -24.7326
  39   2.0000      -0.881861       -23.9966
  40   2.0000      -0.833656       -22.6849
  41   2.0000      -0.816801       -22.2263
  42   2.0000      -0.814402       -22.1610
  43   2.0000      -0.807821       -21.9819
  44   2.0000      -0.791252       -21.5311
  45   2.0000      -0.774882       -21.0856
  46   2.0000      -0.747235       -20.3333
  47   2.0000      -0.715897       -19.4805
  48   2.0000      -0.708323       -19.2744
  49   2.0000      -0.694451       -18.8970
  50   2.0000      -0.683542       -18.6001
  51   2.0000      -0.662774       -18.0350
  52   2.0000      -0.645886       -17.5755
  53   2.0000      -0.624562       -16.9952
  54   2.0000      -0.619552       -16.8589
  55   2.0000      -0.611317       -16.6348
  56   2.0000      -0.607664       -16.5354
  57   2.0000      -0.604252       -16.4425
  58   2.0000      -0.584879       -15.9154
  59   2.0000      -0.581124       -15.8132
  60   2.0000      -0.576713       -15.6932
  61   2.0000      -0.568983       -15.4828
  62   2.0000      -0.566516       -15.4157
  63   2.0000      -0.562859       -15.3162
  64   2.0000      -0.560402       -15.2493
  65   2.0000      -0.545699       -14.8492
  66   2.0000      -0.534070       -14.5328
  67   2.0000      -0.530133       -14.4257
  68   2.0000      -0.525196       -14.2913
  69   2.0000      -0.517932       -14.0937
  70   2.0000      -0.516082       -14.0433
  71   2.0000      -0.504330       -13.7235
  72   2.0000      -0.501332       -13.6419
  73   2.0000      -0.494686       -13.4611
  74   2.0000      -0.481605       -13.1052
  75   2.0000      -0.479368       -13.0443
  76   2.0000      -0.469268       -12.7694
  77   2.0000      -0.466120       -12.6838
  78   2.0000      -0.458084       -12.4651
  79   2.0000      -0.447755       -12.1840
  80   2.0000      -0.446092       -12.1388
  81   2.0000      -0.437138       -11.8951
  82   2.0000      -0.398914       -10.8550
  83   2.0000      -0.358112        -9.7447
  84   2.0000      -0.347339        -9.4516
  85   2.0000      -0.342425        -9.3179
  86   2.0000      -0.339499        -9.2382
  87   2.0000      -0.309536        -8.4229
  88   2.0000      -0.279326        -7.6008
  89   0.0000       0.032291         0.8787
  90   0.0000       0.058609         1.5948
  91   0.0000       0.071285         1.9398
  92   0.0000       0.077445         2.1074
  93   0.0000       0.092969         2.5298

MULLIKEN ATOMIC CHARGES
-----------------------
   0 C :   -0.171387
   1 C :   -0.327083
   2 C :    0.217476
   3 C :   -0.180637
   4 C :   -0.223280
   5 C :   -0.259650
   6 C :    0.217861
   7 C :   -0.179857
   8 C :    0.218246
   9 C :   -0.327611
  10 H :    0.196388
  11 C :   -0.171736
  12 C :   -0.260036
  13 C :   -0.224169
  14 H :    0.196458
  15 H :    0.195812
  16 H :    0.179768
  17 H :    0.182484
  18 H :    0.180002
  19 N :    0.069918
  20 C :    0.096129
  21 C :    0.061091
  22 C :   -0.192828
  23 C :   -0.359357
  24 C :    0.088955
  25 C :   -0.142120
  26 H :    0.184408
  27 C :   -0.132617
  28 H :    0.201438
  29 C :   -0.216434
  30 C :   -0.271360
  31 H :    0.186145
  32 C :   -0.192975
  33 H :    0.186462
  34 H :    0.187311
  35 H :    0.186106
  36 H :    0.185834
  37 H :    0.196133
  38 H :    0.182441
  39 C :   -0.454865
  40 H :    0.156108
  41 H :    0.158167
  42 H :    0.158226
  43 C :   -0.455425
  44 H :    0.158829
  45 H :    0.156492
  46 H :    0.158737
Sum of atomic charges:    0.0000000

LOEWDIN ATOMIC CHARGES
----------------------
   0 C :   -0.155544
   1 C :   -0.133931
   2 C :   -0.129447
   3 C :   -0.075155
   4 C :   -0.110483
   5 C :   -0.179278
   6 C :   -0.244249
   7 C :   -0.075154
   8 C :   -0.129444
   9 C :   -0.133930
  10 H :    0.165386
  11 C :   -0.155551
  12 C :   -0.179276
  13 C :   -0.110483
  14 H :    0.165385
  15 H :    0.162763
  16 H :    0.153427
  17 H :    0.157127
  18 H :    0.153427
  19 N :    0.278407
  20 C :   -0.145315
  21 C :   -0.075339
  22 C :   -0.096830
  23 C :   -0.104427
  24 C :   -0.102781
  25 C :   -0.143448
  26 H :    0.166993
  27 C :   -0.142847
  28 H :    0.165320
  29 C :   -0.105911
  30 C :   -0.100007
  31 H :    0.159685
  32 C :   -0.147692
  33 H :    0.158566
  34 H :    0.162647
  35 H :    0.163521
  36 H :    0.158032
  37 H :    0.162763
  38 H :    0.157127
  39 C :   -0.242587
  40 H :    0.128754
  41 H :    0.128402
  42 H :    0.128399
  43 C :   -0.242542
  44 H :    0.128348
  45 H :    0.128825
  46 H :    0.128349

  Mayer bond orders larger than 0.100000
B(  0-C ,  1-C ) :   1.4304 B(  0-C ,  5-C ) :   1.3661 B(  0-C , 38-H ) :   0.9763
B(  1-C ,  2-C ) :   1.3512 B(  1-C , 14-H ) :   0.9695 B(  2-C ,  3-C ) :   1.3200
B(  2-C , 19-N ) :   1.1060 B(  3-C ,  4-C ) :   1.3557 B(  3-C ,  6-C ) :   0.9201
B(  4-C ,  5-C ) :   1.4449 B(  4-C , 15-H ) :   0.9582 B(  5-C , 16-H ) :   0.9857
B(  6-C ,  7-C ) :   0.9194 B(  6-C , 39-C ) :   0.9283 B(  6-C , 43-C ) :   0.9245
B(  7-C ,  8-C ) :   1.3209 B(  7-C , 13-C ) :   1.3546 B(  8-C ,  9-C ) :   1.3496
B(  8-C , 19-N ) :   1.1064 B(  9-C , 10-H ) :   0.9700 B(  9-C , 11-C ) :   1.4305
B( 11-C , 12-C ) :   1.3668 B( 11-C , 17-H ) :   0.9763 B( 12-C , 13-C ) :   1.4460
B( 12-C , 18-H ) :   0.9851 B( 13-C , 37-H ) :   0.9580 B( 19-N , 20-C ) :   0.7256
B( 20-C , 21-C ) :   1.1727 B( 20-C , 22-C ) :   1.6898 B( 20-C , 24-C ) :  -0.1119
B( 21-C , 23-C ) :   1.2623 B( 21-C , 24-C ) :   1.2920 B( 22-C , 25-C ) :   1.2272
B( 22-C , 26-H ) :   0.9788 B( 23-C , 27-C ) :   1.5726 B( 23-C , 28-H ) :   0.9614
B( 24-C , 29-C ) :   1.2573 B( 24-C , 30-C ) :   1.2362 B( 25-C , 30-C ) :   1.5070
B( 25-C , 31-H ) :   0.9841 B( 27-C , 32-C ) :   1.2290 B( 27-C , 33-H ) :   0.9773
B( 29-C , 32-C ) :   1.5373 B( 29-C , 34-H ) :   0.9722 B( 30-C , 35-H ) :   0.9766
B( 32-C , 36-H ) :   0.9790 B( 39-C , 40-H ) :   0.9760 B( 39-C , 41-H ) :   0.9687
B( 39-C , 42-H ) :   0.9682 B( 43-C , 44-H ) :   0.9676 B( 43-C , 45-H ) :   0.9753
B( 43-C , 46-H ) :   0.9677

MP2 TOTAL ENERGY:    -1019.645014625 Eh

-----------------------------------------------------------------------------
         ABSORPTION SPECTRUM VIA TRANSITION ELECTRIC DIPOLE MOMENTS
-----------------------------------------------------------------------------
State   Energy    Wavelength  fosc         T2        TX        TY        TZ
        (cm-1)      (nm)                 (au**2)    (au)      (au)      (au)
-----------------------------------------------------------------------------
   1   37499.5    266.7   0.201687142   1.77063   1.30794  -0.00001  -0.24479
   2   35130.9    284.6   0.001937358   0.01816   0.11846  -0.00000  -0.06421
   3   35557.8    281.2   0.160559262   1.48654   0.00001   1.21924   0.00001
   4   30949.5    323.1   0.021850889   0.23243  -0.00015  -0.48211   0.00003
   5   34355.7    291.1   0.076361815   0.73173  -0.83806   0.00003   0.17143
   6   36718.8    272.3   0.180781296   1.62084  -0.00000  -1.27312   0.00001
   7   46098.9    216.9   1.054010078   7.52713   1.33082   0.00001   2.39918
   8   47719.8    209.6   0.482729670   3.33028  -0.39658   0.00001  -1.78129
   9   39497.9    253.2   0.010803825   0.09005   0.00004   0.30008   0.00001
  10   49556.5    201.8   0.751117298   4.98980   2.09101  -0.00001  -0.78581
  11   49957.5    200.2   0.780296019   5.14203   0.00001   2.26760   0.00006
  12   51191.3    195.3   0.052939052   0.34045  -0.58312  -0.00014   0.02051
  13   48613.1    205.7   0.560123532   3.79320   0.00005   1.94762  -0.00006
  14   49472.6    202.1   0.051789855   0.34463  -0.33627   0.00009   0.48120
  15   49352.3    202.6   0.192353584   1.28312   1.13212  -0.00002   0.03768
  16   51543.8    194.0   0.700909010   4.47673   1.99511  -0.00006  -0.70446
  17   50468.7    198.1   0.005958675   0.03887  -0.16537   0.00001   0.10735
  18   47091.3    212.4   0.017024933   0.11902  -0.00006  -0.34499   0.00004
  19   49996.1    200.0   0.016388580   0.10791  -0.10458  -0.00001   0.31141
  20   50958.3    196.2   0.002925169   0.01890  -0.00009   0.13747   0.00003
  21   48819.6    204.8   0.001048211   0.00707   0.00003   0.08407  -0.00000
  22   51315.2    194.9   0.003186770   0.02044  -0.13433  -0.00006   0.04898
  23   50126.3    199.5   0.006558064   0.04307  -0.13835  -0.00004  -0.15469
  24   51771.2    193.2   0.036427326   0.23164   0.16673   0.00003  -0.45149
  25   53416.0    187.2   0.146935476   0.90559   0.00015  -0.95162  -0.00003
  26   53036.0    188.6   0.111400562   0.69150   0.80495   0.00015  -0.20869
  27   55685.7    179.6   0.000155121   0.00092   0.02580  -0.00004  -0.01586
  28   59973.5    166.7   0.003334303   0.01830   0.00003   0.13529   0.00003
  29   55839.7    179.1   0.059002011   0.34786   0.41728   0.00003  -0.41682
  30   56582.9    176.7   0.000958126   0.00557  -0.00004  -0.07466   0.00004

FINAL SINGLE POINT ENERGY     -1017.336243409159

DIPOLE MOMENT
-------------
                                X             Y             Z
Electronic contribution:     12.16561      -0.00017      -3.06712
Nuclear contribution   :    -11.75410       0.00018       3.02396
                        -----------------------------------------
Total Dipole Moment    :      0.41151       0.00001      -0.04316
                        -----------------------------------------
Magnitude (a.u.)       :      0.41376
Magnitude (Debye)      :      1.05170

Rotational constants in cm-1:     0.010615     0.006095     0.004924
Rotational constants in MHz :   318.221091   182.736497   147.607039

                             ****ORCA TERMINATED NORMALLY****
TOTAL RUN TIME: 0 days 6 hours 12 minutes 38 seconds 635 msec
