                         Program Version 5.0.2 -  RELEASE  -
|  1> %maxcore 12800
|  2> %pal
|  3>  nprocs= 8
|  4> end
|  5> ! RI-DSD-BLYP D3BJ def2-TZVP def2/J def2-TZVP/C RIJCOSX CPCM TightSCF
|  6> %TDDFT DCORR 4
|  7>    NROOTS   30
|  8>
|  9>    TDA      FALSE
| 10> END
| 11>
| 12> %CPCM
| 13>    SMD          TRUE
| 14>    SMDsolvent   "N,N-DIMETHYLFORMAMIDE"
| 15> END
| 16>
| 17>
| 18> * xyz 0 1
| 19> C                  -0.68772600   -3.64018700   -0.29792100
| 20> C                  -0.05985600   -2.42065700   -0.46439600
| 21> C                  -0.76280300   -1.21840200   -0.29972400
| 22> C                  -2.12197800   -1.25661500    0.04491300
| 23> C                  -2.72334300   -2.50211200    0.20230500
| 24> C                  -2.03232400   -3.69111800    0.03669800
| 25> C                  -2.95150100    0.00002700    0.25573900
| 26> C                  -2.12194400    1.25664400    0.04490400
| 27> C                  -0.76277500    1.21839100   -0.29974600
| 28> C                  -0.05979900    2.42062600   -0.46445200
| 29> H                   0.98853900    2.39418000   -0.72769700
| 30> C                  -0.68763400    3.64017500   -0.29798200
| 31> C                  -2.03222300    3.69114500    0.03667100
| 32> C                  -2.72327100    2.50215900    0.20230200
| 33> H                   0.98848800   -2.39424400   -0.72762000
| 34> H                  -3.77400100   -2.53816500    0.46614800
| 35> H                  -2.53643000   -4.63960100    0.16839000
| 36> H                  -0.11838100    4.55160600   -0.43221300
| 37> H                  -2.53629900    4.63964300    0.16836700
| 38> N                  -0.10559900   -0.00001400   -0.47542200
| 39> C                   1.28388500   -0.00002800   -0.81346900
| 40> C                   2.25084800   -0.00001600    0.22320200
| 41> C                   1.66241000   -0.00004700   -2.13014900
| 42> C                   1.90300100   -0.00000100    1.59151800
| 43> C                   3.63127600   -0.00001700   -0.14019800
| 44> C                   3.02280300   -0.00005300   -2.48019000
| 45> H                   0.89863100   -0.00005700   -2.89816200
| 46> C                   2.87379700    0.00001300    2.55784500
| 47> H                   0.85552600   -0.00000100    1.86857700
| 48> C                   4.60314900   -0.00000000    0.88437900
| 49> C                   3.98496300   -0.00003600   -1.50674700
| 50> H                   3.30290900   -0.00006900   -3.52569400
| 51> C                   4.23490800    0.00001400    2.20271100
| 52> H                   2.59410200    0.00002400    3.60380800
| 53> H                   5.64980500   -0.00000000    0.60349100
| 54> H                   5.03613600   -0.00003800   -1.76975100
| 55> H                   4.99056900    0.00002600    2.97810500
| 56> H                  -3.77392100    2.53824600    0.46617000
| 57> H                  -0.11849300   -4.55163500   -0.43212500
| 58> C                  -4.13028600    0.00004000   -0.72900200
| 59> H                  -3.78089100    0.00003500   -1.76199700
| 60> H                  -4.75878500   -0.87895200   -0.58567700
| 61> H                  -4.75876600    0.87904700   -0.58567900
| 62> C                  -3.50470800    0.00004200    1.68925000
| 63> H                  -4.12321100   -0.87935000    1.86946000
| 64> H                  -2.69638900    0.00001900    2.42182100
| 65> H                  -4.12316100    0.87947000    1.86945900
| 66> *
| 67>
| 68>
| 69>                          ****END OF INPUT****

CARTESIAN COORDINATES (ANGSTROEM)
---------------------------------
  C     -0.687726   -3.640187   -0.297921
  C     -0.059856   -2.420657   -0.464396
  C     -0.762803   -1.218402   -0.299724
  C     -2.121978   -1.256615    0.044913
  C     -2.723343   -2.502112    0.202305
  C     -2.032324   -3.691118    0.036698
  C     -2.951501    0.000027    0.255739
  C     -2.121944    1.256644    0.044904
  C     -0.762775    1.218391   -0.299746
  C     -0.059799    2.420626   -0.464452
  H      0.988539    2.394180   -0.727697
  C     -0.687634    3.640175   -0.297982
  C     -2.032223    3.691145    0.036671
  C     -2.723271    2.502159    0.202302
  H      0.988488   -2.394244   -0.727620
  H     -3.774001   -2.538165    0.466148
  H     -2.536430   -4.639601    0.168390
  H     -0.118381    4.551606   -0.432213
  H     -2.536299    4.639643    0.168367
  N     -0.105599   -0.000014   -0.475422
  C      1.283885   -0.000028   -0.813469
  C      2.250848   -0.000016    0.223202
  C      1.662410   -0.000047   -2.130149
  C      1.903001   -0.000001    1.591518
  C      3.631276   -0.000017   -0.140198
  C      3.022803   -0.000053   -2.480190
  H      0.898631   -0.000057   -2.898162
  C      2.873797    0.000013    2.557845
  H      0.855526   -0.000001    1.868577
  C      4.603149   -0.000000    0.884379
  C      3.984963   -0.000036   -1.506747
  H      3.302909   -0.000069   -3.525694
  C      4.234908    0.000014    2.202711
  H      2.594102    0.000024    3.603808
  H      5.649805   -0.000000    0.603491
  H      5.036136   -0.000038   -1.769751
  H      4.990569    0.000026    2.978105
  H     -3.773921    2.538246    0.466170
  H     -0.118493   -4.551635   -0.432125
  C     -4.130286    0.000040   -0.729002
  H     -3.780891    0.000035   -1.761997
  H     -4.758785   -0.878952   -0.585677
  H     -4.758766    0.879047   -0.585679
  C     -3.504708    0.000042    1.689250
  H     -4.123211   -0.879350    1.869460
  H     -2.696389    0.000019    2.421821
  H     -4.123161    0.879470    1.869459

 Total Charge           Charge          ....    0
 Multiplicity           Mult            ....    1
 Number of Electrons    NEL             ....  178
 Basis Dimension        Dim             ....  932

ORBITAL ENERGIES
----------------

  NO   OCC          E(Eh)            E(eV)
   0   2.0000     -15.114770      -411.2938
   1   2.0000     -10.874873      -295.9203
   2   2.0000     -10.874856      -295.9199
   3   2.0000     -10.868604      -295.7498
   4   2.0000     -10.842206      -295.0314
   5   2.0000     -10.841421      -295.0101
   6   2.0000     -10.840595      -294.9876
   7   2.0000     -10.831333      -294.7355
   8   2.0000     -10.830801      -294.7211
   9   2.0000     -10.829551      -294.6871
  10   2.0000     -10.829417      -294.6834
  11   2.0000     -10.829325      -294.6809
  12   2.0000     -10.828310      -294.6533
  13   2.0000     -10.828036      -294.6458
  14   2.0000     -10.828023      -294.6455
  15   2.0000     -10.827500      -294.6313
  16   2.0000     -10.823196      -294.5141
  17   2.0000     -10.823196      -294.5141
  18   2.0000     -10.822004      -294.4817
  19   2.0000     -10.822003      -294.4817
  20   2.0000     -10.818505      -294.3865
  21   2.0000     -10.818505      -294.3865
  22   2.0000     -10.814378      -294.2742
  23   2.0000     -10.814378      -294.2742
  24   2.0000     -10.801386      -293.9206
  25   2.0000     -10.801366      -293.9201
  26   2.0000      -1.176597       -32.0168
  27   2.0000      -1.069580       -29.1047
  28   2.0000      -1.042320       -28.3630
  29   2.0000      -1.040383       -28.3103
  30   2.0000      -1.004897       -27.3446
  31   2.0000      -0.987957       -26.8837
  32   2.0000      -0.949124       -25.8270
  33   2.0000      -0.924954       -25.1693
  34   2.0000      -0.913618       -24.8608
  35   2.0000      -0.910998       -24.7895
  36   2.0000      -0.896641       -24.3989
  37   2.0000      -0.889339       -24.2001
  38   2.0000      -0.860411       -23.4130
  39   2.0000      -0.834698       -22.7133
  40   2.0000      -0.785459       -21.3734
  41   2.0000      -0.769587       -20.9415
  42   2.0000      -0.766259       -20.8510
  43   2.0000      -0.760560       -20.6959
  44   2.0000      -0.743994       -20.2451
  45   2.0000      -0.728330       -19.8189
  46   2.0000      -0.700836       -19.0707
  47   2.0000      -0.670327       -18.2405
  48   2.0000      -0.660573       -17.9751
  49   2.0000      -0.647984       -17.6325
  50   2.0000      -0.638590       -17.3769
  51   2.0000      -0.617446       -16.8016
  52   2.0000      -0.601064       -16.3558
  53   2.0000      -0.580974       -15.8091
  54   2.0000      -0.575441       -15.6586
  55   2.0000      -0.566893       -15.4259
  56   2.0000      -0.563052       -15.3214
  57   2.0000      -0.560258       -15.2454
  58   2.0000      -0.541158       -14.7257
  59   2.0000      -0.537800       -14.6343
  60   2.0000      -0.533603       -14.5201
  61   2.0000      -0.526130       -14.3167
  62   2.0000      -0.523494       -14.2450
  63   2.0000      -0.520248       -14.1567
  64   2.0000      -0.517989       -14.0952
  65   2.0000      -0.504456       -13.7269
  66   2.0000      -0.487433       -13.2637
  67   2.0000      -0.486068       -13.2266
  68   2.0000      -0.481987       -13.1155
  69   2.0000      -0.477242       -12.9864
  70   2.0000      -0.475397       -12.9362
  71   2.0000      -0.464275       -12.6336
  72   2.0000      -0.460689       -12.5360
  73   2.0000      -0.449700       -12.2370
  74   2.0000      -0.441666       -12.0184
  75   2.0000      -0.439040       -11.9469
  76   2.0000      -0.429744       -11.6939
  77   2.0000      -0.426208       -11.5977
  78   2.0000      -0.413009       -11.2385
  79   2.0000      -0.405668       -11.0388
  80   2.0000      -0.402939       -10.9645
  81   2.0000      -0.397797       -10.8246
  82   2.0000      -0.355160        -9.6644
  83   2.0000      -0.315453        -8.5839
  84   2.0000      -0.305508        -8.3133
  85   2.0000      -0.300666        -8.1815
  86   2.0000      -0.298591        -8.1251
  87   2.0000      -0.269382        -7.3302
  88   2.0000      -0.239437        -6.5154
  89   0.0000       0.023261         0.6330
  90   0.0000       0.049866         1.3569
  91   0.0000       0.061996         1.6870
  92   0.0000       0.067904         1.8478
  93   0.0000       0.082198         2.2367

MULLIKEN ATOMIC CHARGES
-----------------------
   0 C :   -0.152816
   1 C :   -0.301935
   2 C :    0.216510
   3 C :   -0.174023
   4 C :   -0.214666
   5 C :   -0.231536
   6 C :    0.327331
   7 C :   -0.173229
   8 C :    0.217141
   9 C :   -0.302351
  10 H :    0.166844
  11 C :   -0.153167
  12 C :   -0.231792
  13 C :   -0.215564
  14 H :    0.166894
  15 H :    0.166034
  16 H :    0.154745
  17 H :    0.158243
  18 H :    0.154938
  19 N :    0.044228
  20 C :    0.253780
  21 C :    0.031591
  22 C :   -0.199301
  23 C :   -0.339299
  24 C :    0.087244
  25 C :   -0.123167
  26 H :    0.160527
  27 C :   -0.110275
  28 H :    0.173656
  29 C :   -0.200990
  30 C :   -0.264510
  31 H :    0.161890
  32 C :   -0.169596
  33 H :    0.162758
  34 H :    0.162802
  35 H :    0.161860
  36 H :    0.161731
  37 H :    0.166297
  38 H :    0.158201
  39 C :   -0.415633
  40 H :    0.125888
  41 H :    0.130307
  42 H :    0.130361
  43 C :   -0.416016
  44 H :    0.130795
  45 H :    0.126548
  46 H :    0.130721
Sum of atomic charges:    0.0000000

LOEWDIN ATOMIC CHARGES
----------------------
   0 C :   -0.152007
   1 C :   -0.129429
   2 C :   -0.123819
   3 C :   -0.070083
   4 C :   -0.105921
   5 C :   -0.175630
   6 C :   -0.233201
   7 C :   -0.070082
   8 C :   -0.123817
   9 C :   -0.129428
  10 H :    0.159453
  11 C :   -0.152013
  12 C :   -0.175628
  13 C :   -0.105921
  14 H :    0.159452
  15 H :    0.156569
  16 H :    0.146741
  17 H :    0.150422
  18 H :    0.146741
  19 N :    0.276941
  20 C :   -0.135149
  21 C :   -0.070248
  22 C :   -0.093204
  23 C :   -0.098878
  24 C :   -0.097733
  25 C :   -0.139565
  26 H :    0.159903
  27 C :   -0.139382
  28 H :    0.159474
  29 C :   -0.102053
  30 C :   -0.096836
  31 H :    0.153101
  32 C :   -0.143390
  33 H :    0.152019
  34 H :    0.156088
  35 H :    0.156902
  36 H :    0.151562
  37 H :    0.156569
  38 H :    0.150422
  39 C :   -0.230213
  40 H :    0.121722
  41 H :    0.121998
  42 H :    0.121995
  43 C :   -0.230202
  44 H :    0.121940
  45 H :    0.121879
  46 H :    0.121940

  Mayer bond orders larger than 0.100000
B(  0-C ,  1-C ) :   1.4274 B(  0-C ,  5-C ) :   1.3681 B(  0-C , 38-H ) :   0.9840
B(  1-C ,  2-C ) :   1.3665 B(  1-C , 14-H ) :   0.9809 B(  2-C ,  3-C ) :   1.2767
B(  2-C , 19-N ) :   1.1013 B(  3-C ,  4-C ) :   1.3595 B(  3-C ,  6-C ) :   0.9208
B(  4-C ,  5-C ) :   1.4393 B(  4-C , 15-H ) :   0.9732 B(  5-C , 16-H ) :   0.9949
B(  6-C ,  7-C ) :   0.9203 B(  6-C , 39-C ) :   0.8901 B(  6-C , 43-C ) :   0.8857
B(  7-C ,  8-C ) :   1.2775 B(  7-C , 13-C ) :   1.3585 B(  8-C ,  9-C ) :   1.3653
B(  8-C , 19-N ) :   1.1016 B(  9-C , 10-H ) :   0.9813 B(  9-C , 11-C ) :   1.4275
B( 11-C , 12-C ) :   1.3687 B( 11-C , 17-H ) :   0.9840 B( 12-C , 13-C ) :   1.4403
B( 12-C , 18-H ) :   0.9945 B( 13-C , 37-H ) :   0.9731 B( 19-N , 20-C ) :   0.6922
B( 20-C , 21-C ) :   1.1643 B( 20-C , 22-C ) :   1.6561 B( 20-C , 23-C ) :  -0.1095
B( 20-C , 24-C ) :  -0.1211 B( 21-C , 23-C ) :   1.2717 B( 21-C , 24-C ) :   1.2957
B( 22-C , 25-C ) :   1.2376 B( 22-C , 26-H ) :   0.9878 B( 23-C , 27-C ) :   1.5673
B( 23-C , 28-H ) :   0.9719 B( 24-C , 29-C ) :   1.2576 B( 24-C , 30-C ) :   1.2329
B( 25-C , 30-C ) :   1.5090 B( 25-C , 31-H ) :   0.9927 B( 27-C , 32-C ) :   1.2338
B( 27-C , 33-H ) :   0.9851 B( 29-C , 32-C ) :   1.5397 B( 29-C , 34-H ) :   0.9847
B( 30-C , 35-H ) :   0.9912 B( 32-C , 36-H ) :   0.9857 B( 39-C , 40-H ) :   0.9855
B( 39-C , 41-H ) :   0.9800 B( 39-C , 42-H ) :   0.9795 B( 43-C , 44-H ) :   0.9789
B( 43-C , 45-H ) :   0.9851 B( 43-C , 46-H ) :   0.9789

MP2 TOTAL ENERGY:    -1019.067156052 Eh

-----------------------------------------------------------------------------
         ABSORPTION SPECTRUM VIA TRANSITION ELECTRIC DIPOLE MOMENTS
-----------------------------------------------------------------------------
State   Energy    Wavelength  fosc         T2        TX        TY        TZ
        (cm-1)      (nm)                 (au**2)    (au)      (au)      (au)
-----------------------------------------------------------------------------
   1   36205.4    276.2   0.189576457   1.72380   1.28899  -0.00001  -0.24960
   2   15958.2    626.6   0.000470123   0.00970   0.00002   0.09848  -0.00001
   3   29575.5    338.1   0.149570082   1.66490  -0.00003  -1.29031  -0.00000
   4   28847.8    346.6   0.002183951   0.02492   0.14190  -0.00003  -0.06920
   5   25598.1    390.7   0.055045562   0.70793  -0.82434  -0.00001   0.16852
   6   27877.4    358.7   0.141686477   1.67322  -0.00000  -1.29353   0.00001
   7   23376.6    427.8   0.006539988   0.09210   0.00002   0.30348  -0.00001
   8   42574.9    234.9   0.914413183   7.07074  -1.35529  -0.00001  -2.28778
   9   45523.7    219.7   0.506858603   3.66543  -0.43170   0.00000  -1.86523
  10   45497.2    219.8   0.675821000   4.89015   2.06697  -0.00002  -0.78599
  11   47131.7    212.2   0.714723943   4.99230   0.00005   2.23435   0.00006
  12   49198.1    203.3   0.016503259   0.11043   0.30941   0.00005   0.12124
  13   40794.7    245.1   0.028032631   0.22622   0.05133   0.00021  -0.47285
  14   38655.0    258.7   0.374838544   3.19238  -0.00004  -1.78672  -0.00001
  15   39639.7    252.3   0.161753485   1.34338  -1.15798   0.00004   0.04964
  16   29380.2    340.4   0.014275316   0.15996   0.00044  -0.39995  -0.00013
  17   42228.8    236.8   0.456824899   3.56137   1.78121   0.00166  -0.62341
  18   29967.2    333.7   0.004432769   0.04870  -0.01272   0.22026   0.00446
  19   40387.0    247.6   0.018676512   0.15224   0.27481  -0.00002  -0.27698
  20   35984.7    277.9   0.006691370   0.06122   0.00029  -0.24742  -0.00011
  21   34684.6    288.3   0.026586139   0.25234  -0.06774  -0.00003   0.49775
  22   32660.5    306.2   0.008467219   0.08535   0.22599   0.00001  -0.18514
  23   36483.9    274.1   0.009593108   0.08656   0.29298   0.00006   0.02694
  24   36691.7    272.5   0.013732797   0.12322  -0.11798  -0.00002   0.33060
  25   43054.3    232.3   0.000657954   0.00503   0.06850  -0.00000   0.01839
  26   40278.1    248.3   0.169307722   1.38383  -0.00017   1.17636   0.00004
  27   40026.4    249.8   0.163859849   1.34773  -1.09301  -0.00017   0.39123
  28   39346.3    254.2   0.018876089   0.15794  -0.06089  -0.00044   0.39272
  29   54098.6    184.8   0.000068278   0.00042   0.00283  -0.00923  -0.01795
  30   49834.1    200.7   0.000018694   0.00012  -0.00071   0.01109  -0.00008

Dispersion correction           -0.047153542
FINAL SINGLE POINT ENERGY     -1016.911577373930

DIPOLE MOMENT
-------------
                                X             Y             Z
Electronic contribution:     12.16524      -0.00018      -3.07208
Nuclear contribution   :    -11.75410       0.00018       3.02396
                        -----------------------------------------
Total Dipole Moment    :      0.41114       0.00001      -0.04812
                        -----------------------------------------
Magnitude (a.u.)       :      0.41395
Magnitude (Debye)      :      1.05217

Rotational constants in cm-1:     0.010615     0.006095     0.004924
Rotational constants in MHz :   318.221091   182.736497   147.607039

                             ****ORCA TERMINATED NORMALLY****
TOTAL RUN TIME: 0 days 1 hours 5 minutes 10 seconds 653 msec
