                         Program Version 5.0.2 -  RELEASE  -
|  1> %maxcore 28800
|  2> %pal
|  3>  nprocs= 4
|  4> end
|  5> !STEOM-DLPNO-CCSD DEF2-TZVP DEF2-TZVP/C def2/J TightSCF TightPNO CPCM
|  6> %MDCI
|  7>    Dorootwise true
|  8>    OTHRESH 0.005
|  9>    VTHRESH 0.005
| 10>    TCutPNOSingles 1e-11
| 11>    DTol 1e-5
| 12>    NROOTS  25
| 13>    DOSOLV  TRUE
| 14>    MAXITER 500
| 15> END
| 16> %CPCM
| 17>    SMD          TRUE
| 18>    SMDsolvent   "N,N-DIMETHYLFORMAMIDE"
| 19> END
| 20>
| 21>
| 22> * xyz 0 1
| 23> C                  -0.68772600   -3.64018700   -0.29792100
| 24> C                  -0.05985600   -2.42065700   -0.46439600
| 25> C                  -0.76280300   -1.21840200   -0.29972400
| 26> C                  -2.12197800   -1.25661500    0.04491300
| 27> C                  -2.72334300   -2.50211200    0.20230500
| 28> C                  -2.03232400   -3.69111800    0.03669800
| 29> C                  -2.95150100    0.00002700    0.25573900
| 30> C                  -2.12194400    1.25664400    0.04490400
| 31> C                  -0.76277500    1.21839100   -0.29974600
| 32> C                  -0.05979900    2.42062600   -0.46445200
| 33> H                   0.98853900    2.39418000   -0.72769700
| 34> C                  -0.68763400    3.64017500   -0.29798200
| 35> C                  -2.03222300    3.69114500    0.03667100
| 36> C                  -2.72327100    2.50215900    0.20230200
| 37> H                   0.98848800   -2.39424400   -0.72762000
| 38> H                  -3.77400100   -2.53816500    0.46614800
| 39> H                  -2.53643000   -4.63960100    0.16839000
| 40> H                  -0.11838100    4.55160600   -0.43221300
| 41> H                  -2.53629900    4.63964300    0.16836700
| 42> N                  -0.10559900   -0.00001400   -0.47542200
| 43> C                   1.28388500   -0.00002800   -0.81346900
| 44> C                   2.25084800   -0.00001600    0.22320200
| 45> C                   1.66241000   -0.00004700   -2.13014900
| 46> C                   1.90300100   -0.00000100    1.59151800
| 47> C                   3.63127600   -0.00001700   -0.14019800
| 48> C                   3.02280300   -0.00005300   -2.48019000
| 49> H                   0.89863100   -0.00005700   -2.89816200
| 50> C                   2.87379700    0.00001300    2.55784500
| 51> H                   0.85552600   -0.00000100    1.86857700
| 52> C                   4.60314900   -0.00000000    0.88437900
| 53> C                   3.98496300   -0.00003600   -1.50674700
| 54> H                   3.30290900   -0.00006900   -3.52569400
| 55> C                   4.23490800    0.00001400    2.20271100
| 56> H                   2.59410200    0.00002400    3.60380800
| 57> H                   5.64980500   -0.00000000    0.60349100
| 58> H                   5.03613600   -0.00003800   -1.76975100
| 59> H                   4.99056900    0.00002600    2.97810500
| 60> H                  -3.77392100    2.53824600    0.46617000
| 61> H                  -0.11849300   -4.55163500   -0.43212500
| 62> C                  -4.13028600    0.00004000   -0.72900200
| 63> H                  -3.78089100    0.00003500   -1.76199700
| 64> H                  -4.75878500   -0.87895200   -0.58567700
| 65> H                  -4.75876600    0.87904700   -0.58567900
| 66> C                  -3.50470800    0.00004200    1.68925000
| 67> H                  -4.12321100   -0.87935000    1.86946000
| 68> H                  -2.69638900    0.00001900    2.42182100
| 69> H                  -4.12316100    0.87947000    1.86945900
| 70> *
| 71>
| 72>
| 73>                          ****END OF INPUT****

CARTESIAN COORDINATES (ANGSTROEM)
---------------------------------
  C     -0.687726   -3.640187   -0.297921
  C     -0.059856   -2.420657   -0.464396
  C     -0.762803   -1.218402   -0.299724
  C     -2.121978   -1.256615    0.044913
  C     -2.723343   -2.502112    0.202305
  C     -2.032324   -3.691118    0.036698
  C     -2.951501    0.000027    0.255739
  C     -2.121944    1.256644    0.044904
  C     -0.762775    1.218391   -0.299746
  C     -0.059799    2.420626   -0.464452
  H      0.988539    2.394180   -0.727697
  C     -0.687634    3.640175   -0.297982
  C     -2.032223    3.691145    0.036671
  C     -2.723271    2.502159    0.202302
  H      0.988488   -2.394244   -0.727620
  H     -3.774001   -2.538165    0.466148
  H     -2.536430   -4.639601    0.168390
  H     -0.118381    4.551606   -0.432213
  H     -2.536299    4.639643    0.168367
  N     -0.105599   -0.000014   -0.475422
  C      1.283885   -0.000028   -0.813469
  C      2.250848   -0.000016    0.223202
  C      1.662410   -0.000047   -2.130149
  C      1.903001   -0.000001    1.591518
  C      3.631276   -0.000017   -0.140198
  C      3.022803   -0.000053   -2.480190
  H      0.898631   -0.000057   -2.898162
  C      2.873797    0.000013    2.557845
  H      0.855526   -0.000001    1.868577
  C      4.603149   -0.000000    0.884379
  C      3.984963   -0.000036   -1.506747
  H      3.302909   -0.000069   -3.525694
  C      4.234908    0.000014    2.202711
  H      2.594102    0.000024    3.603808
  H      5.649805   -0.000000    0.603491
  H      5.036136   -0.000038   -1.769751
  H      4.990569    0.000026    2.978105
  H     -3.773921    2.538246    0.466170
  H     -0.118493   -4.551635   -0.432125
  C     -4.130286    0.000040   -0.729002
  H     -3.780891    0.000035   -1.761997
  H     -4.758785   -0.878952   -0.585677
  H     -4.758766    0.879047   -0.585679
  C     -3.504708    0.000042    1.689250
  H     -4.123211   -0.879350    1.869460
  H     -2.696389    0.000019    2.421821
  H     -4.123161    0.879470    1.869459

 Total Charge           Charge          ....    0
 Multiplicity           Mult            ....    1
 Number of Electrons    NEL             ....  178
 Basis Dimension        Dim             ....  932

ORBITAL ENERGIES
----------------

  NO   OCC          E(Eh)            E(eV)
   0   2.0000     -15.587280      -424.1515
   1   2.0000     -11.280581      -306.9602
   2   2.0000     -11.280562      -306.9597
   3   2.0000     -11.271803      -306.7214
   4   2.0000     -11.244181      -305.9697
   5   2.0000     -11.243711      -305.9569
   6   2.0000     -11.243140      -305.9414
   7   2.0000     -11.234738      -305.7128
   8   2.0000     -11.233734      -305.6855
   9   2.0000     -11.233026      -305.6662
  10   2.0000     -11.232692      -305.6571
  11   2.0000     -11.232332      -305.6473
  12   2.0000     -11.231402      -305.6220
  13   2.0000     -11.230562      -305.5991
  14   2.0000     -11.229756      -305.5772
  15   2.0000     -11.229736      -305.5767
  16   2.0000     -11.227737      -305.5222
  17   2.0000     -11.227737      -305.5222
  18   2.0000     -11.226336      -305.4841
  19   2.0000     -11.226335      -305.4841
  20   2.0000     -11.220785      -305.3331
  21   2.0000     -11.220785      -305.3331
  22   2.0000     -11.216898      -305.2273
  23   2.0000     -11.216898      -305.2273
  24   2.0000     -11.203485      -304.8623
  25   2.0000     -11.203467      -304.8618
  26   2.0000      -1.296416       -35.2773
  27   2.0000      -1.182622       -32.1808
  28   2.0000      -1.153796       -31.3964
  29   2.0000      -1.151106       -31.3232
  30   2.0000      -1.112450       -30.2713
  31   2.0000      -1.094435       -29.7811
  32   2.0000      -1.051982       -28.6259
  33   2.0000      -1.025625       -27.9087
  34   2.0000      -1.013643       -27.5826
  35   2.0000      -1.011765       -27.5315
  36   2.0000      -0.994782       -27.0694
  37   2.0000      -0.988263       -26.8920
  38   2.0000      -0.955593       -26.0030
  39   2.0000      -0.927226       -25.2311
  40   2.0000      -0.870545       -23.6887
  41   2.0000      -0.854282       -23.2462
  42   2.0000      -0.848983       -23.1020
  43   2.0000      -0.844155       -22.9706
  44   2.0000      -0.824746       -22.4425
  45   2.0000      -0.809759       -22.0347
  46   2.0000      -0.778187       -21.1755
  47   2.0000      -0.746383       -20.3101
  48   2.0000      -0.729291       -19.8450
  49   2.0000      -0.716992       -19.5103
  50   2.0000      -0.709805       -19.3148
  51   2.0000      -0.685311       -18.6483
  52   2.0000      -0.667403       -18.1610
  53   2.0000      -0.647046       -17.6070
  54   2.0000      -0.640434       -17.4271
  55   2.0000      -0.630794       -17.1648
  56   2.0000      -0.626441       -17.0463
  57   2.0000      -0.623235       -16.9591
  58   2.0000      -0.602974       -16.4078
  59   2.0000      -0.599479       -16.3126
  60   2.0000      -0.594981       -16.1903
  61   2.0000      -0.586848       -15.9689
  62   2.0000      -0.582438       -15.8489
  63   2.0000      -0.580721       -15.8022
  64   2.0000      -0.577341       -15.7102
  65   2.0000      -0.564185       -15.3522
  66   2.0000      -0.542386       -14.7591
  67   2.0000      -0.538434       -14.6515
  68   2.0000      -0.537734       -14.6325
  69   2.0000      -0.535750       -14.5785
  70   2.0000      -0.532466       -14.4891
  71   2.0000      -0.520809       -14.1719
  72   2.0000      -0.516500       -14.0547
  73   2.0000      -0.499652       -13.5962
  74   2.0000      -0.496826       -13.5193
  75   2.0000      -0.493199       -13.4206
  76   2.0000      -0.482976       -13.1425
  77   2.0000      -0.477877       -13.0037
  78   2.0000      -0.459806       -12.5120
  79   2.0000      -0.452094       -12.3021
  80   2.0000      -0.449481       -12.2310
  81   2.0000      -0.448009       -12.1910
  82   2.0000      -0.389039       -10.5863
  83   2.0000      -0.344165        -9.3652
  84   2.0000      -0.334199        -9.0940
  85   2.0000      -0.329800        -8.9743
  86   2.0000      -0.323027        -8.7900
  87   2.0000      -0.292795        -7.9673
  88   2.0000      -0.267238        -7.2719
  89   0.0000       0.076253         2.0749
  90   0.0000       0.101822         2.7707
  91   0.0000       0.115233         3.1357
  92   0.0000       0.123391         3.3576
  93   0.0000       0.138329         3.7641

E(0)                                       ...  -1013.766374564
E(0)                                       ...  -1013.766374564
E(CORR)(strong-pairs)                      ...     -4.168962065
E(CORR)(weak-pairs)                        ...     -0.009799073
E(CORR)(corrected)                         ...     -4.178761138
E(TOT)                                     ...  -1017.945135702

MULLIKEN ATOMIC CHARGES
-----------------------
   0 C :   -0.159863
   1 C :   -0.297582
   2 C :    0.137918
   3 C :   -0.071136
   4 C :   -0.233451
   5 C :   -0.222625
   6 C :    0.178373
   7 C :   -0.071131
   8 C :    0.137915
   9 C :   -0.297580
  10 H :    0.169548
  11 C :   -0.159863
  12 C :   -0.222627
  13 C :   -0.233450
  14 H :    0.169546
  15 H :    0.172814
  16 H :    0.163091
  17 H :    0.167685
  18 H :    0.163090
  19 N :    0.073774
  20 C :    0.197037
  21 C :    0.029523
  22 C :   -0.205507
  23 C :   -0.340091
  24 C :    0.110635
  25 C :   -0.121773
  26 H :    0.165074
  27 C :   -0.114818
  28 H :    0.170910
  29 C :   -0.201075
  30 C :   -0.261711
  31 H :    0.169211
  32 C :   -0.175930
  33 H :    0.170154
  34 H :    0.168674
  35 H :    0.167027
  36 H :    0.169681
  37 H :    0.172814
  38 H :    0.167685
  39 C :   -0.452354
  40 H :    0.147122
  41 H :    0.151883
  42 H :    0.151883
  43 C :   -0.451083
  44 H :    0.152009
  45 H :    0.146564
  46 H :    0.152009
Sum of atomic charges:    0.0000000

LOEWDIN ATOMIC CHARGES
----------------------
   0 C :   -0.159895
   1 C :   -0.131262
   2 C :   -0.134228
   3 C :   -0.071290
   4 C :   -0.114620
   5 C :   -0.175664
   6 C :   -0.236144
   7 C :   -0.071291
   8 C :   -0.134228
   9 C :   -0.131262
  10 H :    0.164515
  11 C :   -0.159895
  12 C :   -0.175664
  13 C :   -0.114620
  14 H :    0.164515
  15 H :    0.161737
  16 H :    0.152458
  17 H :    0.156061
  18 H :    0.152458
  19 N :    0.293890
  20 C :   -0.140587
  21 C :   -0.073330
  22 C :   -0.099607
  23 C :   -0.103915
  24 C :   -0.099388
  25 C :   -0.142163
  26 H :    0.165398
  27 C :   -0.143377
  28 H :    0.163910
  29 C :   -0.106910
  30 C :   -0.102148
  31 H :    0.158785
  32 C :   -0.146381
  33 H :    0.157574
  34 H :    0.161399
  35 H :    0.162231
  36 H :    0.157047
  37 H :    0.161737
  38 H :    0.156061
  39 C :   -0.248554
  40 H :    0.128964
  41 H :    0.129300
  42 H :    0.129300
  43 C :   -0.248372
  44 H :    0.129251
  45 H :    0.128954
  46 H :    0.129251

  Mayer bond orders larger than 0.100000
B(  0-C ,  1-C ) :   1.3154 B(  0-C ,  5-C ) :   1.2547 B(  0-C , 38-H ) :   0.9315
B(  1-C ,  2-C ) :   1.2629 B(  1-C , 14-H ) :   0.9329 B(  2-C ,  3-C ) :   1.2190
B(  2-C , 19-N ) :   1.0703 B(  3-C ,  4-C ) :   1.2641 B(  3-C ,  6-C ) :   0.8822
B(  4-C ,  5-C ) :   1.3223 B(  4-C , 15-H ) :   0.9258 B(  5-C , 16-H ) :   0.9429
B(  6-C ,  7-C ) :   0.8822 B(  6-C , 39-C ) :   0.8590 B(  6-C , 43-C ) :   0.8592
B(  7-C ,  8-C ) :   1.2190 B(  7-C , 13-C ) :   1.2641 B(  8-C ,  9-C ) :   1.2629
B(  8-C , 19-N ) :   1.0703 B(  9-C , 10-H ) :   0.9329 B(  9-C , 11-C ) :   1.3154
B( 11-C , 12-C ) :   1.2547 B( 11-C , 17-H ) :   0.9315 B( 12-C , 13-C ) :   1.3223
B( 12-C , 18-H ) :   0.9429 B( 13-C , 37-H ) :   0.9258 B( 19-N , 20-C ) :   0.6449
B( 20-C , 21-C ) :   1.1092 B( 20-C , 22-C ) :   1.5480 B( 20-C , 23-C ) :  -0.1112
B( 20-C , 24-C ) :  -0.1128 B( 21-C , 23-C ) :   1.2110 B( 21-C , 24-C ) :   1.2333
B( 22-C , 25-C ) :   1.1465 B( 22-C , 26-H ) :   0.9392 B( 23-C , 27-C ) :   1.4234
B( 23-C , 28-H ) :   0.9288 B( 24-C , 29-C ) :   1.1709 B( 24-C , 30-C ) :   1.1468
B( 25-C , 30-C ) :   1.3669 B( 25-C , 31-H ) :   0.9400 B( 27-C , 32-C ) :   1.1348
B( 27-C , 33-H ) :   0.9363 B( 29-C , 32-C ) :   1.3981 B( 29-C , 34-H ) :   0.9378
B( 30-C , 35-H ) :   0.9457 B( 32-C , 36-H ) :   0.9369 B( 39-C , 40-H ) :   0.9267
B( 39-C , 41-H ) :   0.9209 B( 39-C , 42-H ) :   0.9209 B( 43-C , 44-H ) :   0.9205
B( 43-C , 45-H ) :   0.9260 B( 43-C , 46-H ) :   0.9205

-----------------------------------------------------------------------------
         ABSORPTION SPECTRUM VIA TRANSITION ELECTRIC DIPOLE MOMENTS
-----------------------------------------------------------------------------
State   Energy  Wavelength   fosc         T2         TX        TY        TZ
        (cm-1)    (nm)                  (au**2)     (au)      (au)      (au)
-----------------------------------------------------------------------------
   1   26983.2    370.6   0.000373981   0.00456   0.00066   0.06753   0.00040
   2   31939.0    313.1   0.025415907   0.26198   0.50229   0.00060   0.09832
   3   32508.7    307.6   0.000326896   0.00331   0.02861   0.00007   0.04946
   4   32893.7    304.0   0.009318092   0.09326   0.00027   0.30538   0.00035
   5   35211.3    284.0   0.331085679   3.09552   0.00050   1.75941   0.00050
   6   38411.9    260.3   0.180018895   1.54286   1.22659   0.00094   0.19503
   7   35601.8    280.9   0.000161842   0.00150   0.00048   0.03868   0.00035
   8   46363.5    215.7   0.159403621   1.13187   0.96786   0.00497   0.44143
   9   46968.2    212.9   0.039956855   0.28007   0.37024   0.00096   0.37743
  10   47937.3    208.6   0.022694996   0.15586   0.25294   0.00055   0.30178
  11   48484.9    206.2   0.790199040   5.36545   0.96779   0.01788   2.09518
  12   48426.8    206.5   0.174282762   1.18480   0.00348   1.08842   0.00575
  13   48974.3    204.2   0.164521808   1.10594   0.95263   0.00473   0.29460
  14   50299.1    198.8   0.122273356   0.80029   0.37484   0.00189   0.80718
  15   44922.5    222.6   0.000781000   0.00572   0.00558   0.07541   0.00131
  16   51159.3    195.5   0.597412194   3.84437   1.81674   0.00044   0.73342
  17   46029.4    217.3   0.003524320   0.02521   0.03682   0.00285   0.15233
  18   51558.5    194.0   0.345538640   2.20634   0.00292   1.48537   0.00125
  19   51927.4    192.6   0.103622066   0.65695   0.03843   0.00054   0.78626
  20   51073.3    195.8   0.284482719   1.83374   0.00506   1.35403   0.01081
  21   50861.7    196.6   0.019282299   0.12481   0.12138   0.00054   0.33017
  22   51510.8    194.1   0.000592638   0.00379   0.03118   0.00205   0.03128
  23   58175.1    171.9   0.003635879   0.02058   0.00267   0.14193   0.00448

FINAL SINGLE POINT ENERGY     -1017.822191421873

DIPOLE MOMENT
-------------
                                X             Y             Z
Electronic contribution:     12.18866      -0.00018      -3.06600
Nuclear contribution   :    -11.75410       0.00018       3.02396
                        -----------------------------------------
Total Dipole Moment    :      0.43455      -0.00000      -0.04204
                        -----------------------------------------
Magnitude (a.u.)       :      0.43658
Magnitude (Debye)      :      1.10971

Rotational constants in cm-1:     0.010615     0.006095     0.004924
Rotational constants in MHz :   318.221091   182.736497   147.607039

                             ****ORCA TERMINATED NORMALLY****
TOTAL RUN TIME: 0 days 20 hours 55 minutes 57 seconds 309 msec
