                         Program Version 5.0.2 -  RELEASE  -
|  1> %maxcore 3200
|  2> %pal
|  3>  nprocs= 8
|  4> end
|  5> ! RI-B2PLYP D3BJ def2-TZVP def2/J def2-TZVP/C RIJCOSX CPCM TightSCF
|  6> %TDDFT DCORR 4
|  7>    NROOTS   30
|  8>
|  9>    TDA      FALSE
| 10> END
| 11>
| 12> %CPCM
| 13>    SMD          TRUE
| 14>    SMDsolvent   "N,N-DIMETHYLFORMAMIDE"
| 15> END
| 16>
| 17>
| 18> * xyz 0 1
| 19> C                  -0.68772600   -3.64018700   -0.29792100
| 20> C                  -0.05985600   -2.42065700   -0.46439600
| 21> C                  -0.76280300   -1.21840200   -0.29972400
| 22> C                  -2.12197800   -1.25661500    0.04491300
| 23> C                  -2.72334300   -2.50211200    0.20230500
| 24> C                  -2.03232400   -3.69111800    0.03669800
| 25> C                  -2.95150100    0.00002700    0.25573900
| 26> C                  -2.12194400    1.25664400    0.04490400
| 27> C                  -0.76277500    1.21839100   -0.29974600
| 28> C                  -0.05979900    2.42062600   -0.46445200
| 29> H                   0.98853900    2.39418000   -0.72769700
| 30> C                  -0.68763400    3.64017500   -0.29798200
| 31> C                  -2.03222300    3.69114500    0.03667100
| 32> C                  -2.72327100    2.50215900    0.20230200
| 33> H                   0.98848800   -2.39424400   -0.72762000
| 34> H                  -3.77400100   -2.53816500    0.46614800
| 35> H                  -2.53643000   -4.63960100    0.16839000
| 36> H                  -0.11838100    4.55160600   -0.43221300
| 37> H                  -2.53629900    4.63964300    0.16836700
| 38> N                  -0.10559900   -0.00001400   -0.47542200
| 39> C                   1.28388500   -0.00002800   -0.81346900
| 40> C                   2.25084800   -0.00001600    0.22320200
| 41> C                   1.66241000   -0.00004700   -2.13014900
| 42> C                   1.90300100   -0.00000100    1.59151800
| 43> C                   3.63127600   -0.00001700   -0.14019800
| 44> C                   3.02280300   -0.00005300   -2.48019000
| 45> H                   0.89863100   -0.00005700   -2.89816200
| 46> C                   2.87379700    0.00001300    2.55784500
| 47> H                   0.85552600   -0.00000100    1.86857700
| 48> C                   4.60314900   -0.00000000    0.88437900
| 49> C                   3.98496300   -0.00003600   -1.50674700
| 50> H                   3.30290900   -0.00006900   -3.52569400
| 51> C                   4.23490800    0.00001400    2.20271100
| 52> H                   2.59410200    0.00002400    3.60380800
| 53> H                   5.64980500   -0.00000000    0.60349100
| 54> H                   5.03613600   -0.00003800   -1.76975100
| 55> H                   4.99056900    0.00002600    2.97810500
| 56> H                  -3.77392100    2.53824600    0.46617000
| 57> H                  -0.11849300   -4.55163500   -0.43212500
| 58> C                  -4.13028600    0.00004000   -0.72900200
| 59> H                  -3.78089100    0.00003500   -1.76199700
| 60> H                  -4.75878500   -0.87895200   -0.58567700
| 61> H                  -4.75876600    0.87904700   -0.58567900
| 62> C                  -3.50470800    0.00004200    1.68925000
| 63> H                  -4.12321100   -0.87935000    1.86946000
| 64> H                  -2.69638900    0.00001900    2.42182100
| 65> H                  -4.12316100    0.87947000    1.86945900
| 66> *
| 67>
| 68>
| 69>                          ****END OF INPUT****

CARTESIAN COORDINATES (ANGSTROEM)
---------------------------------
  C     -0.687726   -3.640187   -0.297921
  C     -0.059856   -2.420657   -0.464396
  C     -0.762803   -1.218402   -0.299724
  C     -2.121978   -1.256615    0.044913
  C     -2.723343   -2.502112    0.202305
  C     -2.032324   -3.691118    0.036698
  C     -2.951501    0.000027    0.255739
  C     -2.121944    1.256644    0.044904
  C     -0.762775    1.218391   -0.299746
  C     -0.059799    2.420626   -0.464452
  H      0.988539    2.394180   -0.727697
  C     -0.687634    3.640175   -0.297982
  C     -2.032223    3.691145    0.036671
  C     -2.723271    2.502159    0.202302
  H      0.988488   -2.394244   -0.727620
  H     -3.774001   -2.538165    0.466148
  H     -2.536430   -4.639601    0.168390
  H     -0.118381    4.551606   -0.432213
  H     -2.536299    4.639643    0.168367
  N     -0.105599   -0.000014   -0.475422
  C      1.283885   -0.000028   -0.813469
  C      2.250848   -0.000016    0.223202
  C      1.662410   -0.000047   -2.130149
  C      1.903001   -0.000001    1.591518
  C      3.631276   -0.000017   -0.140198
  C      3.022803   -0.000053   -2.480190
  H      0.898631   -0.000057   -2.898162
  C      2.873797    0.000013    2.557845
  H      0.855526   -0.000001    1.868577
  C      4.603149   -0.000000    0.884379
  C      3.984963   -0.000036   -1.506747
  H      3.302909   -0.000069   -3.525694
  C      4.234908    0.000014    2.202711
  H      2.594102    0.000024    3.603808
  H      5.649805   -0.000000    0.603491
  H      5.036136   -0.000038   -1.769751
  H      4.990569    0.000026    2.978105
  H     -3.773921    2.538246    0.466170
  H     -0.118493   -4.551635   -0.432125
  C     -4.130286    0.000040   -0.729002
  H     -3.780891    0.000035   -1.761997
  H     -4.758785   -0.878952   -0.585677
  H     -4.758766    0.879047   -0.585679
  C     -3.504708    0.000042    1.689250
  H     -4.123211   -0.879350    1.869460
  H     -2.696389    0.000019    2.421821
  H     -4.123161    0.879470    1.869459

 Total Charge           Charge          ....    0
 Multiplicity           Mult            ....    1
 Number of Electrons    NEL             ....  178
 Basis Dimension        Dim             ....  932

ORBITAL ENERGIES
----------------

  NO   OCC          E(Eh)            E(eV)
   0   2.0000     -14.867808      -404.5736
   1   2.0000     -10.662149      -290.1318
   2   2.0000     -10.662133      -290.1314
   3   2.0000     -10.657149      -289.9958
   4   2.0000     -10.631640      -289.3016
   5   2.0000     -10.630204      -289.2625
   6   2.0000     -10.629483      -289.2429
   7   2.0000     -10.619948      -288.9835
   8   2.0000     -10.619616      -288.9744
   9   2.0000     -10.618302      -288.9387
  10   2.0000     -10.618157      -288.9347
  11   2.0000     -10.617987      -288.9301
  12   2.0000     -10.617175      -288.9080
  13   2.0000     -10.617165      -288.9078
  14   2.0000     -10.617102      -288.9060
  15   2.0000     -10.616327      -288.8849
  16   2.0000     -10.611313      -288.7485
  17   2.0000     -10.611313      -288.7485
  18   2.0000     -10.610158      -288.7171
  19   2.0000     -10.610157      -288.7171
  20   2.0000     -10.607525      -288.6454
  21   2.0000     -10.607524      -288.6454
  22   2.0000     -10.603315      -288.5309
  23   2.0000     -10.603314      -288.5309
  24   2.0000     -10.591010      -288.1960
  25   2.0000     -10.590992      -288.1956
  26   2.0000      -1.111980       -30.2585
  27   2.0000      -1.008292       -27.4370
  28   2.0000      -0.981815       -26.7166
  29   2.0000      -0.980323       -26.6759
  30   2.0000      -0.946471       -25.7548
  31   2.0000      -0.930081       -25.3088
  32   2.0000      -0.893164       -24.3042
  33   2.0000      -0.870110       -23.6769
  34   2.0000      -0.859134       -23.3782
  35   2.0000      -0.856083       -23.2952
  36   2.0000      -0.843173       -22.9439
  37   2.0000      -0.835400       -22.7324
  38   2.0000      -0.808471       -21.9996
  39   2.0000      -0.784181       -21.3386
  40   2.0000      -0.738641       -20.0994
  41   2.0000      -0.723010       -19.6741
  42   2.0000      -0.720638       -19.6096
  43   2.0000      -0.714532       -19.4434
  44   2.0000      -0.699427       -19.0324
  45   2.0000      -0.683439       -18.5973
  46   2.0000      -0.658058       -17.9067
  47   2.0000      -0.628259       -17.0958
  48   2.0000      -0.622054       -16.9269
  49   2.0000      -0.609635       -16.5890
  50   2.0000      -0.598830       -16.2950
  51   2.0000      -0.579498       -15.7689
  52   2.0000      -0.563943       -15.3457
  53   2.0000      -0.544147       -14.8070
  54   2.0000      -0.539054       -14.6684
  55   2.0000      -0.531036       -14.4502
  56   2.0000      -0.527574       -14.3560
  57   2.0000      -0.525048       -14.2873
  58   2.0000      -0.506517       -13.7830
  59   2.0000      -0.503415       -13.6986
  60   2.0000      -0.499215       -13.5843
  61   2.0000      -0.492143       -13.3919
  62   2.0000      -0.490150       -13.3377
  63   2.0000      -0.486277       -13.2323
  64   2.0000      -0.484587       -13.1863
  65   2.0000      -0.470994       -12.8164
  66   2.0000      -0.457480       -12.4487
  67   2.0000      -0.455391       -12.3918
  68   2.0000      -0.450299       -12.2533
  69   2.0000      -0.444510       -12.0957
  70   2.0000      -0.443346       -12.0641
  71   2.0000      -0.432566       -11.7707
  72   2.0000      -0.429297       -11.6818
  73   2.0000      -0.420973       -11.4553
  74   2.0000      -0.410652       -11.1744
  75   2.0000      -0.408556       -11.1174
  76   2.0000      -0.399891       -10.8816
  77   2.0000      -0.397001       -10.8030
  78   2.0000      -0.387638       -10.5482
  79   2.0000      -0.377439       -10.2706
  80   2.0000      -0.376176       -10.2363
  81   2.0000      -0.369403       -10.0520
  82   2.0000      -0.334576        -9.1043
  83   2.0000      -0.297622        -8.0987
  84   2.0000      -0.287767        -7.8305
  85   2.0000      -0.282812        -7.6957
  86   2.0000      -0.282636        -7.6909
  87   2.0000      -0.254576        -6.9274
  88   2.0000      -0.222529        -6.0553
  89   0.0000      -0.001296        -0.0353
  90   0.0000       0.025613         0.6970
  91   0.0000       0.037090         1.0093
  92   0.0000       0.042055         1.1444
  93   0.0000       0.055702         1.5157

MULLIKEN ATOMIC CHARGES
-----------------------
   0 C :   -0.158031
   1 C :   -0.277206
   2 C :    0.189982
   3 C :   -0.146540
   4 C :   -0.210479
   5 C :   -0.224880
   6 C :    0.300390
   7 C :   -0.145876
   8 C :    0.190451
   9 C :   -0.277493
  10 H :    0.164553
  11 C :   -0.158382
  12 C :   -0.225002
  13 C :   -0.211244
  14 H :    0.164578
  15 H :    0.160077
  16 H :    0.149816
  17 H :    0.153409
  18 H :    0.149966
  19 N :    0.050383
  20 C :    0.227742
  21 C :    0.017760
  22 C :   -0.189267
  23 C :   -0.312383
  24 C :    0.089092
  25 C :   -0.123252
  26 H :    0.155573
  27 C :   -0.114756
  28 H :    0.171712
  29 C :   -0.191761
  30 C :   -0.246720
  31 H :    0.157301
  32 C :   -0.164573
  33 H :    0.158384
  34 H :    0.157066
  35 H :    0.156125
  36 H :    0.157642
  37 H :    0.160277
  38 H :    0.153386
  39 C :   -0.415128
  40 H :    0.125566
  41 H :    0.130081
  42 H :    0.130124
  43 C :   -0.415709
  44 H :    0.130465
  45 H :    0.126373
  46 H :    0.130407
Sum of atomic charges:    0.0000000

LOEWDIN ATOMIC CHARGES
----------------------
   0 C :   -0.154189
   1 C :   -0.128671
   2 C :   -0.126579
   3 C :   -0.069203
   4 C :   -0.108119
   5 C :   -0.175190
   6 C :   -0.233515
   7 C :   -0.069202
   8 C :   -0.126578
   9 C :   -0.128670
  10 H :    0.159919
  11 C :   -0.154193
  12 C :   -0.175188
  13 C :   -0.108119
  14 H :    0.159918
  15 H :    0.156613
  16 H :    0.146950
  17 H :    0.150457
  18 H :    0.146950
  19 N :    0.284389
  20 C :   -0.135980
  21 C :   -0.070042
  22 C :   -0.094153
  23 C :   -0.098725
  24 C :   -0.097200
  25 C :   -0.139508
  26 H :    0.160192
  27 C :   -0.139760
  28 H :    0.159799
  29 C :   -0.102115
  30 C :   -0.097046
  31 H :    0.153391
  32 C :   -0.143461
  33 H :    0.152263
  34 H :    0.156293
  35 H :    0.157093
  36 H :    0.151846
  37 H :    0.156614
  38 H :    0.150457
  39 C :   -0.232994
  40 H :    0.122856
  41 H :    0.123112
  42 H :    0.123110
  43 C :   -0.232969
  44 H :    0.123062
  45 H :    0.123025
  46 H :    0.123062

  Mayer bond orders larger than 0.100000
B(  0-C ,  1-C ) :   1.4227 B(  0-C ,  5-C ) :   1.3652 B(  0-C , 38-H ) :   0.9842
B(  1-C ,  2-C ) :   1.3523 B(  1-C , 14-H ) :   0.9768 B(  2-C ,  3-C ) :   1.2773
B(  2-C , 19-N ) :   1.1040 B(  3-C ,  4-C ) :   1.3513 B(  3-C ,  6-C ) :   0.9240
B(  4-C ,  5-C ) :   1.4345 B(  4-C , 15-H ) :   0.9713 B(  5-C , 16-H ) :   0.9943
B(  6-C ,  7-C ) :   0.9236 B(  6-C , 39-C ) :   0.8922 B(  6-C , 43-C ) :   0.8879
B(  7-C ,  8-C ) :   1.2779 B(  7-C , 13-C ) :   1.3504 B(  8-C ,  9-C ) :   1.3514
B(  8-C , 19-N ) :   1.1042 B(  9-C , 10-H ) :   0.9771 B(  9-C , 11-C ) :   1.4228
B( 11-C , 12-C ) :   1.3657 B( 11-C , 17-H ) :   0.9842 B( 12-C , 13-C ) :   1.4353
B( 12-C , 18-H ) :   0.9939 B( 13-C , 37-H ) :   0.9713 B( 19-N , 20-C ) :   0.6952
B( 20-C , 21-C ) :   1.1569 B( 20-C , 22-C ) :   1.6311 B( 20-C , 24-C ) :  -0.1059
B( 21-C , 23-C ) :   1.2708 B( 21-C , 24-C ) :   1.2750 B( 22-C , 25-C ) :   1.2393
B( 22-C , 26-H ) :   0.9898 B( 23-C , 27-C ) :   1.5538 B( 23-C , 28-H ) :   0.9669
B( 24-C , 29-C ) :   1.2477 B( 24-C , 30-C ) :   1.2236 B( 25-C , 30-C ) :   1.5011
B( 25-C , 31-H ) :   0.9925 B( 27-C , 32-C ) :   1.2394 B( 27-C , 33-H ) :   0.9845
B( 29-C , 32-C ) :   1.5292 B( 29-C , 34-H ) :   0.9844 B( 30-C , 35-H ) :   0.9917
B( 32-C , 36-H ) :   0.9842 B( 39-C , 40-H ) :   0.9836 B( 39-C , 41-H ) :   0.9771
B( 39-C , 42-H ) :   0.9767 B( 43-C , 44-H ) :   0.9761 B( 43-C , 45-H ) :   0.9831
B( 43-C , 46-H ) :   0.9761

MP2 TOTAL ENERGY:    -1019.554165694 Eh

-----------------------------------------------------------------------------
         ABSORPTION SPECTRUM VIA TRANSITION ELECTRIC DIPOLE MOMENTS
-----------------------------------------------------------------------------
State   Energy    Wavelength  fosc         T2        TX        TY        TZ
        (cm-1)      (nm)                 (au**2)    (au)      (au)      (au)
-----------------------------------------------------------------------------
   1   26530.8    376.9   0.000379983   0.00472   0.00002   0.06867  -0.00000
   2   35477.9    281.9   0.176182246   1.63486   1.25490  -0.00001  -0.24513
   3   33121.8    301.9   0.150197789   1.49288   0.00002   1.22183   0.00000
   4   32812.6    304.8   0.076910808   0.77165   0.85712   0.00003  -0.19235
   5   34726.7    288.0   0.000198165   0.00188  -0.03515  -0.00001  -0.02536
   6   34237.7    292.1   0.216691334   2.08359   0.00000   1.44347  -0.00001
   7   36079.3    277.2   0.030814941   0.28118  -0.00002  -0.53026   0.00000
   8   43729.6    228.7   1.265949022   9.53052   1.41765   0.00000   2.74240
   9   46294.5    216.0   0.079698850   0.56676  -0.34644  -0.00003   0.66839
  10   42089.0    237.6   0.001157909   0.00906  -0.00011   0.09517  -0.00002
  11   47542.7    210.3   0.527458848   3.65242   1.82111  -0.00010  -0.57962
  12   42073.9    237.7   0.011105477   0.08690   0.00103  -0.29478  -0.00034
  13   46289.3    216.0   0.060552896   0.43066  -0.27963   0.00049   0.59368
  14   47444.9    210.8   0.740584040   5.13878  -0.00030  -2.26689   0.00013
  15   46389.0    215.6   0.042540536   0.30190   0.36223   0.00000  -0.41315
  16   45295.8    220.8   0.035464993   0.25776  -0.00006  -0.50770  -0.00007
  17   45142.3    221.5   0.005837437   0.04257   0.12004   0.00007  -0.16782
  18   46007.0    217.4   0.195101504   1.39609   1.11918   0.00001   0.37885
  19   46100.1    216.9   0.164949349   1.17794  -0.00005   1.08533  -0.00005
  20   46043.4    217.2   0.094585911   0.67629   0.47387   0.00004  -0.67212
  21   46938.0    213.0   0.011251321   0.07891  -0.27783  -0.00008   0.04152
  22   47295.2    211.4   0.217422105   1.51343   1.10635  -0.00002  -0.53799
  23   47769.2    209.3   0.017184874   0.11843  -0.30614   0.00001   0.15720
  24   49087.6    203.7   0.007185024   0.04819   0.21330  -0.00000   0.05186
  25   50080.9    199.7   0.000311780   0.00205   0.03750  -0.00002   0.02537
  26   49180.2    203.3   0.154518269   1.03434  -0.73947  -0.00004   0.69824
  27   50515.5    198.0   0.321946922   2.09814   0.00002  -1.44850   0.00000
  28   50288.3    198.9   0.277407806   1.81605  -1.32549   0.00004   0.24317
  29   48876.8    204.6   0.019512781   0.13143  -0.00006  -0.36253   0.00005
  30   50787.1    196.9   0.037551238   0.24341   0.44403   0.00001  -0.21505

Dispersion correction           -0.058378409
FINAL SINGLE POINT ENERGY     -1018.135386761636

DIPOLE MOMENT
-------------
                                X             Y             Z
Electronic contribution:     12.19368      -0.00018      -3.07307
Nuclear contribution   :    -11.75410       0.00018       3.02396
                        -----------------------------------------
Total Dipole Moment    :      0.43958       0.00000      -0.04911
                        -----------------------------------------
Magnitude (a.u.)       :      0.44232
Magnitude (Debye)      :      1.12428

Rotational constants in cm-1:     0.010615     0.006095     0.004924
Rotational constants in MHz :   318.221091   182.736497   147.607039

                             ****ORCA TERMINATED NORMALLY****
TOTAL RUN TIME: 0 days 1 hours 14 minutes 43 seconds 936 msec
