                         Program Version 5.0.2 -  RELEASE  -
|  1> %maxcore 3200
|  2> %pal
|  3>  nprocs= 8
|  4> end
|  5> ! RI-wB2PLYP def2-TZVP def2/J def2-TZVP/C RIJCOSX CPCM TightSCF
|  6> %TDDFT DCORR 1
|  7>    NROOTS   30
|  8>
|  9>    TDA      FALSE
| 10> END
| 11>
| 12> %CPCM
| 13>    SMD          TRUE
| 14>    SMDsolvent   "N,N-DIMETHYLFORMAMIDE"
| 15> END
| 16>
| 17>
| 18> * xyz 0 1
| 19> C                  -0.68772600   -3.64018700   -0.29792100
| 20> C                  -0.05985600   -2.42065700   -0.46439600
| 21> C                  -0.76280300   -1.21840200   -0.29972400
| 22> C                  -2.12197800   -1.25661500    0.04491300
| 23> C                  -2.72334300   -2.50211200    0.20230500
| 24> C                  -2.03232400   -3.69111800    0.03669800
| 25> C                  -2.95150100    0.00002700    0.25573900
| 26> C                  -2.12194400    1.25664400    0.04490400
| 27> C                  -0.76277500    1.21839100   -0.29974600
| 28> C                  -0.05979900    2.42062600   -0.46445200
| 29> H                   0.98853900    2.39418000   -0.72769700
| 30> C                  -0.68763400    3.64017500   -0.29798200
| 31> C                  -2.03222300    3.69114500    0.03667100
| 32> C                  -2.72327100    2.50215900    0.20230200
| 33> H                   0.98848800   -2.39424400   -0.72762000
| 34> H                  -3.77400100   -2.53816500    0.46614800
| 35> H                  -2.53643000   -4.63960100    0.16839000
| 36> H                  -0.11838100    4.55160600   -0.43221300
| 37> H                  -2.53629900    4.63964300    0.16836700
| 38> N                  -0.10559900   -0.00001400   -0.47542200
| 39> C                   1.28388500   -0.00002800   -0.81346900
| 40> C                   2.25084800   -0.00001600    0.22320200
| 41> C                   1.66241000   -0.00004700   -2.13014900
| 42> C                   1.90300100   -0.00000100    1.59151800
| 43> C                   3.63127600   -0.00001700   -0.14019800
| 44> C                   3.02280300   -0.00005300   -2.48019000
| 45> H                   0.89863100   -0.00005700   -2.89816200
| 46> C                   2.87379700    0.00001300    2.55784500
| 47> H                   0.85552600   -0.00000100    1.86857700
| 48> C                   4.60314900   -0.00000000    0.88437900
| 49> C                   3.98496300   -0.00003600   -1.50674700
| 50> H                   3.30290900   -0.00006900   -3.52569400
| 51> C                   4.23490800    0.00001400    2.20271100
| 52> H                   2.59410200    0.00002400    3.60380800
| 53> H                   5.64980500   -0.00000000    0.60349100
| 54> H                   5.03613600   -0.00003800   -1.76975100
| 55> H                   4.99056900    0.00002600    2.97810500
| 56> H                  -3.77392100    2.53824600    0.46617000
| 57> H                  -0.11849300   -4.55163500   -0.43212500
| 58> C                  -4.13028600    0.00004000   -0.72900200
| 59> H                  -3.78089100    0.00003500   -1.76199700
| 60> H                  -4.75878500   -0.87895200   -0.58567700
| 61> H                  -4.75876600    0.87904700   -0.58567900
| 62> C                  -3.50470800    0.00004200    1.68925000
| 63> H                  -4.12321100   -0.87935000    1.86946000
| 64> H                  -2.69638900    0.00001900    2.42182100
| 65> H                  -4.12316100    0.87947000    1.86945900
| 66> *
| 67>
| 68>
| 69>                          ****END OF INPUT****

CARTESIAN COORDINATES (ANGSTROEM)
---------------------------------
  C     -0.687726   -3.640187   -0.297921
  C     -0.059856   -2.420657   -0.464396
  C     -0.762803   -1.218402   -0.299724
  C     -2.121978   -1.256615    0.044913
  C     -2.723343   -2.502112    0.202305
  C     -2.032324   -3.691118    0.036698
  C     -2.951501    0.000027    0.255739
  C     -2.121944    1.256644    0.044904
  C     -0.762775    1.218391   -0.299746
  C     -0.059799    2.420626   -0.464452
  H      0.988539    2.394180   -0.727697
  C     -0.687634    3.640175   -0.297982
  C     -2.032223    3.691145    0.036671
  C     -2.723271    2.502159    0.202302
  H      0.988488   -2.394244   -0.727620
  H     -3.774001   -2.538165    0.466148
  H     -2.536430   -4.639601    0.168390
  H     -0.118381    4.551606   -0.432213
  H     -2.536299    4.639643    0.168367
  N     -0.105599   -0.000014   -0.475422
  C      1.283885   -0.000028   -0.813469
  C      2.250848   -0.000016    0.223202
  C      1.662410   -0.000047   -2.130149
  C      1.903001   -0.000001    1.591518
  C      3.631276   -0.000017   -0.140198
  C      3.022803   -0.000053   -2.480190
  H      0.898631   -0.000057   -2.898162
  C      2.873797    0.000013    2.557845
  H      0.855526   -0.000001    1.868577
  C      4.603149   -0.000000    0.884379
  C      3.984963   -0.000036   -1.506747
  H      3.302909   -0.000069   -3.525694
  C      4.234908    0.000014    2.202711
  H      2.594102    0.000024    3.603808
  H      5.649805   -0.000000    0.603491
  H      5.036136   -0.000038   -1.769751
  H      4.990569    0.000026    2.978105
  H     -3.773921    2.538246    0.466170
  H     -0.118493   -4.551635   -0.432125
  C     -4.130286    0.000040   -0.729002
  H     -3.780891    0.000035   -1.761997
  H     -4.758785   -0.878952   -0.585677
  H     -4.758766    0.879047   -0.585679
  C     -3.504708    0.000042    1.689250
  H     -4.123211   -0.879350    1.869460
  H     -2.696389    0.000019    2.421821
  H     -4.123161    0.879470    1.869459

 Total Charge           Charge          ....    0
 Multiplicity           Mult            ....    1
 Number of Electrons    NEL             ....  178
 Basis Dimension        Dim             ....  932

ORBITAL ENERGIES
----------------

  NO   OCC          E(Eh)            E(eV)
   0   2.0000     -14.938787      -406.5051
   1   2.0000     -10.735604      -292.1306
   2   2.0000     -10.735585      -292.1301
   3   2.0000     -10.729222      -291.9570
   4   2.0000     -10.702988      -291.2431
   5   2.0000     -10.702346      -291.2256
   6   2.0000     -10.701595      -291.2052
   7   2.0000     -10.691717      -290.9364
   8   2.0000     -10.691340      -290.9261
   9   2.0000     -10.689827      -290.8850
  10   2.0000     -10.689777      -290.8836
  11   2.0000     -10.689649      -290.8801
  12   2.0000     -10.689289      -290.8703
  13   2.0000     -10.689279      -290.8701
  14   2.0000     -10.688732      -290.8552
  15   2.0000     -10.687772      -290.8291
  16   2.0000     -10.683504      -290.7129
  17   2.0000     -10.683503      -290.7129
  18   2.0000     -10.682573      -290.6876
  19   2.0000     -10.682572      -290.6876
  20   2.0000     -10.679196      -290.5957
  21   2.0000     -10.679195      -290.5957
  22   2.0000     -10.674798      -290.4760
  23   2.0000     -10.674798      -290.4760
  24   2.0000     -10.660936      -290.0988
  25   2.0000     -10.660923      -290.0985
  26   2.0000      -1.196063       -32.5465
  27   2.0000      -1.093159       -29.7464
  28   2.0000      -1.066434       -29.0192
  29   2.0000      -1.064570       -28.9684
  30   2.0000      -1.029720       -28.0201
  31   2.0000      -1.013595       -27.5813
  32   2.0000      -0.974912       -26.5287
  33   2.0000      -0.951536       -25.8926
  34   2.0000      -0.939724       -25.5712
  35   2.0000      -0.937179       -25.5019
  36   2.0000      -0.923410       -25.1273
  37   2.0000      -0.915692       -24.9173
  38   2.0000      -0.887636       -24.1538
  39   2.0000      -0.863401       -23.4943
  40   2.0000      -0.816375       -22.2147
  41   2.0000      -0.799759       -21.7625
  42   2.0000      -0.797417       -21.6988
  43   2.0000      -0.790940       -21.5226
  44   2.0000      -0.775511       -21.1027
  45   2.0000      -0.759035       -20.6544
  46   2.0000      -0.732792       -19.9403
  47   2.0000      -0.701981       -19.1019
  48   2.0000      -0.696952       -18.9650
  49   2.0000      -0.683048       -18.5867
  50   2.0000      -0.671166       -18.2634
  51   2.0000      -0.651946       -17.7403
  52   2.0000      -0.635722       -17.2989
  53   2.0000      -0.613785       -16.7019
  54   2.0000      -0.609774       -16.5928
  55   2.0000      -0.601816       -16.3762
  56   2.0000      -0.598821       -16.2948
  57   2.0000      -0.594947       -16.1893
  58   2.0000      -0.577211       -15.7067
  59   2.0000      -0.573290       -15.6000
  60   2.0000      -0.568171       -15.4607
  61   2.0000      -0.560802       -15.2602
  62   2.0000      -0.558563       -15.1993
  63   2.0000      -0.554398       -15.0859
  64   2.0000      -0.552732       -15.0406
  65   2.0000      -0.537618       -14.6293
  66   2.0000      -0.529886       -14.4189
  67   2.0000      -0.525069       -14.2878
  68   2.0000      -0.518473       -14.1084
  69   2.0000      -0.510497       -13.8913
  70   2.0000      -0.508861       -13.8468
  71   2.0000      -0.497700       -13.5431
  72   2.0000      -0.494535       -13.4570
  73   2.0000      -0.490509       -13.3474
  74   2.0000      -0.475079       -12.9275
  75   2.0000      -0.473174       -12.8757
  76   2.0000      -0.463282       -12.6066
  77   2.0000      -0.460486       -12.5305
  78   2.0000      -0.454841       -12.3769
  79   2.0000      -0.443218       -12.0606
  80   2.0000      -0.440388       -11.9836
  81   2.0000      -0.431573       -11.7437
  82   2.0000      -0.396256       -10.7827
  83   2.0000      -0.355529        -9.6744
  84   2.0000      -0.344774        -9.3818
  85   2.0000      -0.340080        -9.2540
  86   2.0000      -0.336880        -9.1670
  87   2.0000      -0.307132        -8.3575
  88   2.0000      -0.275790        -7.5046
  89   0.0000       0.038894         1.0584
  90   0.0000       0.065414         1.7800
  91   0.0000       0.078314         2.1310
  92   0.0000       0.083872         2.2823
  93   0.0000       0.099254         2.7008

MULLIKEN ATOMIC CHARGES
-----------------------
   0 C :   -0.175233
   1 C :   -0.289738
   2 C :    0.189756
   3 C :   -0.157705
   4 C :   -0.201741
   5 C :   -0.248920
   6 C :    0.225477
   7 C :   -0.157068
   8 C :    0.190482
   9 C :   -0.290198
  10 H :    0.189552
  11 C :   -0.175695
  12 C :   -0.249225
  13 C :   -0.202608
  14 H :    0.189586
  15 H :    0.184867
  16 H :    0.172079
  17 H :    0.176113
  18 H :    0.172345
  19 N :    0.018242
  20 C :    0.090368
  21 C :    0.045396
  22 C :   -0.185622
  23 C :   -0.320122
  24 C :    0.076305
  25 C :   -0.143717
  26 H :    0.178252
  27 C :   -0.141459
  28 H :    0.194204
  29 C :   -0.195722
  30 C :   -0.239344
  31 H :    0.179769
  32 C :   -0.189657
  33 H :    0.180623
  34 H :    0.179745
  35 H :    0.179472
  36 H :    0.179563
  37 H :    0.185215
  38 H :    0.176062
  39 C :   -0.436829
  40 H :    0.145704
  41 H :    0.147826
  42 H :    0.147882
  43 C :   -0.436981
  44 H :    0.148388
  45 H :    0.146023
  46 H :    0.148288
Sum of atomic charges:    0.0000000

LOEWDIN ATOMIC CHARGES
----------------------
   0 C :   -0.155358
   1 C :   -0.132378
   2 C :   -0.127230
   3 C :   -0.072657
   4 C :   -0.109563
   5 C :   -0.178431
   6 C :   -0.238563
   7 C :   -0.072656
   8 C :   -0.127227
   9 C :   -0.132377
  10 H :    0.163703
  11 C :   -0.155364
  12 C :   -0.178429
  13 C :   -0.109563
  14 H :    0.163702
  15 H :    0.160725
  16 H :    0.151158
  17 H :    0.154871
  18 H :    0.151158
  19 N :    0.280730
  20 C :   -0.141825
  21 C :   -0.072372
  22 C :   -0.096634
  23 C :   -0.102628
  24 C :   -0.099736
  25 C :   -0.142954
  26 H :    0.164593
  27 C :   -0.142613
  28 H :    0.163477
  29 C :   -0.105185
  30 C :   -0.099622
  31 H :    0.157536
  32 C :   -0.146952
  33 H :    0.156433
  34 H :    0.160492
  35 H :    0.161346
  36 H :    0.155955
  37 H :    0.160725
  38 H :    0.154871
  39 C :   -0.241646
  40 H :    0.127073
  41 H :    0.126985
  42 H :    0.126982
  43 C :   -0.241556
  44 H :    0.126926
  45 H :    0.127151
  46 H :    0.126926

  Mayer bond orders larger than 0.100000
B(  0-C ,  1-C ) :   1.4366 B(  0-C ,  5-C ) :   1.3749 B(  0-C , 38-H ) :   0.9756
B(  1-C ,  2-C ) :   1.3452 B(  1-C , 14-H ) :   0.9680 B(  2-C ,  3-C ) :   1.3204
B(  2-C , 19-N ) :   1.1010 B(  3-C ,  4-C ) :   1.3732 B(  3-C ,  6-C ) :   0.9005
B(  4-C ,  5-C ) :   1.4512 B(  4-C , 15-H ) :   0.9568 B(  5-C , 16-H ) :   0.9850
B(  6-C ,  7-C ) :   0.9000 B(  6-C , 39-C ) :   0.9424 B(  6-C , 43-C ) :   0.9404
B(  7-C ,  8-C ) :   1.3212 B(  7-C , 13-C ) :   1.3724 B(  8-C ,  9-C ) :   1.3438
B(  8-C , 19-N ) :   1.1014 B(  9-C , 10-H ) :   0.9683 B(  9-C , 11-C ) :   1.4370
B( 11-C , 12-C ) :   1.3757 B( 11-C , 17-H ) :   0.9756 B( 12-C , 13-C ) :   1.4524
B( 12-C , 18-H ) :   0.9843 B( 13-C , 37-H ) :   0.9566 B( 19-N , 20-C ) :   0.7111
B( 20-C , 21-C ) :   1.1334 B( 20-C , 22-C ) :   1.6710 B( 21-C , 23-C ) :   1.2503
B( 21-C , 24-C ) :   1.2745 B( 22-C , 25-C ) :   1.2317 B( 22-C , 26-H ) :   0.9789
B( 23-C , 27-C ) :   1.5844 B( 23-C , 28-H ) :   0.9564 B( 24-C , 29-C ) :   1.2428
B( 24-C , 30-C ) :   1.2267 B( 25-C , 30-C ) :   1.5342 B( 25-C , 31-H ) :   0.9841
B( 27-C , 32-C ) :   1.2370 B( 27-C , 33-H ) :   0.9766 B( 29-C , 32-C ) :   1.5554
B( 29-C , 34-H ) :   0.9686 B( 30-C , 35-H ) :   0.9710 B( 32-C , 36-H ) :   0.9780
B( 39-C , 40-H ) :   0.9806 B( 39-C , 41-H ) :   0.9748 B( 39-C , 42-H ) :   0.9743
B( 43-C , 44-H ) :   0.9737 B( 43-C , 45-H ) :   0.9797 B( 43-C , 46-H ) :   0.9738

MP2 TOTAL ENERGY:    -1018.368299913 Eh

-----------------------------------------------------------------------------
         ABSORPTION SPECTRUM VIA TRANSITION ELECTRIC DIPOLE MOMENTS
-----------------------------------------------------------------------------
State   Energy    Wavelength  fosc         T2        TX        TY        TZ
        (cm-1)      (nm)                 (au**2)    (au)      (au)      (au)
-----------------------------------------------------------------------------
   1   37573.6    266.1   0.200917450   1.76040   1.30413  -0.00001  -0.24424
   2   36333.5    275.2   0.002441224   0.02212   0.12460   0.00001  -0.08120
   3   36827.2    271.5   0.177699020   1.58852   0.00001   1.26036   0.00001
   4   34466.0    290.1   0.025962598   0.24799  -0.00221  -0.49798   0.00045
   5   36232.0    276.0   0.082414530   0.74884  -0.84821   0.00126   0.17141
   6   38395.7    260.4   0.191962033   1.64592   0.00000   1.28293  -0.00001
   7   46315.7    215.9   1.324222728   9.41257   1.39367   0.00001   2.73318
   8   48128.0    207.8   0.199209982   1.36266   0.03747  -0.00001   1.16673
   9   43653.3    229.1   0.008165766   0.06158   0.00004   0.24816   0.00000
  10   50190.0    199.2   0.750232916   4.92101  -2.07336   0.00001   0.78878
  11   50549.7    197.8   0.773077327   5.03477  -0.00001  -2.24383  -0.00006
  12   51304.7    194.9   0.064926755   0.41662  -0.64485  -0.00012   0.02808
  13   50453.4    198.2   0.037240776   0.24300   0.13521   0.00027  -0.47404
  14   50473.3    198.1   0.575142801   3.75137  -0.00001  -1.93684  -0.00002
  15   51075.2    195.8   0.248119982   1.59929   1.26009  -0.00001  -0.10706
  16   53103.1    188.3   0.654407139   4.05699  -1.89697   0.00005   0.67713
  17   52375.0    190.9   0.021079048   0.13250   0.32764  -0.00001  -0.15857
  18   51702.5    193.4   0.017583922   0.11196   0.00006   0.33461  -0.00004
  19   53721.6    186.1   0.013426390   0.08228  -0.08634  -0.00000   0.27354
  20   55247.6    181.0   0.007140596   0.04255  -0.00006   0.20628   0.00003
  21   53987.7    185.2   0.001049776   0.00640  -0.00004  -0.08001   0.00000
  22   56911.7    175.7   0.000878440   0.00508  -0.06180  -0.00002  -0.03554
  23   55729.0    179.4   0.007683844   0.04539  -0.20573  -0.00005   0.05539
  24   55382.2    180.6   0.014175265   0.08426  -0.07595  -0.00003  -0.28017
  25   56125.7    178.2   0.048131269   0.28232  -0.31991  -0.00011   0.42424
  26   59163.4    169.0   0.063075864   0.35098   0.00011  -0.59244  -0.00006
  27   56902.7    175.7   0.087877735   0.50842   0.70678  -0.00035  -0.09420
  28   57992.8    172.4   0.091140170   0.51738  -0.00036  -0.71929   0.00005
  29   59425.9    168.3   0.025147441   0.13931   0.33800  -0.00002  -0.15833
  30   58770.7    170.2   0.001999937   0.01120   0.00001   0.10584  -0.00002

FINAL SINGLE POINT ENERGY     -1016.976466186542

DIPOLE MOMENT
-------------
                                X             Y             Z
Electronic contribution:     12.16670      -0.00017      -3.07099
Nuclear contribution   :    -11.75410       0.00018       3.02396
                        -----------------------------------------
Total Dipole Moment    :      0.41260       0.00001      -0.04703
                        -----------------------------------------
Magnitude (a.u.)       :      0.41527
Magnitude (Debye)      :      1.05553

Rotational constants in cm-1:     0.010615     0.006095     0.004924
Rotational constants in MHz :   318.221091   182.736497   147.607039

                             ****ORCA TERMINATED NORMALLY****
TOTAL RUN TIME: 0 days 1 hours 8 minutes 0 seconds 698 msec
