                         Program Version 5.0.2 -  RELEASE  -
|  1> %maxcore 38400
|  2> %pal
|  3>  nprocs= 4
|  4> end
|  5> !STEOM-DLPNO-CCSD DEF2-TZVP DEF2-TZVP/C def2/J TightSCF TightPNO CPCM
|  6> %MDCI
|  7>    Dorootwise true
|  8>    OTHRESH 0.005
|  9>    VTHRESH 0.005
| 10>    TCutPNOSingles 1e-11
| 11>    DTol 1e-5
| 12>    NROOTS  25
| 13>    DOSOLV  TRUE
| 14>    MAXITER 500
| 15> END
| 16> %CPCM
| 17>    SMD          TRUE
| 18>    SMDsolvent   "N,N-DIMETHYLACETAMIDE"
| 19> END
| 20>
| 21>
| 22> * xyz 0 1
| 23> C                  -1.77287600   -1.35290100    0.04927200
| 24> C                  -0.38655800   -1.33546100    0.05687600
| 25> C                   0.31713100   -0.13550500    0.01799500
| 26> C                  -0.42657000    1.05026400   -0.02028800
| 27> C                  -1.80223600    1.03245700   -0.02356400
| 28> C                  -2.51487900   -0.17444200    0.00877600
| 29> C                   1.55242600    2.33240000   -0.07729200
| 30> C                   2.33607700    1.17268300   -0.03649500
| 31> C                   3.72042600    1.31510000   -0.05766600
| 32> H                   4.34163800    0.42960600   -0.03043400
| 33> C                   4.30568100    2.57480400   -0.11330800
| 34> C                   3.51783900    3.71078700   -0.15074400
| 35> C                   2.13280100    3.58226600   -0.13349100
| 36> H                   0.16140500   -2.26725900    0.10139500
| 37> H                  -2.31851800    1.98254400   -0.07522300
| 38> H                   5.38485300    2.65502700   -0.12756000
| 39> N                   1.70692600   -0.07105400    0.01957700
| 40> C                   2.48271500   -1.27074200    0.04991400
| 41> C                   2.91959600   -1.77718600    1.26655200
| 42> C                   2.79262400   -1.92192700   -1.13659900
| 43> C                   3.67201600   -2.94187600    1.29384600
| 44> C                   3.54287700   -3.08775400   -1.10284700
| 45> H                   2.44196000   -1.51143200   -2.07565800
| 46> C                   3.98307700   -3.59737100    0.11078900
| 47> H                   3.78475800   -3.59804000   -2.02652800
| 48> H                   4.56955800   -4.50706000    0.13448500
| 49> H                   1.48616700    4.44991500   -0.16340800
| 50> H                  -2.27814100   -2.30859900    0.10115700
| 51> C                  -3.98532100   -0.18604700    0.00710000
| 52> C                  -4.72060700    0.88578800    0.52629200
| 53> C                  -4.69910300   -1.27190800   -0.51359100
| 54> C                  -6.10566800    0.87166200    0.52639000
| 55> H                  -4.19959600    1.73310000    0.95507400
| 56> C                  -6.08380400   -1.28632600   -0.51190300
| 57> H                  -4.16086900   -2.10705400   -0.94474000
| 58> C                  -6.79677700   -0.21450900    0.00781700
| 59> H                  -6.64843700    1.71203100    0.94169500
| 60> H                  -6.60963400   -2.13690300   -0.92821800
| 61> O                   0.18029500    2.28110200   -0.06225700
| 62> H                   3.96561100    4.69459300   -0.19412300
| 63> H                  -7.87940400   -0.22533900    0.00766700
| 64> H                   4.01447300   -3.33805600    2.24136100
| 65> H                   2.66800800   -1.25404800    2.18107200
| 66> *
| 67>
| 68>
| 69>                          ****END OF INPUT****

CARTESIAN COORDINATES (ANGSTROEM)
---------------------------------
  C     -1.772876   -1.352901    0.049272
  C     -0.386558   -1.335461    0.056876
  C      0.317131   -0.135505    0.017995
  C     -0.426570    1.050264   -0.020288
  C     -1.802236    1.032457   -0.023564
  C     -2.514879   -0.174442    0.008776
  C      1.552426    2.332400   -0.077292
  C      2.336077    1.172683   -0.036495
  C      3.720426    1.315100   -0.057666
  H      4.341638    0.429606   -0.030434
  C      4.305681    2.574804   -0.113308
  C      3.517839    3.710787   -0.150744
  C      2.132801    3.582266   -0.133491
  H      0.161405   -2.267259    0.101395
  H     -2.318518    1.982544   -0.075223
  H      5.384853    2.655027   -0.127560
  N      1.706926   -0.071054    0.019577
  C      2.482715   -1.270742    0.049914
  C      2.919596   -1.777186    1.266552
  C      2.792624   -1.921927   -1.136599
  C      3.672016   -2.941876    1.293846
  C      3.542877   -3.087754   -1.102847
  H      2.441960   -1.511432   -2.075658
  C      3.983077   -3.597371    0.110789
  H      3.784758   -3.598040   -2.026528
  H      4.569558   -4.507060    0.134485
  H      1.486167    4.449915   -0.163408
  H     -2.278141   -2.308599    0.101157
  C     -3.985321   -0.186047    0.007100
  C     -4.720607    0.885788    0.526292
  C     -4.699103   -1.271908   -0.513591
  C     -6.105668    0.871662    0.526390
  H     -4.199596    1.733100    0.955074
  C     -6.083804   -1.286326   -0.511903
  H     -4.160869   -2.107054   -0.944740
  C     -6.796777   -0.214509    0.007817
  H     -6.648437    1.712031    0.941695
  H     -6.609634   -2.136903   -0.928218
  O      0.180295    2.281102   -0.062257
  H      3.965611    4.694593   -0.194123
  H     -7.879404   -0.225339    0.007667
  H      4.014473   -3.338056    2.241361
  H      2.668008   -1.254048    2.181072

 Total Charge           Charge          ....    0
 Multiplicity           Mult            ....    1
 Number of Electrons    NEL             ....  176
 Basis Dimension        Dim             ....  908

ORBITAL ENERGIES
----------------

  NO   OCC          E(Eh)            E(eV)
   0   2.0000     -20.601548      -560.5966
   1   2.0000     -15.593510      -424.3210
   2   2.0000     -11.300679      -307.5071
   3   2.0000     -11.299936      -307.4869
   4   2.0000     -11.287736      -307.1549
   5   2.0000     -11.287645      -307.1524
   6   2.0000     -11.272776      -306.7478
   7   2.0000     -11.243553      -305.9526
   8   2.0000     -11.239989      -305.8556
   9   2.0000     -11.234454      -305.7050
  10   2.0000     -11.234291      -305.7006
  11   2.0000     -11.233590      -305.6815
  12   2.0000     -11.232828      -305.6608
  13   2.0000     -11.232655      -305.6561
  14   2.0000     -11.232150      -305.6423
  15   2.0000     -11.232134      -305.6419
  16   2.0000     -11.231058      -305.6126
  17   2.0000     -11.230430      -305.5955
  18   2.0000     -11.229577      -305.5723
  19   2.0000     -11.229464      -305.5692
  20   2.0000     -11.229228      -305.5628
  21   2.0000     -11.228885      -305.5535
  22   2.0000     -11.227662      -305.5202
  23   2.0000     -11.227545      -305.5170
  24   2.0000     -11.226565      -305.4904
  25   2.0000     -11.226002      -305.4751
  26   2.0000      -1.441298       -39.2197
  27   2.0000      -1.295973       -35.2652
  28   2.0000      -1.177987       -32.0547
  29   2.0000      -1.161024       -31.5931
  30   2.0000      -1.155251       -31.4360
  31   2.0000      -1.130215       -30.7547
  32   2.0000      -1.057951       -28.7883
  33   2.0000      -1.041412       -28.3383
  34   2.0000      -1.031363       -28.0648
  35   2.0000      -1.021866       -27.8064
  36   2.0000      -1.015821       -27.6419
  37   2.0000      -1.008093       -27.4316
  38   2.0000      -0.996184       -27.1075
  39   2.0000      -0.955544       -26.0017
  40   2.0000      -0.881223       -23.9793
  41   2.0000      -0.878101       -23.8943
  42   2.0000      -0.838101       -22.8059
  43   2.0000      -0.836048       -22.7500
  44   2.0000      -0.825885       -22.4735
  45   2.0000      -0.808919       -22.0118
  46   2.0000      -0.805522       -21.9194
  47   2.0000      -0.770202       -20.9583
  48   2.0000      -0.759372       -20.6636
  49   2.0000      -0.724048       -19.7024
  50   2.0000      -0.703319       -19.1383
  51   2.0000      -0.689301       -18.7568
  52   2.0000      -0.681392       -18.5416
  53   2.0000      -0.660285       -17.9673
  54   2.0000      -0.657600       -17.8942
  55   2.0000      -0.651628       -17.7317
  56   2.0000      -0.641665       -17.4606
  57   2.0000      -0.635278       -17.2868
  58   2.0000      -0.624493       -16.9933
  59   2.0000      -0.615294       -16.7430
  60   2.0000      -0.608324       -16.5534
  61   2.0000      -0.602089       -16.3837
  62   2.0000      -0.599925       -16.3248
  63   2.0000      -0.596841       -16.2409
  64   2.0000      -0.590042       -16.0559
  65   2.0000      -0.581148       -15.8138
  66   2.0000      -0.562824       -15.3152
  67   2.0000      -0.544363       -14.8129
  68   2.0000      -0.543569       -14.7913
  69   2.0000      -0.529092       -14.3973
  70   2.0000      -0.522290       -14.2122
  71   2.0000      -0.518175       -14.1003
  72   2.0000      -0.517246       -14.0750
  73   2.0000      -0.507833       -13.8188
  74   2.0000      -0.503973       -13.7138
  75   2.0000      -0.495501       -13.4833
  76   2.0000      -0.493638       -13.4326
  77   2.0000      -0.486576       -13.2404
  78   2.0000      -0.477539       -12.9945
  79   2.0000      -0.455730       -12.4010
  80   2.0000      -0.374664       -10.1951
  81   2.0000      -0.356011        -9.6876
  82   2.0000      -0.344043        -9.3619
  83   2.0000      -0.342294        -9.3143
  84   2.0000      -0.339891        -9.2489
  85   2.0000      -0.326979        -8.8975
  86   2.0000      -0.312676        -8.5083
  87   2.0000      -0.254715        -6.9312
  88   0.0000       0.086616         2.3569
  89   0.0000       0.106406         2.8955
  90   0.0000       0.116482         3.1696
  91   0.0000       0.117898         3.2082
  92   0.0000       0.126869         3.4523

E(0)                                       ...  -1048.439128345
E(0)                                       ...  -1048.439128345
E(CORR)(strong-pairs)                      ...     -4.165162866
E(CORR)(weak-pairs)                        ...     -0.008597690
E(CORR)(corrected)                         ...     -4.173760556
E(TOT)                                     ...  -1052.612888902

MULLIKEN ATOMIC CHARGES
-----------------------
   0 C :   -0.274034
   1 C :   -0.215029
   2 C :    0.042844
   3 C :    0.246359
   4 C :   -0.416097
   5 C :    0.288712
   6 C :    0.185060
   7 C :    0.096538
   8 C :   -0.229893
   9 H :    0.179173
  10 C :   -0.198258
  11 C :   -0.149955
  12 C :   -0.297440
  13 H :    0.180194
  14 H :    0.156767
  15 H :    0.168917
  16 N :    0.034325
  17 C :    0.114883
  18 C :   -0.282285
  19 C :   -0.283233
  20 C :   -0.107442
  21 C :   -0.104699
  22 H :    0.169599
  23 C :   -0.155223
  24 H :    0.172676
  25 H :    0.173344
  26 H :    0.163822
  27 H :    0.164720
  28 C :    0.095325
  29 C :   -0.240667
  30 C :   -0.270473
  31 C :   -0.176520
  32 H :    0.165574
  33 C :   -0.174737
  34 H :    0.165292
  35 C :   -0.161515
  36 H :    0.168412
  37 H :    0.168948
  38 O :   -0.244379
  39 H :    0.169534
  40 H :    0.169869
  41 H :    0.172938
  42 H :    0.168053
Sum of atomic charges:    0.0000000

LOEWDIN ATOMIC CHARGES
----------------------
   0 C :   -0.117641
   1 C :   -0.122606
   2 C :   -0.147074
   3 C :   -0.202038
   4 C :   -0.083347
   5 C :   -0.123106
   6 C :   -0.204355
   7 C :   -0.147601
   8 C :   -0.126152
   9 H :    0.164997
  10 C :   -0.163195
  11 C :   -0.166498
  12 C :   -0.126831
  13 H :    0.166233
  14 H :    0.166887
  15 H :    0.156718
  16 N :    0.286552
  17 C :   -0.173732
  18 C :   -0.104663
  19 C :   -0.104140
  20 C :   -0.140876
  21 C :   -0.140906
  22 H :    0.164594
  23 C :   -0.141797
  24 H :    0.158145
  25 H :    0.157405
  26 H :    0.162129
  27 H :    0.161959
  28 C :   -0.113636
  29 C :   -0.111875
  30 C :   -0.112062
  31 C :   -0.151829
  32 H :    0.159814
  33 C :   -0.152241
  34 H :    0.159647
  35 C :   -0.154936
  36 H :    0.156123
  37 H :    0.156159
  38 O :    0.323136
  39 H :    0.155524
  40 H :    0.154480
  41 H :    0.158195
  42 H :    0.164441

  Mayer bond orders larger than 0.100000
B(  0-C ,  1-C ) :   1.3111 B(  0-C ,  5-C ) :   1.2710 B(  0-C , 27-H ) :   0.9279
B(  1-C ,  2-C ) :   1.2537 B(  1-C , 13-H ) :   0.9203 B(  2-C ,  3-C ) :   1.2139
B(  2-C , 16-N ) :   1.0623 B(  3-C ,  4-C ) :   1.3675 B(  3-C , 38-O ) :   0.9799
B(  4-C ,  5-C ) :   1.2276 B(  4-C , 14-H ) :   0.9343 B(  5-C , 28-C ) :   0.8763
B(  6-C ,  7-C ) :   1.2328 B(  6-C , 12-C ) :   1.3692 B(  6-C , 38-O ) :   0.9753
B(  7-C ,  8-C ) :   1.2649 B(  7-C , 16-N ) :   1.0394 B(  8-C ,  9-H ) :   0.9181
B(  8-C , 10-C ) :   1.2915 B( 10-C , 11-C ) :   1.3098 B( 10-C , 15-H ) :   0.9323
B( 11-C , 12-C ) :   1.2568 B( 11-C , 39-H ) :   0.9361 B( 12-C , 26-H ) :   0.9381
B( 16-N , 17-C ) :   0.6504 B( 17-C , 18-C ) :   1.3575 B( 17-C , 19-C ) :   1.3683
B( 18-C , 20-C ) :   1.3043 B( 18-C , 42-H ) :   0.9409 B( 19-C , 21-C ) :   1.3145
B( 19-C , 22-H ) :   0.9367 B( 20-C , 23-C ) :   1.2881 B( 20-C , 41-H ) :   0.9280
B( 21-C , 23-C ) :   1.2806 B( 21-C , 24-H ) :   0.9281 B( 23-C , 25-H ) :   0.9286
B( 28-C , 29-C ) :   1.2801 B( 28-C , 30-C ) :   1.2883 B( 29-C , 31-C ) :   1.3396
B( 29-C , 32-H ) :   0.9243 B( 30-C , 33-C ) :   1.3407 B( 30-C , 34-H ) :   0.9249
B( 31-C , 35-C ) :   1.2926 B( 31-C , 36-H ) :   0.9308 B( 33-C , 35-C ) :   1.2903
B( 33-C , 37-H ) :   0.9307 B( 35-C , 40-H ) :   0.9288

-----------------------------------------------------------------------------
         ABSORPTION SPECTRUM VIA TRANSITION ELECTRIC DIPOLE MOMENTS
-----------------------------------------------------------------------------
State   Energy  Wavelength   fosc         T2         TX        TY        TZ
        (cm-1)    (nm)                  (au**2)     (au)      (au)      (au)
-----------------------------------------------------------------------------
   1   27712.8    360.8   0.261532289   3.10685   1.70709   0.43868   0.01397
   2   30206.6    331.1   0.097631284   1.06405   0.96919   0.34715   0.03574
   3   32521.6    307.5   0.024983188   0.25290   0.41241   0.28333   0.01371
   4   31283.6    319.7   0.001809497   0.01904   0.12737   0.00522   0.01741
   5   37194.2    268.9   0.005586137   0.04944   0.21870   0.03325   0.01056
   6   36110.6    276.9   0.024907090   0.22707   0.45685   0.04690   0.01206
   7   38997.2    256.4   0.559756131   4.72543   2.15320   0.29294   0.01978
   8   43294.8    231.0   0.605447092   4.60379   1.77672   1.18958   0.17795
   9   46483.0    215.1   0.055294802   0.39162   0.06321   0.28273   0.54919
  10   46952.2    213.0   0.080787933   0.56646   0.40512   0.63220   0.03122
  11   48858.6    204.7   0.121579660   0.81921   0.88410   0.00916   0.16439
  12   50832.5    196.7   0.247790507   1.60479   1.14859   0.52289   0.02376
  13   49692.1    201.2   0.028649615   0.18980   0.23683   0.22815   0.05043
  14   53391.4    187.3   0.130882958   0.80703   0.81829   0.33254   0.07261
  15   55259.6    181.0   0.237176816   1.41299   1.08293   0.27506   0.23840
  16   55123.7    181.4   0.344463067   2.05722   0.22074   1.35093   0.26047
  17   80830.7    123.7   0.052773857   0.21494   0.09185   0.36063   0.23837
  18  105604.5     94.7   0.041099827   0.12812   0.26731   0.23015   0.04776

FINAL SINGLE POINT ENERGY     -1052.486619871011

DIPOLE MOMENT
-------------
                                X             Y             Z
Electronic contribution:      2.07663       4.42710      -0.07117
Nuclear contribution   :     -1.24498      -5.48076       0.09574
                        -----------------------------------------
Total Dipole Moment    :      0.83164      -1.05366       0.02457
                        -----------------------------------------
Magnitude (a.u.)       :      1.34255
Magnitude (Debye)      :      3.41248

Rotational constants in cm-1:     0.011848     0.003953     0.003079
Rotational constants in MHz :   355.195780   118.521258    92.295779

                             ****ORCA TERMINATED NORMALLY****
TOTAL RUN TIME: 0 days 18 hours 51 minutes 40 seconds 717 msec
