                         Program Version 5.0.2 -  RELEASE  -
|  1> %maxcore 20000
|  2> %pal
|  3>  nprocs= 6
|  4> end
|  5> ! RI-SCS-PBE-QIDH   def2-TZVP def2/J def2-TZVP/C RIJCOSX CPCM TightSCF
|  6> %TDDFT
|  7>    NROOTS   30
|  8>    dcorr 4
|  9>    doscs true
| 10>    TDA      FALSE
| 11> END
| 12>
| 13> %CPCM
| 14>    SMD          TRUE
| 15>    SMDsolvent   "N,N-DIMETHYLACETAMIDE"
| 16> END
| 17>
| 18>
| 19> * xyz 0 1
| 20> C                  -1.77287600   -1.35290100    0.04927200
| 21> C                  -0.38655800   -1.33546100    0.05687600
| 22> C                   0.31713100   -0.13550500    0.01799500
| 23> C                  -0.42657000    1.05026400   -0.02028800
| 24> C                  -1.80223600    1.03245700   -0.02356400
| 25> C                  -2.51487900   -0.17444200    0.00877600
| 26> C                   1.55242600    2.33240000   -0.07729200
| 27> C                   2.33607700    1.17268300   -0.03649500
| 28> C                   3.72042600    1.31510000   -0.05766600
| 29> H                   4.34163800    0.42960600   -0.03043400
| 30> C                   4.30568100    2.57480400   -0.11330800
| 31> C                   3.51783900    3.71078700   -0.15074400
| 32> C                   2.13280100    3.58226600   -0.13349100
| 33> H                   0.16140500   -2.26725900    0.10139500
| 34> H                  -2.31851800    1.98254400   -0.07522300
| 35> H                   5.38485300    2.65502700   -0.12756000
| 36> N                   1.70692600   -0.07105400    0.01957700
| 37> C                   2.48271500   -1.27074200    0.04991400
| 38> C                   2.91959600   -1.77718600    1.26655200
| 39> C                   2.79262400   -1.92192700   -1.13659900
| 40> C                   3.67201600   -2.94187600    1.29384600
| 41> C                   3.54287700   -3.08775400   -1.10284700
| 42> H                   2.44196000   -1.51143200   -2.07565800
| 43> C                   3.98307700   -3.59737100    0.11078900
| 44> H                   3.78475800   -3.59804000   -2.02652800
| 45> H                   4.56955800   -4.50706000    0.13448500
| 46> H                   1.48616700    4.44991500   -0.16340800
| 47> H                  -2.27814100   -2.30859900    0.10115700
| 48> C                  -3.98532100   -0.18604700    0.00710000
| 49> C                  -4.72060700    0.88578800    0.52629200
| 50> C                  -4.69910300   -1.27190800   -0.51359100
| 51> C                  -6.10566800    0.87166200    0.52639000
| 52> H                  -4.19959600    1.73310000    0.95507400
| 53> C                  -6.08380400   -1.28632600   -0.51190300
| 54> H                  -4.16086900   -2.10705400   -0.94474000
| 55> C                  -6.79677700   -0.21450900    0.00781700
| 56> H                  -6.64843700    1.71203100    0.94169500
| 57> H                  -6.60963400   -2.13690300   -0.92821800
| 58> O                   0.18029500    2.28110200   -0.06225700
| 59> H                   3.96561100    4.69459300   -0.19412300
| 60> H                  -7.87940400   -0.22533900    0.00766700
| 61> H                   4.01447300   -3.33805600    2.24136100
| 62> H                   2.66800800   -1.25404800    2.18107200
| 63> *
| 64>
| 65>
| 66>                          ****END OF INPUT****

CARTESIAN COORDINATES (ANGSTROEM)
---------------------------------
  C     -1.772876   -1.352901    0.049272
  C     -0.386558   -1.335461    0.056876
  C      0.317131   -0.135505    0.017995
  C     -0.426570    1.050264   -0.020288
  C     -1.802236    1.032457   -0.023564
  C     -2.514879   -0.174442    0.008776
  C      1.552426    2.332400   -0.077292
  C      2.336077    1.172683   -0.036495
  C      3.720426    1.315100   -0.057666
  H      4.341638    0.429606   -0.030434
  C      4.305681    2.574804   -0.113308
  C      3.517839    3.710787   -0.150744
  C      2.132801    3.582266   -0.133491
  H      0.161405   -2.267259    0.101395
  H     -2.318518    1.982544   -0.075223
  H      5.384853    2.655027   -0.127560
  N      1.706926   -0.071054    0.019577
  C      2.482715   -1.270742    0.049914
  C      2.919596   -1.777186    1.266552
  C      2.792624   -1.921927   -1.136599
  C      3.672016   -2.941876    1.293846
  C      3.542877   -3.087754   -1.102847
  H      2.441960   -1.511432   -2.075658
  C      3.983077   -3.597371    0.110789
  H      3.784758   -3.598040   -2.026528
  H      4.569558   -4.507060    0.134485
  H      1.486167    4.449915   -0.163408
  H     -2.278141   -2.308599    0.101157
  C     -3.985321   -0.186047    0.007100
  C     -4.720607    0.885788    0.526292
  C     -4.699103   -1.271908   -0.513591
  C     -6.105668    0.871662    0.526390
  H     -4.199596    1.733100    0.955074
  C     -6.083804   -1.286326   -0.511903
  H     -4.160869   -2.107054   -0.944740
  C     -6.796777   -0.214509    0.007817
  H     -6.648437    1.712031    0.941695
  H     -6.609634   -2.136903   -0.928218
  O      0.180295    2.281102   -0.062257
  H      3.965611    4.694593   -0.194123
  H     -7.879404   -0.225339    0.007667
  H      4.014473   -3.338056    2.241361
  H      2.668008   -1.254048    2.181072

 Total Charge           Charge          ....    0
 Multiplicity           Mult            ....    1
 Number of Electrons    NEL             ....  176
 Basis Dimension        Dim             ....  908

ORBITAL ENERGIES
----------------

  NO   OCC          E(Eh)            E(eV)
   0   2.0000     -20.054529      -545.7115
   1   2.0000     -15.121312      -411.4718
   2   2.0000     -10.891328      -296.3681
   3   2.0000     -10.890371      -296.3421
   4   2.0000     -10.878003      -296.0055
   5   2.0000     -10.877540      -295.9929
   6   2.0000     -10.865397      -295.6625
   7   2.0000     -10.835298      -294.8435
   8   2.0000     -10.832444      -294.7658
   9   2.0000     -10.825934      -294.5886
  10   2.0000     -10.825898      -294.5877
  11   2.0000     -10.824940      -294.5616
  12   2.0000     -10.824329      -294.5450
  13   2.0000     -10.823609      -294.5254
  14   2.0000     -10.823427      -294.5204
  15   2.0000     -10.822505      -294.4953
  16   2.0000     -10.822345      -294.4910
  17   2.0000     -10.821663      -294.4724
  18   2.0000     -10.820601      -294.4435
  19   2.0000     -10.819907      -294.4246
  20   2.0000     -10.819764      -294.4208
  21   2.0000     -10.819181      -294.4049
  22   2.0000     -10.818799      -294.3945
  23   2.0000     -10.818667      -294.3909
  24   2.0000     -10.817527      -294.3599
  25   2.0000     -10.816941      -294.3439
  26   2.0000      -1.323329       -36.0096
  27   2.0000      -1.189975       -32.3809
  28   2.0000      -1.077435       -29.3185
  29   2.0000      -1.061649       -28.8889
  30   2.0000      -1.056124       -28.7386
  31   2.0000      -1.032981       -28.1088
  32   2.0000      -0.966050       -26.2876
  33   2.0000      -0.951957       -25.9041
  34   2.0000      -0.942288       -25.6409
  35   2.0000      -0.931943       -25.3595
  36   2.0000      -0.925581       -25.1863
  37   2.0000      -0.919279       -25.0148
  38   2.0000      -0.907734       -24.7007
  39   2.0000      -0.870937       -23.6994
  40   2.0000      -0.807556       -21.9747
  41   2.0000      -0.804808       -21.8999
  42   2.0000      -0.765119       -20.8200
  43   2.0000      -0.763350       -20.7718
  44   2.0000      -0.753886       -20.5143
  45   2.0000      -0.738240       -20.0885
  46   2.0000      -0.734570       -19.9887
  47   2.0000      -0.707468       -19.2512
  48   2.0000      -0.696771       -18.9601
  49   2.0000      -0.666037       -18.1238
  50   2.0000      -0.644795       -17.5458
  51   2.0000      -0.630264       -17.1504
  52   2.0000      -0.622121       -16.9288
  53   2.0000      -0.603136       -16.4122
  54   2.0000      -0.599717       -16.3191
  55   2.0000      -0.594236       -16.1700
  56   2.0000      -0.584264       -15.8986
  57   2.0000      -0.578195       -15.7335
  58   2.0000      -0.569131       -15.4868
  59   2.0000      -0.559363       -15.2210
  60   2.0000      -0.552732       -15.0406
  61   2.0000      -0.547907       -14.9093
  62   2.0000      -0.546304       -14.8657
  63   2.0000      -0.543083       -14.7780
  64   2.0000      -0.536353       -14.5949
  65   2.0000      -0.527334       -14.3495
  66   2.0000      -0.509637       -13.8679
  67   2.0000      -0.493773       -13.4362
  68   2.0000      -0.492387       -13.3985
  69   2.0000      -0.489087       -13.3087
  70   2.0000      -0.475235       -12.9318
  71   2.0000      -0.472034       -12.8447
  72   2.0000      -0.469837       -12.7849
  73   2.0000      -0.467359       -12.7175
  74   2.0000      -0.460059       -12.5188
  75   2.0000      -0.448627       -12.2078
  76   2.0000      -0.445054       -12.1105
  77   2.0000      -0.438182       -11.9235
  78   2.0000      -0.429819       -11.6960
  79   2.0000      -0.419403       -11.4125
  80   2.0000      -0.353564        -9.6210
  81   2.0000      -0.336733        -9.1630
  82   2.0000      -0.326738        -8.8910
  83   2.0000      -0.325244        -8.8503
  84   2.0000      -0.322123        -8.7654
  85   2.0000      -0.308842        -8.4040
  86   2.0000      -0.295342        -8.0367
  87   2.0000      -0.237840        -6.4720
  88   0.0000       0.024387         0.6636
  89   0.0000       0.044258         1.2043
  90   0.0000       0.052125         1.4184
  91   0.0000       0.055713         1.5160
  92   0.0000       0.063592         1.7304

MULLIKEN ATOMIC CHARGES
-----------------------
   0 C :   -0.286887
   1 C :   -0.254473
   2 C :    0.077355
   3 C :    0.277371
   4 C :   -0.431842
   5 C :    0.295663
   6 C :    0.218625
   7 C :    0.131601
   8 C :   -0.260937
   9 H :    0.187137
  10 C :   -0.208392
  11 C :   -0.145335
  12 C :   -0.323101
  13 H :    0.188189
  14 H :    0.160716
  15 H :    0.169294
  16 N :    0.072941
  17 C :    0.075731
  18 C :   -0.265909
  19 C :   -0.270729
  20 C :   -0.121213
  21 C :   -0.122330
  22 H :    0.172331
  23 C :   -0.144774
  24 H :    0.172669
  25 H :    0.174230
  26 H :    0.163955
  27 H :    0.170405
  28 C :    0.099107
  29 C :   -0.260220
  30 C :   -0.267444
  31 C :   -0.178167
  32 H :    0.171670
  33 C :   -0.176111
  34 H :    0.171327
  35 C :   -0.165539
  36 H :    0.169081
  37 H :    0.169052
  38 O :   -0.292909
  39 H :    0.172084
  40 H :    0.171499
  41 H :    0.172372
  42 H :    0.171908
Sum of atomic charges:   -0.0000000

LOEWDIN ATOMIC CHARGES
----------------------
   0 C :   -0.113386
   1 C :   -0.120157
   2 C :   -0.141076
   3 C :   -0.193520
   4 C :   -0.075865
   5 C :   -0.125501
   6 C :   -0.195730
   7 C :   -0.141819
   8 C :   -0.123518
   9 H :    0.163618
  10 C :   -0.159905
  11 C :   -0.165614
  12 C :   -0.120699
  13 H :    0.164911
  14 H :    0.165673
  15 H :    0.154962
  16 N :    0.272817
  17 C :   -0.176583
  18 C :   -0.100482
  19 C :   -0.100157
  20 C :   -0.139558
  21 C :   -0.139590
  22 H :    0.163063
  23 C :   -0.139649
  24 H :    0.156176
  25 H :    0.155525
  26 H :    0.160629
  27 H :    0.160471
  28 C :   -0.114947
  29 C :   -0.110144
  30 C :   -0.109737
  31 C :   -0.150022
  32 H :    0.158284
  33 C :   -0.150033
  34 H :    0.158109
  35 C :   -0.154189
  36 H :    0.154362
  37 H :    0.154344
  38 O :    0.293434
  39 H :    0.153664
  40 H :    0.152720
  41 H :    0.156155
  42 H :    0.162959

  Mayer bond orders larger than 0.100000
B(  0-C ,  1-C ) :   1.4234 B(  0-C ,  5-C ) :   1.3792 B(  0-C , 27-H ) :   0.9717
B(  1-C ,  2-C ) :   1.3755 B(  1-C , 13-H ) :   0.9642 B(  2-C ,  3-C ) :   1.3500
B(  2-C , 16-N ) :   1.1039 B(  3-C ,  4-C ) :   1.4582 B(  3-C , 38-O ) :   1.0142
B(  4-C ,  5-C ) :   1.3149 B(  4-C , 14-H ) :   0.9901 B(  5-C , 28-C ) :   0.9003
B(  6-C ,  7-C ) :   1.3593 B(  6-C , 12-C ) :   1.4670 B(  6-C , 38-O ) :   1.0113
B(  7-C ,  8-C ) :   1.3883 B(  7-C , 16-N ) :   1.0785 B(  8-C ,  9-H ) :   0.9607
B(  8-C , 10-C ) :   1.3931 B( 10-C , 11-C ) :   1.4243 B( 10-C , 15-H ) :   0.9815
B( 11-C , 12-C ) :   1.3566 B( 11-C , 39-H ) :   0.9824 B( 12-C , 26-H ) :   0.9937
B( 16-N , 17-C ) :   0.7326 B( 17-C , 18-C ) :   1.4840 B( 17-C , 19-C ) :   1.4847
B( 18-C , 20-C ) :   1.4231 B( 18-C , 42-H ) :   0.9813 B( 19-C , 21-C ) :   1.4235
B( 19-C , 22-H ) :   0.9807 B( 20-C , 23-C ) :   1.3968 B( 20-C , 41-H ) :   0.9756
B( 21-C , 23-C ) :   1.3951 B( 21-C , 24-H ) :   0.9759 B( 23-C , 25-H ) :   0.9728
B( 28-C , 29-C ) :   1.3814 B( 28-C , 30-C ) :   1.3851 B( 29-C , 31-C ) :   1.4566
B( 29-C , 32-H ) :   0.9669 B( 30-C , 33-C ) :   1.4591 B( 30-C , 34-H ) :   0.9669
B( 31-C , 35-C ) :   1.4054 B( 31-C , 36-H ) :   0.9773 B( 33-C , 35-C ) :   1.4020
B( 33-C , 37-H ) :   0.9771 B( 35-C , 40-H ) :   0.9743

MP2 TOTAL ENERGY:    -1053.746179685 Eh

-----------------------------------------------------------------------------
         ABSORPTION SPECTRUM VIA TRANSITION ELECTRIC DIPOLE MOMENTS
-----------------------------------------------------------------------------
State   Energy    Wavelength  fosc         T2        TX        TY        TZ
        (cm-1)      (nm)                 (au**2)    (au)      (au)      (au)
-----------------------------------------------------------------------------
   1   28621.3    349.4   0.384129832   4.41839  -2.06426  -0.39631   0.01191
   2   31017.3    322.4   0.195988307   2.08018   1.39340   0.36747  -0.05988
   3   32831.8    304.6   0.070910590   0.71104  -0.64255  -0.54542   0.02617
   4   34769.9    287.6   0.025362118   0.24014  -0.46932   0.14005  -0.01600
   5   39030.8    256.2   0.394187966   3.32485   1.78358  -0.37763   0.03316
   6   37520.6    266.5   0.009559956   0.08388  -0.24964   0.12992   0.06843
   7   37952.4    263.5   0.005093202   0.04418   0.18455  -0.09720   0.02598
   8   40369.2    247.7   0.004768926   0.03889  -0.04219  -0.12606   0.14567
   9   42586.3    234.8   0.519824473   4.01849   1.51806   1.29702  -0.17815
  10   48601.7    205.8   0.095400498   0.64621   0.71351   0.35999  -0.08676
  11   47053.9    212.5   0.307854122   2.15390  -1.41461  -0.38733   0.05249
  12   46576.3    214.7   0.466433183   3.29686   1.71141   0.53006   0.29490
  13   45603.1    219.3   0.256342104   1.85055  -0.08066   1.27941   0.45514
  14   47667.1    209.8   0.126266875   0.87206  -0.04024   0.93151  -0.05222
  15   47864.0    208.9   0.279722670   1.92395  -0.25685   1.36218  -0.04938
  16   46718.3    214.0   0.052482589   0.36983  -0.17057   0.57034  -0.12428
  17   49142.6    203.5   0.881073312   5.90241  -2.09236   1.23410  -0.03792
  18   49937.9    200.2   0.142241086   0.93771   0.25735   0.91995  -0.15869
  19   52772.2    189.5   0.666702037   4.15913  -0.70598   1.35331  -1.35250
  20   52426.9    190.7   0.885621004   5.56121   0.74607  -1.74066  -1.40523
  21   52555.1    190.3   0.023358146   0.14632  -0.26689  -0.09500  -0.25702
  22   52312.3    191.2   0.053559226   0.33706   0.21221   0.41405   0.34726
  23   51118.6    195.6   0.126186880   0.81266  -0.26443  -0.81192  -0.28902
  24   52963.2    188.8   0.065132091   0.40485   0.63208   0.06363   0.03572
  25   51828.2    192.9   0.024455459   0.15534  -0.34588   0.17666   0.06705
  26   53333.0    187.5   0.062372011   0.38501  -0.61437   0.02176   0.08414
  27   53498.8    186.9   0.006054291   0.03726   0.08525  -0.01960   0.17206
  28   56567.9    176.8   0.001585842   0.00923   0.01876   0.05176  -0.07872
  29   57371.4    174.3   0.003495298   0.02006  -0.04731   0.07569   0.10995
  30   53545.7    186.8   0.033065897   0.20330   0.35866  -0.27147  -0.03110

FINAL SINGLE POINT ENERGY     -1052.072434248136

DIPOLE MOMENT
-------------
                                X             Y             Z
Electronic contribution:      2.08563       4.41698      -0.07192
Nuclear contribution   :     -1.24498      -5.48076       0.09574
                        -----------------------------------------
Total Dipole Moment    :      0.84065      -1.06378       0.02382
                        -----------------------------------------
Magnitude (a.u.)       :      1.35606
Magnitude (Debye)      :      3.44682

Rotational constants in cm-1:     0.011848     0.003953     0.003079
Rotational constants in MHz :   355.195780   118.521258    92.295779

                             ****ORCA TERMINATED NORMALLY****
TOTAL RUN TIME: 0 days 6 hours 41 minutes 36 seconds 843 msec
