                         Program Version 5.0.2 -  RELEASE  -
|  1> %maxcore 3200
|  2> %pal
|  3>  nprocs= 8
|  4> end
|  5> ! RI-B2PLYP D3BJ def2-TZVP def2/J def2-TZVP/C RIJCOSX CPCM TightSCF
|  6> %TDDFT DCORR 4
|  7>    NROOTS   30
|  8>
|  9>    TDA      FALSE
| 10> END
| 11>
| 12> %CPCM
| 13>    SMD          TRUE
| 14>    SMDsolvent   "N,N-DIMETHYLACETAMIDE"
| 15> END
| 16>
| 17>
| 18> * xyz 0 1
| 19> C                  -1.77287600   -1.35290100    0.04927200
| 20> C                  -0.38655800   -1.33546100    0.05687600
| 21> C                   0.31713100   -0.13550500    0.01799500
| 22> C                  -0.42657000    1.05026400   -0.02028800
| 23> C                  -1.80223600    1.03245700   -0.02356400
| 24> C                  -2.51487900   -0.17444200    0.00877600
| 25> C                   1.55242600    2.33240000   -0.07729200
| 26> C                   2.33607700    1.17268300   -0.03649500
| 27> C                   3.72042600    1.31510000   -0.05766600
| 28> H                   4.34163800    0.42960600   -0.03043400
| 29> C                   4.30568100    2.57480400   -0.11330800
| 30> C                   3.51783900    3.71078700   -0.15074400
| 31> C                   2.13280100    3.58226600   -0.13349100
| 32> H                   0.16140500   -2.26725900    0.10139500
| 33> H                  -2.31851800    1.98254400   -0.07522300
| 34> H                   5.38485300    2.65502700   -0.12756000
| 35> N                   1.70692600   -0.07105400    0.01957700
| 36> C                   2.48271500   -1.27074200    0.04991400
| 37> C                   2.91959600   -1.77718600    1.26655200
| 38> C                   2.79262400   -1.92192700   -1.13659900
| 39> C                   3.67201600   -2.94187600    1.29384600
| 40> C                   3.54287700   -3.08775400   -1.10284700
| 41> H                   2.44196000   -1.51143200   -2.07565800
| 42> C                   3.98307700   -3.59737100    0.11078900
| 43> H                   3.78475800   -3.59804000   -2.02652800
| 44> H                   4.56955800   -4.50706000    0.13448500
| 45> H                   1.48616700    4.44991500   -0.16340800
| 46> H                  -2.27814100   -2.30859900    0.10115700
| 47> C                  -3.98532100   -0.18604700    0.00710000
| 48> C                  -4.72060700    0.88578800    0.52629200
| 49> C                  -4.69910300   -1.27190800   -0.51359100
| 50> C                  -6.10566800    0.87166200    0.52639000
| 51> H                  -4.19959600    1.73310000    0.95507400
| 52> C                  -6.08380400   -1.28632600   -0.51190300
| 53> H                  -4.16086900   -2.10705400   -0.94474000
| 54> C                  -6.79677700   -0.21450900    0.00781700
| 55> H                  -6.64843700    1.71203100    0.94169500
| 56> H                  -6.60963400   -2.13690300   -0.92821800
| 57> O                   0.18029500    2.28110200   -0.06225700
| 58> H                   3.96561100    4.69459300   -0.19412300
| 59> H                  -7.87940400   -0.22533900    0.00766700
| 60> H                   4.01447300   -3.33805600    2.24136100
| 61> H                   2.66800800   -1.25404800    2.18107200
| 62> *
| 63>
| 64>
| 65>                          ****END OF INPUT****

CARTESIAN COORDINATES (ANGSTROEM)
---------------------------------
  C     -1.772876   -1.352901    0.049272
  C     -0.386558   -1.335461    0.056876
  C      0.317131   -0.135505    0.017995
  C     -0.426570    1.050264   -0.020288
  C     -1.802236    1.032457   -0.023564
  C     -2.514879   -0.174442    0.008776
  C      1.552426    2.332400   -0.077292
  C      2.336077    1.172683   -0.036495
  C      3.720426    1.315100   -0.057666
  H      4.341638    0.429606   -0.030434
  C      4.305681    2.574804   -0.113308
  C      3.517839    3.710787   -0.150744
  C      2.132801    3.582266   -0.133491
  H      0.161405   -2.267259    0.101395
  H     -2.318518    1.982544   -0.075223
  H      5.384853    2.655027   -0.127560
  N      1.706926   -0.071054    0.019577
  C      2.482715   -1.270742    0.049914
  C      2.919596   -1.777186    1.266552
  C      2.792624   -1.921927   -1.136599
  C      3.672016   -2.941876    1.293846
  C      3.542877   -3.087754   -1.102847
  H      2.441960   -1.511432   -2.075658
  C      3.983077   -3.597371    0.110789
  H      3.784758   -3.598040   -2.026528
  H      4.569558   -4.507060    0.134485
  H      1.486167    4.449915   -0.163408
  H     -2.278141   -2.308599    0.101157
  C     -3.985321   -0.186047    0.007100
  C     -4.720607    0.885788    0.526292
  C     -4.699103   -1.271908   -0.513591
  C     -6.105668    0.871662    0.526390
  H     -4.199596    1.733100    0.955074
  C     -6.083804   -1.286326   -0.511903
  H     -4.160869   -2.107054   -0.944740
  C     -6.796777   -0.214509    0.007817
  H     -6.648437    1.712031    0.941695
  H     -6.609634   -2.136903   -0.928218
  O      0.180295    2.281102   -0.062257
  H      3.965611    4.694593   -0.194123
  H     -7.879404   -0.225339    0.007667
  H      4.014473   -3.338056    2.241361
  H      2.668008   -1.254048    2.181072

 Total Charge           Charge          ....    0
 Multiplicity           Mult            ....    1
 Number of Electrons    NEL             ....  176
 Basis Dimension        Dim             ....  908

ORBITAL ENERGIES
----------------

  NO   OCC          E(Eh)            E(eV)
   0   2.0000     -19.772392      -538.0341
   1   2.0000     -14.874826      -404.7646
   2   2.0000     -10.684184      -290.7314
   3   2.0000     -10.683496      -290.7127
   4   2.0000     -10.670255      -290.3524
   5   2.0000     -10.670123      -290.3488
   6   2.0000     -10.658630      -290.0361
   7   2.0000     -10.628224      -289.2087
   8   2.0000     -10.625076      -289.1230
   9   2.0000     -10.620462      -288.9975
  10   2.0000     -10.620431      -288.9966
  11   2.0000     -10.619593      -288.9738
  12   2.0000     -10.619126      -288.9611
  13   2.0000     -10.618428      -288.9421
  14   2.0000     -10.616781      -288.8973
  15   2.0000     -10.616409      -288.8872
  16   2.0000     -10.616161      -288.8804
  17   2.0000     -10.615589      -288.8649
  18   2.0000     -10.614198      -288.8270
  19   2.0000     -10.614056      -288.8232
  20   2.0000     -10.614025      -288.8223
  21   2.0000     -10.613274      -288.8019
  22   2.0000     -10.612938      -288.7927
  23   2.0000     -10.612864      -288.7907
  24   2.0000     -10.611986      -288.7668
  25   2.0000     -10.611275      -288.7475
  26   2.0000      -1.240414       -33.7534
  27   2.0000      -1.112822       -30.2814
  28   2.0000      -1.004067       -27.3220
  29   2.0000      -0.989420       -26.9235
  30   2.0000      -0.984058       -26.7776
  31   2.0000      -0.961972       -26.1766
  32   2.0000      -0.898529       -24.4502
  33   2.0000      -0.885719       -24.1016
  34   2.0000      -0.876646       -23.8548
  35   2.0000      -0.866625       -23.5821
  36   2.0000      -0.860062       -23.4035
  37   2.0000      -0.854227       -23.2447
  38   2.0000      -0.843062       -22.9409
  39   2.0000      -0.808637       -22.0041
  40   2.0000      -0.750132       -20.4121
  41   2.0000      -0.747587       -20.3429
  42   2.0000      -0.709550       -19.3078
  43   2.0000      -0.708253       -19.2725
  44   2.0000      -0.698871       -19.0173
  45   2.0000      -0.684402       -18.6235
  46   2.0000      -0.680534       -18.5183
  47   2.0000      -0.657125       -17.8813
  48   2.0000      -0.645423       -17.5629
  49   2.0000      -0.617762       -16.8102
  50   2.0000      -0.597019       -16.2457
  51   2.0000      -0.582641       -15.8545
  52   2.0000      -0.575232       -15.6528
  53   2.0000      -0.555641       -15.1198
  54   2.0000      -0.553735       -15.0679
  55   2.0000      -0.548521       -14.9260
  56   2.0000      -0.539111       -14.6700
  57   2.0000      -0.531627       -14.4663
  58   2.0000      -0.525183       -14.2910
  59   2.0000      -0.515945       -14.0396
  60   2.0000      -0.509771       -13.8716
  61   2.0000      -0.505585       -13.7577
  62   2.0000      -0.503993       -13.7143
  63   2.0000      -0.500767       -13.6266
  64   2.0000      -0.495313       -13.4781
  65   2.0000      -0.486139       -13.2285
  66   2.0000      -0.466883       -12.7045
  67   2.0000      -0.451925       -12.2975
  68   2.0000      -0.450558       -12.2603
  69   2.0000      -0.448064       -12.1924
  70   2.0000      -0.436209       -11.8698
  71   2.0000      -0.433336       -11.7917
  72   2.0000      -0.430445       -11.7130
  73   2.0000      -0.429311       -11.6821
  74   2.0000      -0.422079       -11.4854
  75   2.0000      -0.411307       -11.1922
  76   2.0000      -0.407765       -11.0958
  77   2.0000      -0.401013       -10.9121
  78   2.0000      -0.393154       -10.6983
  79   2.0000      -0.382318       -10.4034
  80   2.0000      -0.322900        -8.7866
  81   2.0000      -0.307464        -8.3665
  82   2.0000      -0.298520        -8.1231
  83   2.0000      -0.297130        -8.0853
  84   2.0000      -0.293860        -7.9963
  85   2.0000      -0.280465        -7.6318
  86   2.0000      -0.267293        -7.2734
  87   2.0000      -0.211317        -5.7502
  88   0.0000       0.009929         0.2702
  89   0.0000       0.028012         0.7622
  90   0.0000       0.034931         0.9505
  91   0.0000       0.039024         1.0619
  92   0.0000       0.046642         1.2692

MULLIKEN ATOMIC CHARGES
-----------------------
   0 C :   -0.270076
   1 C :   -0.217944
   2 C :    0.073323
   3 C :    0.274622
   4 C :   -0.385111
   5 C :    0.255925
   6 C :    0.234946
   7 C :    0.119743
   8 C :   -0.223171
   9 H :    0.175644
  10 C :   -0.199286
  11 C :   -0.141842
  12 C :   -0.296378
  13 H :    0.176140
  14 H :    0.146476
  15 H :    0.155534
  16 N :    0.007102
  17 C :    0.109934
  18 C :   -0.246093
  19 C :   -0.250333
  20 C :   -0.112823
  21 C :   -0.113898
  22 H :    0.159057
  23 C :   -0.137443
  24 H :    0.159682
  25 H :    0.161039
  26 H :    0.150651
  27 H :    0.155537
  28 C :    0.102250
  29 C :   -0.236831
  30 C :   -0.242475
  31 C :   -0.165550
  32 H :    0.157076
  33 C :   -0.163840
  34 H :    0.156706
  35 C :   -0.156498
  36 H :    0.155228
  37 H :    0.155172
  38 O :   -0.314627
  39 H :    0.156930
  40 H :    0.157455
  41 H :    0.159404
  42 H :    0.158646
Sum of atomic charges:    0.0000000

LOEWDIN ATOMIC CHARGES
----------------------
   0 C :   -0.112770
   1 C :   -0.118735
   2 C :   -0.139391
   3 C :   -0.193194
   4 C :   -0.076362
   5 C :   -0.121116
   6 C :   -0.195084
   7 C :   -0.139641
   8 C :   -0.121794
   9 H :    0.160379
  10 C :   -0.158548
  11 C :   -0.163726
  12 C :   -0.120439
  13 H :    0.161507
  14 H :    0.161673
  15 H :    0.151356
  16 N :    0.277730
  17 C :   -0.169967
  18 C :   -0.098454
  19 C :   -0.098054
  20 C :   -0.136998
  21 C :   -0.137070
  22 H :    0.159505
  23 C :   -0.137436
  24 H :    0.152919
  25 H :    0.152271
  26 H :    0.156780
  27 H :    0.156725
  28 C :   -0.110137
  29 C :   -0.108182
  30 C :   -0.107754
  31 C :   -0.147824
  32 H :    0.154857
  33 C :   -0.147851
  34 H :    0.154660
  35 C :   -0.152404
  36 H :    0.150893
  37 H :    0.150873
  38 O :    0.299151
  39 H :    0.150098
  40 H :    0.149254
  41 H :    0.152900
  42 H :    0.159401

  Mayer bond orders larger than 0.100000
B(  0-C ,  1-C ) :   1.4242 B(  0-C ,  5-C ) :   1.3768 B(  0-C , 27-H ) :   0.9722
B(  1-C ,  2-C ) :   1.3479 B(  1-C , 13-H ) :   0.9644 B(  2-C ,  3-C ) :   1.3092
B(  2-C , 16-N ) :   1.0982 B(  3-C ,  4-C ) :   1.4665 B(  3-C , 38-O ) :   1.0000
B(  4-C ,  5-C ) :   1.3302 B(  4-C , 14-H ) :   0.9849 B(  5-C , 28-C ) :   0.9236
B(  6-C ,  7-C ) :   1.3206 B(  6-C , 12-C ) :   1.4496 B(  6-C , 38-O ) :   0.9975
B(  7-C ,  8-C ) :   1.3599 B(  7-C , 16-N ) :   1.0778 B(  8-C ,  9-H ) :   0.9597
B(  8-C , 10-C ) :   1.3894 B( 10-C , 11-C ) :   1.4218 B( 10-C , 15-H ) :   0.9841
B( 11-C , 12-C ) :   1.3597 B( 11-C , 39-H ) :   0.9866 B( 12-C , 26-H ) :   0.9943
B( 16-N , 17-C ) :   0.7098 B( 17-C , 18-C ) :   1.4557 B( 17-C , 19-C ) :   1.4559
B( 18-C , 20-C ) :   1.4073 B( 18-C , 42-H ) :   0.9846 B( 19-C , 21-C ) :   1.4074
B( 19-C , 22-H ) :   0.9842 B( 20-C , 23-C ) :   1.3908 B( 20-C , 41-H ) :   0.9790
B( 21-C , 23-C ) :   1.3894 B( 21-C , 24-H ) :   0.9792 B( 23-C , 25-H ) :   0.9748
B( 28-C , 29-C ) :   1.3727 B( 28-C , 30-C ) :   1.3756 B( 29-C , 31-C ) :   1.4456
B( 29-C , 32-H ) :   0.9667 B( 30-C , 33-C ) :   1.4481 B( 30-C , 34-H ) :   0.9665
B( 31-C , 35-C ) :   1.3973 B( 31-C , 36-H ) :   0.9810 B( 33-C , 35-C ) :   1.3941
B( 33-C , 37-H ) :   0.9808 B( 35-C , 40-H ) :   0.9768

MP2 TOTAL ENERGY:    -1054.262633746 Eh

-----------------------------------------------------------------------------
         ABSORPTION SPECTRUM VIA TRANSITION ELECTRIC DIPOLE MOMENTS
-----------------------------------------------------------------------------
State   Energy    Wavelength  fosc         T2        TX        TY        TZ
        (cm-1)      (nm)                 (au**2)    (au)      (au)      (au)
-----------------------------------------------------------------------------
   1   26899.8    371.8   0.346713011   4.24323   2.02225   0.39197  -0.01083
   2   29755.0    336.1   0.213173134   2.35857   1.47631   0.41853  -0.06252
   3   31778.4    314.7   0.042340458   0.43863   0.43798   0.49645  -0.01852
   4   31531.9    317.1   0.004858418   0.05072  -0.21152  -0.07729  -0.00321
   5   37144.4    269.2   0.379758776   3.36581  -1.79304   0.38424  -0.05649
   6   35401.0    282.5   0.109983866   1.02280   1.00650  -0.08864  -0.04359
   7   36148.3    276.6   0.005242168   0.04774   0.05823  -0.18893  -0.09305
   8   39163.7    255.3   0.444208256   3.73403   1.42342   1.29911  -0.14228
   9   42068.6    237.7   0.003807037   0.02979  -0.11716  -0.09310  -0.08602
  10   41434.7    241.3   0.099515415   0.79068   0.85471  -0.06601  -0.23621
  11   42536.8    235.1   0.453058438   3.50643  -1.34909  -1.26466  -0.29501
  12   46036.8    217.2   0.060146779   0.43011  -0.63849  -0.13132   0.07212
  13   45837.5    218.2   0.047826373   0.34350   0.15361  -0.53451   0.18494
  14   48303.1    207.0   0.038276707   0.26088   0.47390  -0.16960   0.08678
  15   45939.8    217.7   0.065506455   0.46943  -0.58383  -0.34600  -0.09414
  16   45576.9    219.4   0.081218361   0.58666   0.35163   0.67029  -0.11715
  17   48386.8    206.7   0.603469950   4.10586  -1.54655   1.29505  -0.19209
  18   48821.2    204.8   0.578583218   3.90151  -1.76967   0.84791   0.22548
  19   47859.4    208.9   0.016499132   0.11349  -0.12570  -0.30876   0.04855
  20   47599.9    210.1   0.459052623   3.17492   0.55698  -1.68982  -0.09599
  21   47496.9    210.5   0.116954377   0.81064   0.42117   0.79392   0.05427
  22   47265.3    211.6   0.204303051   1.42301   0.08207   1.06747   0.52609
  23   51132.3    195.6   0.403537098   2.59815   0.12782   0.02326   1.60663
  24   50446.1    198.2   0.088293084   0.57620  -0.11125  -0.74827  -0.06263
  25   50946.9    196.3   0.238811777   1.54317   0.63351  -1.06849   0.01300
  26   49928.9    200.3   0.065399702   0.43122   0.11278  -0.17810   0.62192
  27   51282.7    195.0   0.013057360   0.08382   0.05671  -0.16763   0.22914
  28   49936.3    200.3   0.175415290   1.15645  -0.77713   0.71330   0.20910
  29   51614.4    193.7   0.008124114   0.05182  -0.14279   0.10800  -0.14058
  30   50154.4    199.4   0.046622302   0.30603   0.38263   0.38218   0.11644

Dispersion correction           -0.049966864
FINAL SINGLE POINT ENERGY     -1052.829967933953

DIPOLE MOMENT
-------------
                                X             Y             Z
Electronic contribution:      2.11058       4.40614      -0.07107
Nuclear contribution   :     -1.24498      -5.48076       0.09574
                        -----------------------------------------
Total Dipole Moment    :      0.86560      -1.07462       0.02467
                        -----------------------------------------
Magnitude (a.u.)       :      1.38010
Magnitude (Debye)      :      3.50794

Rotational constants in cm-1:     0.011848     0.003953     0.003079
Rotational constants in MHz :   355.195780   118.521258    92.295779

                             ****ORCA TERMINATED NORMALLY****
TOTAL RUN TIME: 0 days 0 hours 47 minutes 38 seconds 964 msec
