                         Program Version 5.0.2 -  RELEASE  -
|  1> %maxcore 20000
|  2> %pal
|  3>  nprocs= 4
|  4> end
|  5> ! RI-wPBEPP86   def2-TZVP def2/J def2-TZVP/C RIJCOSX CPCM TightSCF
|  6> %TDDFT
|  7>    NROOTS   30
|  8>    dcorr 1
|  9>    TDA      FALSE
| 10> END
| 11>
| 12> %CPCM
| 13>    SMD          TRUE
| 14>    SMDsolvent   "N,N-DIMETHYLACETAMIDE"
| 15> END
| 16>
| 17>
| 18> * xyz 0 1
| 19> C                  -1.77287600   -1.35290100    0.04927200
| 20> C                  -0.38655800   -1.33546100    0.05687600
| 21> C                   0.31713100   -0.13550500    0.01799500
| 22> C                  -0.42657000    1.05026400   -0.02028800
| 23> C                  -1.80223600    1.03245700   -0.02356400
| 24> C                  -2.51487900   -0.17444200    0.00877600
| 25> C                   1.55242600    2.33240000   -0.07729200
| 26> C                   2.33607700    1.17268300   -0.03649500
| 27> C                   3.72042600    1.31510000   -0.05766600
| 28> H                   4.34163800    0.42960600   -0.03043400
| 29> C                   4.30568100    2.57480400   -0.11330800
| 30> C                   3.51783900    3.71078700   -0.15074400
| 31> C                   2.13280100    3.58226600   -0.13349100
| 32> H                   0.16140500   -2.26725900    0.10139500
| 33> H                  -2.31851800    1.98254400   -0.07522300
| 34> H                   5.38485300    2.65502700   -0.12756000
| 35> N                   1.70692600   -0.07105400    0.01957700
| 36> C                   2.48271500   -1.27074200    0.04991400
| 37> C                   2.91959600   -1.77718600    1.26655200
| 38> C                   2.79262400   -1.92192700   -1.13659900
| 39> C                   3.67201600   -2.94187600    1.29384600
| 40> C                   3.54287700   -3.08775400   -1.10284700
| 41> H                   2.44196000   -1.51143200   -2.07565800
| 42> C                   3.98307700   -3.59737100    0.11078900
| 43> H                   3.78475800   -3.59804000   -2.02652800
| 44> H                   4.56955800   -4.50706000    0.13448500
| 45> H                   1.48616700    4.44991500   -0.16340800
| 46> H                  -2.27814100   -2.30859900    0.10115700
| 47> C                  -3.98532100   -0.18604700    0.00710000
| 48> C                  -4.72060700    0.88578800    0.52629200
| 49> C                  -4.69910300   -1.27190800   -0.51359100
| 50> C                  -6.10566800    0.87166200    0.52639000
| 51> H                  -4.19959600    1.73310000    0.95507400
| 52> C                  -6.08380400   -1.28632600   -0.51190300
| 53> H                  -4.16086900   -2.10705400   -0.94474000
| 54> C                  -6.79677700   -0.21450900    0.00781700
| 55> H                  -6.64843700    1.71203100    0.94169500
| 56> H                  -6.60963400   -2.13690300   -0.92821800
| 57> O                   0.18029500    2.28110200   -0.06225700
| 58> H                   3.96561100    4.69459300   -0.19412300
| 59> H                  -7.87940400   -0.22533900    0.00766700
| 60> H                   4.01447300   -3.33805600    2.24136100
| 61> H                   2.66800800   -1.25404800    2.18107200
| 62> *
| 63>
| 64>
| 65>                          ****END OF INPUT****

CARTESIAN COORDINATES (ANGSTROEM)
---------------------------------
  C     -1.772876   -1.352901    0.049272
  C     -0.386558   -1.335461    0.056876
  C      0.317131   -0.135505    0.017995
  C     -0.426570    1.050264   -0.020288
  C     -1.802236    1.032457   -0.023564
  C     -2.514879   -0.174442    0.008776
  C      1.552426    2.332400   -0.077292
  C      2.336077    1.172683   -0.036495
  C      3.720426    1.315100   -0.057666
  H      4.341638    0.429606   -0.030434
  C      4.305681    2.574804   -0.113308
  C      3.517839    3.710787   -0.150744
  C      2.132801    3.582266   -0.133491
  H      0.161405   -2.267259    0.101395
  H     -2.318518    1.982544   -0.075223
  H      5.384853    2.655027   -0.127560
  N      1.706926   -0.071054    0.019577
  C      2.482715   -1.270742    0.049914
  C      2.919596   -1.777186    1.266552
  C      2.792624   -1.921927   -1.136599
  C      3.672016   -2.941876    1.293846
  C      3.542877   -3.087754   -1.102847
  H      2.441960   -1.511432   -2.075658
  C      3.983077   -3.597371    0.110789
  H      3.784758   -3.598040   -2.026528
  H      4.569558   -4.507060    0.134485
  H      1.486167    4.449915   -0.163408
  H     -2.278141   -2.308599    0.101157
  C     -3.985321   -0.186047    0.007100
  C     -4.720607    0.885788    0.526292
  C     -4.699103   -1.271908   -0.513591
  C     -6.105668    0.871662    0.526390
  H     -4.199596    1.733100    0.955074
  C     -6.083804   -1.286326   -0.511903
  H     -4.160869   -2.107054   -0.944740
  C     -6.796777   -0.214509    0.007817
  H     -6.648437    1.712031    0.941695
  H     -6.609634   -2.136903   -0.928218
  O      0.180295    2.281102   -0.062257
  H      3.965611    4.694593   -0.194123
  H     -7.879404   -0.225339    0.007667
  H      4.014473   -3.338056    2.241361
  H      2.668008   -1.254048    2.181072

 Total Charge           Charge          ....    0
 Multiplicity           Mult            ....    1
 Number of Electrons    NEL             ....  176
 Basis Dimension        Dim             ....  908

ORBITAL ENERGIES
----------------

  NO   OCC          E(Eh)            E(eV)
   0   2.0000     -20.108451      -547.1788
   1   2.0000     -15.170286      -412.8045
   2   2.0000     -10.938043      -297.6393
   3   2.0000     -10.936863      -297.6072
   4   2.0000     -10.924746      -297.2774
   5   2.0000     -10.924190      -297.2623
   6   2.0000     -10.911428      -296.9151
   7   2.0000     -10.881587      -296.1030
   8   2.0000     -10.878919      -296.0304
   9   2.0000     -10.871788      -295.8364
  10   2.0000     -10.871749      -295.8353
  11   2.0000     -10.870753      -295.8082
  12   2.0000     -10.870136      -295.7914
  13   2.0000     -10.869916      -295.7855
  14   2.0000     -10.869404      -295.7715
  15   2.0000     -10.868855      -295.7566
  16   2.0000     -10.868481      -295.7464
  17   2.0000     -10.867812      -295.7282
  18   2.0000     -10.866933      -295.7043
  19   2.0000     -10.865828      -295.6742
  20   2.0000     -10.865707      -295.6709
  21   2.0000     -10.865213      -295.6575
  22   2.0000     -10.864782      -295.6457
  23   2.0000     -10.864634      -295.6417
  24   2.0000     -10.863355      -295.6069
  25   2.0000     -10.862861      -295.5935
  26   2.0000      -1.363279       -37.0967
  27   2.0000      -1.229458       -33.4552
  28   2.0000      -1.117117       -30.3983
  29   2.0000      -1.100962       -29.9587
  30   2.0000      -1.095418       -29.8078
  31   2.0000      -1.072249       -29.1774
  32   2.0000      -1.004883       -27.3443
  33   2.0000      -0.990677       -26.9577
  34   2.0000      -0.980667       -26.6853
  35   2.0000      -0.970082       -26.3973
  36   2.0000      -0.963900       -26.2290
  37   2.0000      -0.957592       -26.0574
  38   2.0000      -0.945975       -25.7413
  39   2.0000      -0.908868       -24.7316
  40   2.0000      -0.845087       -22.9960
  41   2.0000      -0.842466       -22.9247
  42   2.0000      -0.802182       -21.8285
  43   2.0000      -0.800132       -21.7727
  44   2.0000      -0.790802       -21.5188
  45   2.0000      -0.774895       -21.0860
  46   2.0000      -0.771181       -20.9849
  47   2.0000      -0.744267       -20.2525
  48   2.0000      -0.733329       -19.9549
  49   2.0000      -0.702305       -19.1107
  50   2.0000      -0.681031       -18.5318
  51   2.0000      -0.666270       -18.1301
  52   2.0000      -0.657524       -17.8921
  53   2.0000      -0.640001       -17.4153
  54   2.0000      -0.635269       -17.2865
  55   2.0000      -0.629501       -17.1296
  56   2.0000      -0.619359       -16.8536
  57   2.0000      -0.614502       -16.7214
  58   2.0000      -0.604438       -16.4476
  59   2.0000      -0.594189       -16.1687
  60   2.0000      -0.587234       -15.9794
  61   2.0000      -0.582821       -15.8594
  62   2.0000      -0.580950       -15.8085
  63   2.0000      -0.577761       -15.7217
  64   2.0000      -0.570622       -15.5274
  65   2.0000      -0.561712       -15.2850
  66   2.0000      -0.544261       -14.8101
  67   2.0000      -0.529007       -14.3950
  68   2.0000      -0.526366       -14.3231
  69   2.0000      -0.525042       -14.2871
  70   2.0000      -0.510493       -13.8912
  71   2.0000      -0.506335       -13.7781
  72   2.0000      -0.504833       -13.7372
  73   2.0000      -0.500718       -13.6252
  74   2.0000      -0.493695       -13.4341
  75   2.0000      -0.482112       -13.1189
  76   2.0000      -0.478448       -13.0192
  77   2.0000      -0.471473       -12.8294
  78   2.0000      -0.462892       -12.5959
  79   2.0000      -0.453956       -12.3528
  80   2.0000      -0.385925       -10.5016
  81   2.0000      -0.368560       -10.0290
  82   2.0000      -0.357735        -9.7345
  83   2.0000      -0.356154        -9.6914
  84   2.0000      -0.353202        -9.6111
  85   2.0000      -0.339623        -9.2416
  86   2.0000      -0.325821        -8.8660
  87   2.0000      -0.267251        -7.2723
  88   0.0000       0.043070         1.1720
  89   0.0000       0.063003         1.7144
  90   0.0000       0.072033         1.9601
  91   0.0000       0.075011         2.0411
  92   0.0000       0.083316         2.2671

MULLIKEN ATOMIC CHARGES
-----------------------
   0 C :   -0.289197
   1 C :   -0.262801
   2 C :    0.083136
   3 C :    0.249836
   4 C :   -0.403653
   5 C :    0.253364
   6 C :    0.214101
   7 C :    0.132113
   8 C :   -0.257801
   9 H :    0.206523
  10 C :   -0.223977
  11 C :   -0.164464
  12 C :   -0.322657
  13 H :    0.207741
  14 H :    0.184172
  15 H :    0.184238
  16 N :    0.029595
  17 C :    0.005695
  18 C :   -0.258210
  19 C :   -0.263070
  20 C :   -0.132643
  21 C :   -0.133549
  22 H :    0.189832
  23 C :   -0.160917
  24 H :    0.187933
  25 H :    0.189128
  26 H :    0.182554
  27 H :    0.187714
  28 C :    0.102313
  29 C :   -0.265216
  30 C :   -0.270682
  31 C :   -0.198682
  32 H :    0.188948
  33 C :   -0.196929
  34 H :    0.188812
  35 C :   -0.179819
  36 H :    0.184177
  37 H :    0.184112
  38 O :   -0.301571
  39 H :    0.186631
  40 H :    0.186303
  41 H :    0.187619
  42 H :    0.189243
Sum of atomic charges:    0.0000000

LOEWDIN ATOMIC CHARGES
----------------------
   0 C :   -0.114899
   1 C :   -0.122006
   2 C :   -0.141951
   3 C :   -0.194903
   4 C :   -0.076894
   5 C :   -0.126664
   6 C :   -0.197455
   7 C :   -0.142779
   8 C :   -0.125735
   9 H :    0.165959
  10 C :   -0.161420
  11 C :   -0.167591
  12 C :   -0.121854
  13 H :    0.167347
  14 H :    0.168330
  15 H :    0.157773
  16 N :    0.271393
  17 C :   -0.180310
  18 C :   -0.103112
  19 C :   -0.102819
  20 C :   -0.141512
  21 C :   -0.141536
  22 H :    0.165922
  23 C :   -0.141670
  24 H :    0.158910
  25 H :    0.158241
  26 H :    0.163541
  27 H :    0.163048
  28 C :   -0.116255
  29 C :   -0.112409
  30 C :   -0.112020
  31 C :   -0.151942
  32 H :    0.160743
  33 C :   -0.151948
  34 H :    0.160567
  35 C :   -0.156248
  36 H :    0.157139
  37 H :    0.157120
  38 O :    0.293292
  39 H :    0.156434
  40 H :    0.155468
  41 H :    0.158888
  42 H :    0.165817

  Mayer bond orders larger than 0.100000
B(  0-C ,  1-C ) :   1.4529 B(  0-C ,  5-C ) :   1.3832 B(  0-C , 27-H ) :   0.9560
B(  1-C ,  2-C ) :   1.3630 B(  1-C , 13-H ) :   0.9530 B(  2-C ,  3-C ) :   1.3435
B(  2-C , 16-N ) :   1.1020 B(  3-C ,  4-C ) :   1.5001 B(  3-C , 38-O ) :   1.0109
B(  4-C ,  5-C ) :   1.3389 B(  4-C , 14-H ) :   0.9505 B(  5-C , 28-C ) :   0.9093
B(  6-C ,  7-C ) :   1.3480 B(  6-C , 12-C ) :   1.4676 B(  6-C , 38-O ) :   1.0108
B(  7-C ,  8-C ) :   1.3734 B(  7-C , 16-N ) :   1.0798 B(  8-C ,  9-H ) :   0.9517
B(  8-C , 10-C ) :   1.3986 B( 10-C , 11-C ) :   1.4237 B( 10-C , 15-H ) :   0.9772
B( 11-C , 12-C ) :   1.3611 B( 11-C , 39-H ) :   0.9794 B( 12-C , 26-H ) :   0.9792
B( 16-N , 17-C ) :   0.7334 B( 17-C , 18-C ) :   1.4787 B( 17-C , 19-C ) :   1.4790
B( 18-C , 20-C ) :   1.4140 B( 18-C , 42-H ) :   0.9749 B( 19-C , 21-C ) :   1.4143
B( 19-C , 22-H ) :   0.9744 B( 20-C , 23-C ) :   1.3925 B( 20-C , 41-H ) :   0.9727
B( 21-C , 23-C ) :   1.3908 B( 21-C , 24-H ) :   0.9729 B( 23-C , 25-H ) :   0.9706
B( 28-C , 29-C ) :   1.3749 B( 28-C , 30-C ) :   1.3783 B( 29-C , 31-C ) :   1.4565
B( 29-C , 32-H ) :   0.9584 B( 30-C , 33-C ) :   1.4589 B( 30-C , 34-H ) :   0.9581
B( 31-C , 35-C ) :   1.4016 B( 31-C , 36-H ) :   0.9743 B( 33-C , 35-C ) :   1.3984
B( 33-C , 37-H ) :   0.9742 B( 35-C , 40-H ) :   0.9721

MP2 TOTAL ENERGY:    -1054.314225913 Eh

-----------------------------------------------------------------------------
         ABSORPTION SPECTRUM VIA TRANSITION ELECTRIC DIPOLE MOMENTS
-----------------------------------------------------------------------------
State   Energy    Wavelength  fosc         T2        TX        TY        TZ
        (cm-1)      (nm)                 (au**2)    (au)      (au)      (au)
-----------------------------------------------------------------------------
   1   29724.6    336.4   0.386522149   4.28089  -2.03079  -0.39574   0.01221
   2   32186.1    310.7   0.188643658   1.92952  -1.34113  -0.35713   0.05791
   3   33892.0    295.1   0.086642766   0.84161   0.73170   0.55259  -0.02950
   4   40623.8    246.2   0.414518957   3.35922  -1.78676   0.40697  -0.03273
   5   36227.2    276.0   0.004229163   0.03843  -0.19373   0.01179   0.02762
   6   38748.0    258.1   0.002797482   0.02377  -0.06757   0.12917   0.05019
   7   42096.8    237.5   0.001747047   0.01366   0.04381  -0.01640  -0.10712
   8   40581.1    246.4   0.083914813   0.68075   0.51196   0.62348  -0.17299
   9   48803.1    204.9   0.085259920   0.57514   0.61793   0.43905  -0.02331
  10   46588.1    214.6   0.351669818   2.48506   1.31638   0.86218  -0.09397
  11   47751.5    209.4   0.518342629   3.57360  -1.67821  -0.85771   0.14672
  12   47368.5    211.1   0.638049173   4.43445   2.04660   0.38997   0.30627
  13   46996.4    212.8   0.072507371   0.50792   0.10526  -0.53310  -0.46113
  14   49136.6    203.5   0.080543955   0.53964   0.66631  -0.09252   0.29514
  15   48711.3    205.3   1.372261628   9.27433  -1.15253   2.81358   0.17247
  16   48281.8    207.1   0.018757023   0.12790   0.32555  -0.05762  -0.13635
  17   49295.0    202.9   0.242769386   1.62131   1.24936   0.24484   0.02180
  18   54020.1    185.1   0.644565458   3.92814  -0.08661  -0.10699  -1.97717
  19   52204.0    191.6   0.847752627   5.34615   1.07233  -2.04821   0.03316
  20   51051.3    195.9   0.055163332   0.35573   0.53688  -0.22974  -0.12130
  21   52821.8    189.3   0.031652653   0.19728   0.01740  -0.38220  -0.22561
  22   52833.5    189.3   0.033764540   0.21039   0.13967  -0.39908  -0.17780
  23   52539.7    190.3   0.157535377   0.98711  -0.14718  -0.86994  -0.45680
  24   54312.4    184.1   0.051393340   0.31152   0.52891   0.17824   0.00116
  25   55195.3    181.2   0.107769663   0.64279  -0.79955  -0.00763   0.05881
  26   58571.1    170.7   0.003102313   0.01744   0.05071   0.12063  -0.01773
  27   58602.6    170.6   0.000906148   0.00509  -0.04286  -0.00524   0.05680
  28   54223.7    184.4   0.001778169   0.01080   0.00982   0.09485   0.04127
  29   57726.1    173.2   0.005090869   0.02903  -0.00038   0.07989   0.15050
  30   57551.5    173.8   0.000823681   0.00471  -0.01116   0.05753   0.03575

FINAL SINGLE POINT ENERGY     -1052.035194181389

DIPOLE MOMENT
-------------
                                X             Y             Z
Electronic contribution:      2.07402       4.41567      -0.07201
Nuclear contribution   :     -1.24498      -5.48076       0.09574
                        -----------------------------------------
Total Dipole Moment    :      0.82904      -1.06509       0.02373
                        -----------------------------------------
Magnitude (a.u.)       :      1.34992
Magnitude (Debye)      :      3.43122

Rotational constants in cm-1:     0.011848     0.003953     0.003079
Rotational constants in MHz :   355.195780   118.521258    92.295779

                             ****ORCA TERMINATED NORMALLY****
TOTAL RUN TIME: 1 days 3 hours 31 minutes 37 seconds 446 msec
