                         Program Version 5.0.2 -  RELEASE  -
|  1> %maxcore 20000
|  2> %pal
|  3>  nprocs= 4
|  4> end
|  5> ! RI-B2GP-PLYP   def2-TZVP def2/J def2-TZVP/C RIJCOSX CPCM TightSCF
|  6> %TDDFT
|  7>    NROOTS   30
|  8>    dcorr 4
|  9>    TDA      FALSE
| 10> END
| 11>
| 12> %CPCM
| 13>    SMD          TRUE
| 14>    SMDsolvent   "N,N-DIMETHYLACETAMIDE"
| 15> END
| 16>
| 17>
| 18> * xyz 0 1
| 19> C                  -1.77287600   -1.35290100    0.04927200
| 20> C                  -0.38655800   -1.33546100    0.05687600
| 21> C                   0.31713100   -0.13550500    0.01799500
| 22> C                  -0.42657000    1.05026400   -0.02028800
| 23> C                  -1.80223600    1.03245700   -0.02356400
| 24> C                  -2.51487900   -0.17444200    0.00877600
| 25> C                   1.55242600    2.33240000   -0.07729200
| 26> C                   2.33607700    1.17268300   -0.03649500
| 27> C                   3.72042600    1.31510000   -0.05766600
| 28> H                   4.34163800    0.42960600   -0.03043400
| 29> C                   4.30568100    2.57480400   -0.11330800
| 30> C                   3.51783900    3.71078700   -0.15074400
| 31> C                   2.13280100    3.58226600   -0.13349100
| 32> H                   0.16140500   -2.26725900    0.10139500
| 33> H                  -2.31851800    1.98254400   -0.07522300
| 34> H                   5.38485300    2.65502700   -0.12756000
| 35> N                   1.70692600   -0.07105400    0.01957700
| 36> C                   2.48271500   -1.27074200    0.04991400
| 37> C                   2.91959600   -1.77718600    1.26655200
| 38> C                   2.79262400   -1.92192700   -1.13659900
| 39> C                   3.67201600   -2.94187600    1.29384600
| 40> C                   3.54287700   -3.08775400   -1.10284700
| 41> H                   2.44196000   -1.51143200   -2.07565800
| 42> C                   3.98307700   -3.59737100    0.11078900
| 43> H                   3.78475800   -3.59804000   -2.02652800
| 44> H                   4.56955800   -4.50706000    0.13448500
| 45> H                   1.48616700    4.44991500   -0.16340800
| 46> H                  -2.27814100   -2.30859900    0.10115700
| 47> C                  -3.98532100   -0.18604700    0.00710000
| 48> C                  -4.72060700    0.88578800    0.52629200
| 49> C                  -4.69910300   -1.27190800   -0.51359100
| 50> C                  -6.10566800    0.87166200    0.52639000
| 51> H                  -4.19959600    1.73310000    0.95507400
| 52> C                  -6.08380400   -1.28632600   -0.51190300
| 53> H                  -4.16086900   -2.10705400   -0.94474000
| 54> C                  -6.79677700   -0.21450900    0.00781700
| 55> H                  -6.64843700    1.71203100    0.94169500
| 56> H                  -6.60963400   -2.13690300   -0.92821800
| 57> O                   0.18029500    2.28110200   -0.06225700
| 58> H                   3.96561100    4.69459300   -0.19412300
| 59> H                  -7.87940400   -0.22533900    0.00766700
| 60> H                   4.01447300   -3.33805600    2.24136100
| 61> H                   2.66800800   -1.25404800    2.18107200
| 62> *
| 63>
| 64>
| 65>                          ****END OF INPUT****

CARTESIAN COORDINATES (ANGSTROEM)
---------------------------------
  C     -1.772876   -1.352901    0.049272
  C     -0.386558   -1.335461    0.056876
  C      0.317131   -0.135505    0.017995
  C     -0.426570    1.050264   -0.020288
  C     -1.802236    1.032457   -0.023564
  C     -2.514879   -0.174442    0.008776
  C      1.552426    2.332400   -0.077292
  C      2.336077    1.172683   -0.036495
  C      3.720426    1.315100   -0.057666
  H      4.341638    0.429606   -0.030434
  C      4.305681    2.574804   -0.113308
  C      3.517839    3.710787   -0.150744
  C      2.132801    3.582266   -0.133491
  H      0.161405   -2.267259    0.101395
  H     -2.318518    1.982544   -0.075223
  H      5.384853    2.655027   -0.127560
  N      1.706926   -0.071054    0.019577
  C      2.482715   -1.270742    0.049914
  C      2.919596   -1.777186    1.266552
  C      2.792624   -1.921927   -1.136599
  C      3.672016   -2.941876    1.293846
  C      3.542877   -3.087754   -1.102847
  H      2.441960   -1.511432   -2.075658
  C      3.983077   -3.597371    0.110789
  H      3.784758   -3.598040   -2.026528
  H      4.569558   -4.507060    0.134485
  H      1.486167    4.449915   -0.163408
  H     -2.278141   -2.308599    0.101157
  C     -3.985321   -0.186047    0.007100
  C     -4.720607    0.885788    0.526292
  C     -4.699103   -1.271908   -0.513591
  C     -6.105668    0.871662    0.526390
  H     -4.199596    1.733100    0.955074
  C     -6.083804   -1.286326   -0.511903
  H     -4.160869   -2.107054   -0.944740
  C     -6.796777   -0.214509    0.007817
  H     -6.648437    1.712031    0.941695
  H     -6.609634   -2.136903   -0.928218
  O      0.180295    2.281102   -0.062257
  H      3.965611    4.694593   -0.194123
  H     -7.879404   -0.225339    0.007667
  H      4.014473   -3.338056    2.241361
  H      2.668008   -1.254048    2.181072

 Total Charge           Charge          ....    0
 Multiplicity           Mult            ....    1
 Number of Electrons    NEL             ....  176
 Basis Dimension        Dim             ....  908

ORBITAL ENERGIES
----------------

  NO   OCC          E(Eh)            E(eV)
   0   2.0000     -19.987485      -543.8871
   1   2.0000     -15.061822      -409.8530
   2   2.0000     -10.845324      -295.1163
   3   2.0000     -10.844588      -295.0962
   4   2.0000     -10.831599      -294.7428
   5   2.0000     -10.831447      -294.7387
   6   2.0000     -10.819022      -294.4006
   7   2.0000     -10.788961      -293.5826
   8   2.0000     -10.785810      -293.4968
   9   2.0000     -10.780646      -293.3563
  10   2.0000     -10.780605      -293.3552
  11   2.0000     -10.779805      -293.3334
  12   2.0000     -10.779245      -293.3182
  13   2.0000     -10.778550      -293.2992
  14   2.0000     -10.777610      -293.2737
  15   2.0000     -10.777120      -293.2603
  16   2.0000     -10.776723      -293.2495
  17   2.0000     -10.776110      -293.2329
  18   2.0000     -10.774770      -293.1964
  19   2.0000     -10.774732      -293.1954
  20   2.0000     -10.774569      -293.1909
  21   2.0000     -10.773953      -293.1742
  22   2.0000     -10.773392      -293.1589
  23   2.0000     -10.773301      -293.1564
  24   2.0000     -10.772365      -293.1309
  25   2.0000     -10.771729      -293.1136
  26   2.0000      -1.294815       -35.2337
  27   2.0000      -1.162721       -31.6393
  28   2.0000      -1.051717       -28.6187
  29   2.0000      -1.036416       -28.2023
  30   2.0000      -1.030977       -28.0543
  31   2.0000      -1.008142       -27.4329
  32   2.0000      -0.942438       -25.6450
  33   2.0000      -0.928665       -25.2703
  34   2.0000      -0.919279       -25.0149
  35   2.0000      -0.909375       -24.7454
  36   2.0000      -0.902984       -24.5714
  37   2.0000      -0.896679       -24.3999
  38   2.0000      -0.885333       -24.0911
  39   2.0000      -0.849278       -23.1100
  40   2.0000      -0.786819       -21.4104
  41   2.0000      -0.784195       -21.3390
  42   2.0000      -0.745568       -20.2879
  43   2.0000      -0.744011       -20.2456
  44   2.0000      -0.734481       -19.9862
  45   2.0000      -0.719311       -19.5734
  46   2.0000      -0.715613       -19.4728
  47   2.0000      -0.688679       -18.7399
  48   2.0000      -0.678414       -18.4606
  49   2.0000      -0.648136       -17.6367
  50   2.0000      -0.627396       -17.0723
  51   2.0000      -0.613052       -16.6820
  52   2.0000      -0.605459       -16.4754
  53   2.0000      -0.585416       -15.9300
  54   2.0000      -0.583313       -15.8728
  55   2.0000      -0.578013       -15.7285
  56   2.0000      -0.568419       -15.4675
  57   2.0000      -0.561122       -15.2689
  58   2.0000      -0.553707       -15.0671
  59   2.0000      -0.544389       -14.8136
  60   2.0000      -0.537921       -14.6376
  61   2.0000      -0.533294       -14.5117
  62   2.0000      -0.531586       -14.4652
  63   2.0000      -0.528429       -14.3793
  64   2.0000      -0.522471       -14.2172
  65   2.0000      -0.513402       -13.9704
  66   2.0000      -0.494457       -13.4548
  67   2.0000      -0.478599       -13.0233
  68   2.0000      -0.477153       -12.9840
  69   2.0000      -0.472240       -12.8503
  70   2.0000      -0.460122       -12.5205
  71   2.0000      -0.458649       -12.4805
  72   2.0000      -0.454818       -12.3762
  73   2.0000      -0.453337       -12.3359
  74   2.0000      -0.446471       -12.1491
  75   2.0000      -0.435745       -11.8572
  76   2.0000      -0.432695       -11.7742
  77   2.0000      -0.425843       -11.5878
  78   2.0000      -0.417637       -11.3645
  79   2.0000      -0.404161       -10.9978
  80   2.0000      -0.339408        -9.2357
  81   2.0000      -0.323108        -8.7922
  82   2.0000      -0.313318        -8.5258
  83   2.0000      -0.311848        -8.4858
  84   2.0000      -0.308806        -8.4030
  85   2.0000      -0.295481        -8.0404
  86   2.0000      -0.282093        -7.6761
  87   2.0000      -0.225458        -6.1350
  88   0.0000       0.026381         0.7179
  89   0.0000       0.045136         1.2282
  90   0.0000       0.052985         1.4418
  91   0.0000       0.056292         1.5318
  92   0.0000       0.064245         1.7482

MULLIKEN ATOMIC CHARGES
-----------------------
   0 C :   -0.273363
   1 C :   -0.226578
   2 C :    0.081723
   3 C :    0.281954
   4 C :   -0.396569
   5 C :    0.269529
   6 C :    0.233461
   7 C :    0.131946
   8 C :   -0.234307
   9 H :    0.178773
  10 C :   -0.200575
  11 C :   -0.141976
  12 C :   -0.301461
  13 H :    0.179606
  14 H :    0.151621
  15 H :    0.159929
  16 N :   -0.000876
  17 C :    0.116596
  18 C :   -0.258204
  19 C :   -0.262812
  20 C :   -0.113413
  21 C :   -0.114564
  22 H :    0.163689
  23 C :   -0.141374
  24 H :    0.163783
  25 H :    0.165180
  26 H :    0.155439
  27 H :    0.160213
  28 C :    0.100502
  29 C :   -0.245372
  30 C :   -0.251579
  31 C :   -0.168776
  32 H :    0.161451
  33 C :   -0.166927
  34 H :    0.161100
  35 C :   -0.159707
  36 H :    0.159621
  37 H :    0.159561
  38 O :   -0.327556
  39 H :    0.161712
  40 H :    0.161867
  41 H :    0.163520
  42 H :    0.163214
Sum of atomic charges:   -0.0000000

LOEWDIN ATOMIC CHARGES
----------------------
   0 C :   -0.111899
   1 C :   -0.118533
   2 C :   -0.137802
   3 C :   -0.190778
   4 C :   -0.075014
   5 C :   -0.121229
   6 C :   -0.192771
   7 C :   -0.138065
   8 C :   -0.121630
   9 H :    0.160392
  10 C :   -0.157566
  11 C :   -0.163438
  12 C :   -0.119128
  13 H :    0.161551
  14 H :    0.161981
  15 H :    0.151613
  16 N :    0.271711
  17 C :   -0.169854
  18 C :   -0.098463
  19 C :   -0.098081
  20 C :   -0.137360
  21 C :   -0.137419
  22 H :    0.159575
  23 C :   -0.137578
  24 H :    0.152962
  25 H :    0.152329
  26 H :    0.157071
  27 H :    0.156976
  28 C :   -0.110296
  29 C :   -0.108243
  30 C :   -0.107821
  31 C :   -0.147535
  32 H :    0.154997
  33 C :   -0.147555
  34 H :    0.154810
  35 C :   -0.152270
  36 H :    0.151089
  37 H :    0.151068
  38 O :    0.290040
  39 H :    0.150307
  40 H :    0.149442
  41 H :    0.152940
  42 H :    0.159475

  Mayer bond orders larger than 0.100000
B(  0-C ,  1-C ) :   1.4251 B(  0-C ,  5-C ) :   1.3823 B(  0-C , 27-H ) :   0.9729
B(  1-C ,  2-C ) :   1.3632 B(  1-C , 13-H ) :   0.9652 B(  2-C ,  3-C ) :   1.3215
B(  2-C , 16-N ) :   1.0972 B(  3-C ,  4-C ) :   1.4719 B(  3-C , 38-O ) :   0.9979
B(  4-C ,  5-C ) :   1.3317 B(  4-C , 14-H ) :   0.9847 B(  5-C , 28-C ) :   0.9112
B(  6-C ,  7-C ) :   1.3328 B(  6-C , 12-C ) :   1.4650 B(  6-C , 38-O ) :   0.9951
B(  7-C ,  8-C ) :   1.3745 B(  7-C , 16-N ) :   1.0755 B(  8-C ,  9-H ) :   0.9608
B(  8-C , 10-C ) :   1.3950 B( 10-C , 11-C ) :   1.4263 B( 10-C , 15-H ) :   0.9836
B( 11-C , 12-C ) :   1.3631 B( 11-C , 39-H ) :   0.9858 B( 12-C , 26-H ) :   0.9917
B( 16-N , 17-C ) :   0.7102 B( 17-C , 18-C ) :   1.4671 B( 17-C , 19-C ) :   1.4673
B( 18-C , 20-C ) :   1.4153 B( 18-C , 42-H ) :   0.9835 B( 19-C , 21-C ) :   1.4155
B( 19-C , 22-H ) :   0.9830 B( 20-C , 23-C ) :   1.3959 B( 20-C , 41-H ) :   0.9790
B( 21-C , 23-C ) :   1.3944 B( 21-C , 24-H ) :   0.9793 B( 23-C , 25-H ) :   0.9751
B( 28-C , 29-C ) :   1.3787 B( 28-C , 30-C ) :   1.3821 B( 29-C , 31-C ) :   1.4513
B( 29-C , 32-H ) :   0.9681 B( 30-C , 33-C ) :   1.4538 B( 30-C , 34-H ) :   0.9679
B( 31-C , 35-C ) :   1.4025 B( 31-C , 36-H ) :   0.9810 B( 33-C , 35-C ) :   1.3991
B( 33-C , 37-H ) :   0.9809 B( 35-C , 40-H ) :   0.9771

MP2 TOTAL ENERGY:    -1054.048183946 Eh

-----------------------------------------------------------------------------
         ABSORPTION SPECTRUM VIA TRANSITION ELECTRIC DIPOLE MOMENTS
-----------------------------------------------------------------------------
State   Energy    Wavelength  fosc         T2        TX        TY        TZ
        (cm-1)      (nm)                 (au**2)    (au)      (au)      (au)
-----------------------------------------------------------------------------
   1   28326.3    353.0   0.377643817   4.38902   2.05740   0.39494  -0.01169
   2   31043.2    322.1   0.200038126   2.12140   1.40494   0.37898  -0.06247
   3   32958.9    303.4   0.067136108   0.67059   0.61872   0.53590  -0.02425
   4   33169.9    301.5   0.008126843   0.08066   0.27059  -0.08544   0.01193
   5   39005.1    256.4   0.409073940   3.45267  -1.81538   0.39436  -0.03941
   6   38155.2    262.1   0.015597292   0.13458  -0.32583   0.14861   0.07954
   7   36667.6    272.7   0.007876803   0.07072   0.26025  -0.02862   0.04662
   8   42074.8    237.7   0.003799062   0.02973  -0.05734  -0.09975   0.12840
   9   41765.0    239.4   0.489320453   3.85706   1.46427   1.29646  -0.17936
  10   48011.8    208.3   0.129636822   0.88891   0.88026   0.31601  -0.11909
  11   46651.9    214.4   0.299715794   2.11503  -1.43207  -0.24395   0.06842
  12   45118.1    221.6   0.380197152   2.77417   1.33604   0.87719   0.46873
  13   46909.2    213.2   0.085598421   0.60074  -0.68177   0.33328   0.15766
  14   44834.9    223.0   0.260932537   1.91596   0.06847   1.37874   0.10180
  15   47196.0    211.9   0.141783160   0.98900   0.04882   0.99295  -0.02579
  16   46502.7    215.0   0.071807584   0.50836   0.17530  -0.67792   0.13434
  17   49025.9    204.0   0.950594427   6.38330  -2.12027   1.37240  -0.06535
  18   48888.4    204.5   0.086158358   0.58019   0.68334   0.25842  -0.21554
  19   50195.8    199.2   0.445782672   2.92369  -0.51098   1.62839  -0.10459
  20   50446.9    198.2   0.569038843   3.71350  -0.77538   1.73929   0.29520
  21   53185.1    188.0   0.584511021   3.61808  -0.05839  -0.13416  -1.89649
  22   51038.1    195.9   0.105134543   0.67815  -0.43756  -0.49256  -0.49405
  23   50649.1    197.4   0.118942372   0.77311   0.11478   0.85792   0.15463
  24   51802.7    193.0   0.072004991   0.45760   0.67468  -0.02747   0.04065
  25   53016.2    188.6   0.006495750   0.04034  -0.05024   0.19445  -0.00003
  26   49769.7    200.9   0.001494248   0.00988   0.06349   0.07497  -0.01526
  27   53312.4    187.6   0.003338196   0.02061   0.02644  -0.09320  -0.10596
  28   53066.8    188.4   0.075220006   0.46664   0.65681  -0.15542  -0.10529
  29   51640.0    193.6   0.008582364   0.05471   0.09665  -0.04857   0.20740
  30   51786.7    193.1   0.033025471   0.20995  -0.42209   0.17011   0.05338

FINAL SINGLE POINT ENERGY     -1052.202423283692

DIPOLE MOMENT
-------------
                                X             Y             Z
Electronic contribution:      2.09062       4.41299      -0.07165
Nuclear contribution   :     -1.24498      -5.48076       0.09574
                        -----------------------------------------
Total Dipole Moment    :      0.84564      -1.06778       0.02409
                        -----------------------------------------
Magnitude (a.u.)       :      1.36229
Magnitude (Debye)      :      3.46266

Rotational constants in cm-1:     0.011848     0.003953     0.003079
Rotational constants in MHz :   355.195780   118.521258    92.295779

                             ****ORCA TERMINATED NORMALLY****
TOTAL RUN TIME: 0 days 4 hours 55 minutes 34 seconds 611 msec
