                         Program Version 5.0.2 -  RELEASE  -
|  1> %maxcore 3200
|  2> %pal
|  3>  nprocs= 8
|  4> end
|  5> ! RI-wB2PLYP def2-TZVP def2/J def2-TZVP/C RIJCOSX CPCM TightSCF
|  6> %TDDFT DCORR 1
|  7>    NROOTS   30
|  8>
|  9>    TDA      FALSE
| 10> END
| 11>
| 12> %CPCM
| 13>    SMD          TRUE
| 14>    SMDsolvent   "N,N-DIMETHYLACETAMIDE"
| 15> END
| 16>
| 17>
| 18> * xyz 0 1
| 19> C                  -1.77287600   -1.35290100    0.04927200
| 20> C                  -0.38655800   -1.33546100    0.05687600
| 21> C                   0.31713100   -0.13550500    0.01799500
| 22> C                  -0.42657000    1.05026400   -0.02028800
| 23> C                  -1.80223600    1.03245700   -0.02356400
| 24> C                  -2.51487900   -0.17444200    0.00877600
| 25> C                   1.55242600    2.33240000   -0.07729200
| 26> C                   2.33607700    1.17268300   -0.03649500
| 27> C                   3.72042600    1.31510000   -0.05766600
| 28> H                   4.34163800    0.42960600   -0.03043400
| 29> C                   4.30568100    2.57480400   -0.11330800
| 30> C                   3.51783900    3.71078700   -0.15074400
| 31> C                   2.13280100    3.58226600   -0.13349100
| 32> H                   0.16140500   -2.26725900    0.10139500
| 33> H                  -2.31851800    1.98254400   -0.07522300
| 34> H                   5.38485300    2.65502700   -0.12756000
| 35> N                   1.70692600   -0.07105400    0.01957700
| 36> C                   2.48271500   -1.27074200    0.04991400
| 37> C                   2.91959600   -1.77718600    1.26655200
| 38> C                   2.79262400   -1.92192700   -1.13659900
| 39> C                   3.67201600   -2.94187600    1.29384600
| 40> C                   3.54287700   -3.08775400   -1.10284700
| 41> H                   2.44196000   -1.51143200   -2.07565800
| 42> C                   3.98307700   -3.59737100    0.11078900
| 43> H                   3.78475800   -3.59804000   -2.02652800
| 44> H                   4.56955800   -4.50706000    0.13448500
| 45> H                   1.48616700    4.44991500   -0.16340800
| 46> H                  -2.27814100   -2.30859900    0.10115700
| 47> C                  -3.98532100   -0.18604700    0.00710000
| 48> C                  -4.72060700    0.88578800    0.52629200
| 49> C                  -4.69910300   -1.27190800   -0.51359100
| 50> C                  -6.10566800    0.87166200    0.52639000
| 51> H                  -4.19959600    1.73310000    0.95507400
| 52> C                  -6.08380400   -1.28632600   -0.51190300
| 53> H                  -4.16086900   -2.10705400   -0.94474000
| 54> C                  -6.79677700   -0.21450900    0.00781700
| 55> H                  -6.64843700    1.71203100    0.94169500
| 56> H                  -6.60963400   -2.13690300   -0.92821800
| 57> O                   0.18029500    2.28110200   -0.06225700
| 58> H                   3.96561100    4.69459300   -0.19412300
| 59> H                  -7.87940400   -0.22533900    0.00766700
| 60> H                   4.01447300   -3.33805600    2.24136100
| 61> H                   2.66800800   -1.25404800    2.18107200
| 62> *
| 63>
| 64>
| 65>                          ****END OF INPUT****

CARTESIAN COORDINATES (ANGSTROEM)
---------------------------------
  C     -1.772876   -1.352901    0.049272
  C     -0.386558   -1.335461    0.056876
  C      0.317131   -0.135505    0.017995
  C     -0.426570    1.050264   -0.020288
  C     -1.802236    1.032457   -0.023564
  C     -2.514879   -0.174442    0.008776
  C      1.552426    2.332400   -0.077292
  C      2.336077    1.172683   -0.036495
  C      3.720426    1.315100   -0.057666
  H      4.341638    0.429606   -0.030434
  C      4.305681    2.574804   -0.113308
  C      3.517839    3.710787   -0.150744
  C      2.132801    3.582266   -0.133491
  H      0.161405   -2.267259    0.101395
  H     -2.318518    1.982544   -0.075223
  H      5.384853    2.655027   -0.127560
  N      1.706926   -0.071054    0.019577
  C      2.482715   -1.270742    0.049914
  C      2.919596   -1.777186    1.266552
  C      2.792624   -1.921927   -1.136599
  C      3.672016   -2.941876    1.293846
  C      3.542877   -3.087754   -1.102847
  H      2.441960   -1.511432   -2.075658
  C      3.983077   -3.597371    0.110789
  H      3.784758   -3.598040   -2.026528
  H      4.569558   -4.507060    0.134485
  H      1.486167    4.449915   -0.163408
  H     -2.278141   -2.308599    0.101157
  C     -3.985321   -0.186047    0.007100
  C     -4.720607    0.885788    0.526292
  C     -4.699103   -1.271908   -0.513591
  C     -6.105668    0.871662    0.526390
  H     -4.199596    1.733100    0.955074
  C     -6.083804   -1.286326   -0.511903
  H     -4.160869   -2.107054   -0.944740
  C     -6.796777   -0.214509    0.007817
  H     -6.648437    1.712031    0.941695
  H     -6.609634   -2.136903   -0.928218
  O      0.180295    2.281102   -0.062257
  H      3.965611    4.694593   -0.194123
  H     -7.879404   -0.225339    0.007667
  H      4.014473   -3.338056    2.241361
  H      2.668008   -1.254048    2.181072

 Total Charge           Charge          ....    0
 Multiplicity           Mult            ....    1
 Number of Electrons    NEL             ....  176
 Basis Dimension        Dim             ....  908

ORBITAL ENERGIES
----------------

  NO   OCC          E(Eh)            E(eV)
   0   2.0000     -19.844968      -540.0090
   1   2.0000     -14.945369      -406.6842
   2   2.0000     -10.757147      -292.7169
   3   2.0000     -10.756230      -292.6919
   4   2.0000     -10.743607      -292.3484
   5   2.0000     -10.743349      -292.3414
   6   2.0000     -10.730318      -291.9868
   7   2.0000     -10.700702      -291.1809
   8   2.0000     -10.697778      -291.1013
   9   2.0000     -10.691744      -290.9371
  10   2.0000     -10.691710      -290.9362
  11   2.0000     -10.690873      -290.9135
  12   2.0000     -10.690356      -290.8994
  13   2.0000     -10.689702      -290.8816
  14   2.0000     -10.689381      -290.8728
  15   2.0000     -10.688491      -290.8486
  16   2.0000     -10.688300      -290.8434
  17   2.0000     -10.687522      -290.8223
  18   2.0000     -10.686358      -290.7906
  19   2.0000     -10.685817      -290.7759
  20   2.0000     -10.685696      -290.7726
  21   2.0000     -10.685206      -290.7592
  22   2.0000     -10.684715      -290.7459
  23   2.0000     -10.684615      -290.7432
  24   2.0000     -10.683555      -290.7143
  25   2.0000     -10.682958      -290.6981
  26   2.0000      -1.322978       -36.0001
  27   2.0000      -1.195978       -32.5442
  28   2.0000      -1.089087       -29.6356
  29   2.0000      -1.073537       -29.2124
  30   2.0000      -1.068183       -29.0667
  31   2.0000      -1.045694       -28.4548
  32   2.0000      -0.980672       -26.6855
  33   2.0000      -0.967281       -26.3210
  34   2.0000      -0.957438       -26.0532
  35   2.0000      -0.947135       -25.7728
  36   2.0000      -0.941046       -25.6072
  37   2.0000      -0.934795       -25.4371
  38   2.0000      -0.923261       -25.1232
  39   2.0000      -0.887365       -24.1464
  40   2.0000      -0.827389       -22.5144
  41   2.0000      -0.825277       -22.4569
  42   2.0000      -0.785836       -21.3837
  43   2.0000      -0.784077       -21.3358
  44   2.0000      -0.774673       -21.0799
  45   2.0000      -0.759374       -20.6636
  46   2.0000      -0.755516       -20.5586
  47   2.0000      -0.731421       -19.9030
  48   2.0000      -0.719384       -19.5754
  49   2.0000      -0.691245       -18.8097
  50   2.0000      -0.670435       -18.2435
  51   2.0000      -0.655118       -17.8267
  52   2.0000      -0.645909       -17.5761
  53   2.0000      -0.630113       -17.1462
  54   2.0000      -0.624853       -17.0031
  55   2.0000      -0.618716       -16.8361
  56   2.0000      -0.609160       -16.5761
  57   2.0000      -0.604291       -16.4436
  58   2.0000      -0.595072       -16.1927
  59   2.0000      -0.584990       -15.9184
  60   2.0000      -0.578091       -15.7307
  61   2.0000      -0.574660       -15.6373
  62   2.0000      -0.572285       -15.5727
  63   2.0000      -0.569273       -15.4907
  64   2.0000      -0.562973       -15.3193
  65   2.0000      -0.554139       -15.0789
  66   2.0000      -0.534804       -14.5528
  67   2.0000      -0.522130       -14.2079
  68   2.0000      -0.519139       -14.1265
  69   2.0000      -0.518156       -14.0997
  70   2.0000      -0.506554       -13.7840
  71   2.0000      -0.502568       -13.6756
  72   2.0000      -0.498119       -13.5545
  73   2.0000      -0.493794       -13.4368
  74   2.0000      -0.487408       -13.2631
  75   2.0000      -0.476266       -12.9598
  76   2.0000      -0.471858       -12.8399
  77   2.0000      -0.464815       -12.6483
  78   2.0000      -0.456539       -12.4231
  79   2.0000      -0.449474       -12.2308
  80   2.0000      -0.383164       -10.4264
  81   2.0000      -0.366265        -9.9666
  82   2.0000      -0.355423        -9.6716
  83   2.0000      -0.354042        -9.6340
  84   2.0000      -0.351189        -9.5563
  85   2.0000      -0.336901        -9.1675
  86   2.0000      -0.322968        -8.7884
  87   2.0000      -0.263694        -7.1755
  88   0.0000       0.049729         1.3532
  89   0.0000       0.069327         1.8865
  90   0.0000       0.078099         2.1252
  91   0.0000       0.081244         2.2107
  92   0.0000       0.089456         2.4342

MULLIKEN ATOMIC CHARGES
-----------------------
   0 C :   -0.269865
   1 C :   -0.238278
   2 C :    0.073199
   3 C :    0.227604
   4 C :   -0.358443
   5 C :    0.209046
   6 C :    0.207647
   7 C :    0.117343
   8 C :   -0.231581
   9 H :    0.199152
  10 C :   -0.217541
  11 C :   -0.165872
  12 C :   -0.299429
  13 H :    0.200460
  14 H :    0.174907
  15 H :    0.177930
  16 N :   -0.007371
  17 C :    0.014135
  18 C :   -0.234897
  19 C :   -0.239029
  20 C :   -0.135256
  21 C :   -0.135849
  22 H :    0.183179
  23 C :   -0.157776
  24 H :    0.181915
  25 H :    0.183086
  26 H :    0.175272
  27 H :    0.179760
  28 C :    0.103044
  29 C :   -0.246629
  30 C :   -0.250668
  31 C :   -0.194237
  32 H :    0.180473
  33 C :   -0.192688
  34 H :    0.180418
  35 C :   -0.175715
  36 H :    0.177632
  37 H :    0.177521
  38 O :   -0.295289
  39 H :    0.178907
  40 H :    0.179492
  41 H :    0.181565
  42 H :    0.182723
Sum of atomic charges:    0.0000000

LOEWDIN ATOMIC CHARGES
----------------------
   0 C :   -0.114594
   1 C :   -0.121293
   2 C :   -0.140298
   3 C :   -0.195984
   4 C :   -0.077431
   5 C :   -0.123094
   6 C :   -0.198146
   7 C :   -0.140623
   8 C :   -0.124586
   9 H :    0.164231
  10 C :   -0.160424
  11 C :   -0.166496
  12 C :   -0.121861
  13 H :    0.165475
  14 H :    0.166074
  15 H :    0.155620
  16 N :    0.273675
  17 C :   -0.176053
  18 C :   -0.102036
  19 C :   -0.101669
  20 C :   -0.140652
  21 C :   -0.140697
  22 H :    0.163704
  23 C :   -0.140725
  24 H :    0.156914
  25 H :    0.156274
  26 H :    0.161232
  27 H :    0.160931
  28 C :   -0.112167
  29 C :   -0.111363
  30 C :   -0.110978
  31 C :   -0.150776
  32 H :    0.158866
  33 C :   -0.150792
  34 H :    0.158678
  35 C :   -0.155255
  36 H :    0.155081
  37 H :    0.155061
  38 O :    0.297987
  39 H :    0.154275
  40 H :    0.153417
  41 H :    0.156896
  42 H :    0.163599

  Mayer bond orders larger than 0.100000
B(  0-C ,  1-C ) :   1.4539 B(  0-C ,  5-C ) :   1.3922 B(  0-C , 27-H ) :   0.9565
B(  1-C ,  2-C ) :   1.3475 B(  1-C , 13-H ) :   0.9532 B(  2-C ,  3-C ) :   1.3087
B(  2-C , 16-N ) :   1.0927 B(  3-C ,  4-C ) :   1.5083 B(  3-C , 38-O ) :   1.0108
B(  4-C ,  5-C ) :   1.3539 B(  4-C , 14-H ) :   0.9498 B(  5-C , 28-C ) :   0.9146
B(  6-C ,  7-C ) :   1.3142 B(  6-C , 12-C ) :   1.4659 B(  6-C , 38-O ) :   1.0092
B(  7-C ,  8-C ) :   1.3557 B(  7-C , 16-N ) :   1.0752 B(  8-C ,  9-H ) :   0.9515
B(  8-C , 10-C ) :   1.4010 B( 10-C , 11-C ) :   1.4324 B( 10-C , 15-H ) :   0.9758
B( 11-C , 12-C ) :   1.3711 B( 11-C , 39-H ) :   0.9799 B( 12-C , 26-H ) :   0.9753
B( 16-N , 17-C ) :   0.7133 B( 17-C , 18-C ) :   1.4582 B( 17-C , 19-C ) :   1.4581
B( 18-C , 20-C ) :   1.4079 B( 18-C , 42-H ) :   0.9741 B( 19-C , 21-C ) :   1.4081
B( 19-C , 22-H ) :   0.9737 B( 20-C , 23-C ) :   1.3957 B( 20-C , 41-H ) :   0.9727
B( 21-C , 23-C ) :   1.3943 B( 21-C , 24-H ) :   0.9727 B( 23-C , 25-H ) :   0.9693
B( 28-C , 29-C ) :   1.3708 B( 28-C , 30-C ) :   1.3738 B( 29-C , 31-C ) :   1.4525
B( 29-C , 32-H ) :   0.9588 B( 30-C , 33-C ) :   1.4546 B( 30-C , 34-H ) :   0.9584
B( 31-C , 35-C ) :   1.4025 B( 31-C , 36-H ) :   0.9744 B( 33-C , 35-C ) :   1.3994
B( 33-C , 37-H ) :   0.9744 B( 35-C , 40-H ) :   0.9715

MP2 TOTAL ENERGY:    -1053.066728221 Eh

-----------------------------------------------------------------------------
         ABSORPTION SPECTRUM VIA TRANSITION ELECTRIC DIPOLE MOMENTS
-----------------------------------------------------------------------------
State   Energy    Wavelength  fosc         T2        TX        TY        TZ
        (cm-1)      (nm)                 (au**2)    (au)      (au)      (au)
-----------------------------------------------------------------------------
   1   30844.4    324.2   0.381000938   4.06655   1.97557   0.40437  -0.01255
   2   33989.1    294.2   0.203859025   1.97454  -1.34971  -0.38658   0.05808
   3   35704.4    280.1   0.083889424   0.77350   0.69276   0.54113  -0.02768
   4   41150.3    243.0   0.462555079   3.70055  -1.88268   0.39368  -0.03264
   5   39726.5    251.7   0.009798421   0.08120  -0.27669   0.05392   0.04165
   6   39919.4    250.5   0.002223981   0.01834   0.02477  -0.12700  -0.03998
   7   43294.9    231.0   0.001591659   0.01210  -0.03871   0.00904   0.10258
   8   43533.4    229.7   0.131216635   0.99230   0.65132   0.73058  -0.18528
   9   47650.3    209.9   0.228159679   1.57633  -1.02178  -0.72880   0.03410
  10   47930.8    208.6   0.404740840   2.77996   1.41077   0.88476  -0.08292
  11   48981.2    204.2   0.350369413   2.35490   1.38137   0.64890  -0.16012
  12   47581.3    210.2   0.062455529   0.43213  -0.31758  -0.39114  -0.42223
  13   48585.9    205.8   0.553480921   3.75032   1.90173   0.26336   0.25374
  14   50452.1    198.2   0.112702694   0.73541  -0.74843   0.24718  -0.33788
  15   50289.1    198.9   1.444847189   9.45854   1.16695  -2.83515  -0.24228
  16   50353.7    198.6   0.032106743   0.20991   0.35661  -0.24005  -0.15850
  17   51938.7    192.5   0.238965881   1.51468  -1.12836  -0.49065  -0.02739
  18   54743.0    182.7   0.646760236   3.88947   0.08380   0.10938   1.96735
  19   53911.9    185.5   0.848219078   5.17963  -1.17844   1.94678  -0.03144
  20   53968.1    185.3   0.019265214   0.11752   0.28947  -0.10746  -0.14893
  21   54605.2    183.1   0.015037523   0.09066   0.23269   0.18379   0.05233
  22   55208.0    181.1   0.050595159   0.30171   0.19020  -0.45830  -0.23556
  23   56180.0    178.0   0.164535187   0.96417   0.13965   0.85989   0.45305
  24   58710.8    170.3   0.011011146   0.06174  -0.02803   0.24313   0.04297
  25   59050.1    169.3   0.005578598   0.03110  -0.09143   0.12770   0.08022
  26   57678.8    173.4   0.035219083   0.20102   0.42607   0.13951   0.00463
  27   58366.5    171.3   0.134723305   0.75990   0.86481   0.10257  -0.03855
  28   61057.7    163.8   0.004035758   0.02176   0.04050  -0.06482  -0.12617
  29   59170.4    169.0   0.006649415   0.03700   0.01409   0.13031   0.14077
  30   61214.5    163.4   0.001484768   0.00799  -0.01721   0.02775  -0.08318

FINAL SINGLE POINT ENERGY     -1051.701204604915

DIPOLE MOMENT
-------------
                                X             Y             Z
Electronic contribution:      2.07417       4.41055      -0.07177
Nuclear contribution   :     -1.24498      -5.48076       0.09574
                        -----------------------------------------
Total Dipole Moment    :      0.82918      -1.07021       0.02397
                        -----------------------------------------
Magnitude (a.u.)       :      1.35406
Magnitude (Debye)      :      3.44174

Rotational constants in cm-1:     0.011848     0.003953     0.003079
Rotational constants in MHz :   355.195780   118.521258    92.295779

                             ****ORCA TERMINATED NORMALLY****
TOTAL RUN TIME: 0 days 0 hours 50 minutes 28 seconds 807 msec
