                         Program Version 5.0.2 -  RELEASE  -
|  1> %maxcore 24000
|  2> %pal
|  3>  nprocs= 8
|  4> end
|  5> ! RI-DSD-BLYP D3BJ def2-TZVP def2/J def2-TZVP/C RIJCOSX CPCM TightSCF
|  6> %TDDFT
|  7>    NROOTS   30
|  8>    dcorr 4
|  9>    doscs true
| 10>    scspar 0.333, 1.2, 0.43, 1.24
| 11>    TDA      FALSE
| 12> END
| 13>
| 14> %CPCM
| 15>    SMD          TRUE
| 16>    SMDsolvent   "N,N-DIMETHYLACETAMIDE"
| 17> END
| 18>
| 19>
| 20> * xyz 0 1
| 21> C                  -1.77287600   -1.35290100    0.04927200
| 22> C                  -0.38655800   -1.33546100    0.05687600
| 23> C                   0.31713100   -0.13550500    0.01799500
| 24> C                  -0.42657000    1.05026400   -0.02028800
| 25> C                  -1.80223600    1.03245700   -0.02356400
| 26> C                  -2.51487900   -0.17444200    0.00877600
| 27> C                   1.55242600    2.33240000   -0.07729200
| 28> C                   2.33607700    1.17268300   -0.03649500
| 29> C                   3.72042600    1.31510000   -0.05766600
| 30> H                   4.34163800    0.42960600   -0.03043400
| 31> C                   4.30568100    2.57480400   -0.11330800
| 32> C                   3.51783900    3.71078700   -0.15074400
| 33> C                   2.13280100    3.58226600   -0.13349100
| 34> H                   0.16140500   -2.26725900    0.10139500
| 35> H                  -2.31851800    1.98254400   -0.07522300
| 36> H                   5.38485300    2.65502700   -0.12756000
| 37> N                   1.70692600   -0.07105400    0.01957700
| 38> C                   2.48271500   -1.27074200    0.04991400
| 39> C                   2.91959600   -1.77718600    1.26655200
| 40> C                   2.79262400   -1.92192700   -1.13659900
| 41> C                   3.67201600   -2.94187600    1.29384600
| 42> C                   3.54287700   -3.08775400   -1.10284700
| 43> H                   2.44196000   -1.51143200   -2.07565800
| 44> C                   3.98307700   -3.59737100    0.11078900
| 45> H                   3.78475800   -3.59804000   -2.02652800
| 46> H                   4.56955800   -4.50706000    0.13448500
| 47> H                   1.48616700    4.44991500   -0.16340800
| 48> H                  -2.27814100   -2.30859900    0.10115700
| 49> C                  -3.98532100   -0.18604700    0.00710000
| 50> C                  -4.72060700    0.88578800    0.52629200
| 51> C                  -4.69910300   -1.27190800   -0.51359100
| 52> C                  -6.10566800    0.87166200    0.52639000
| 53> H                  -4.19959600    1.73310000    0.95507400
| 54> C                  -6.08380400   -1.28632600   -0.51190300
| 55> H                  -4.16086900   -2.10705400   -0.94474000
| 56> C                  -6.79677700   -0.21450900    0.00781700
| 57> H                  -6.64843700    1.71203100    0.94169500
| 58> H                  -6.60963400   -2.13690300   -0.92821800
| 59> O                   0.18029500    2.28110200   -0.06225700
| 60> H                   3.96561100    4.69459300   -0.19412300
| 61> H                  -7.87940400   -0.22533900    0.00766700
| 62> H                   4.01447300   -3.33805600    2.24136100
| 63> H                   2.66800800   -1.25404800    2.18107200
| 64> *
| 65>
| 66>
| 67>                          ****END OF INPUT****

CARTESIAN COORDINATES (ANGSTROEM)
---------------------------------
  C     -1.772876   -1.352901    0.049272
  C     -0.386558   -1.335461    0.056876
  C      0.317131   -0.135505    0.017995
  C     -0.426570    1.050264   -0.020288
  C     -1.802236    1.032457   -0.023564
  C     -2.514879   -0.174442    0.008776
  C      1.552426    2.332400   -0.077292
  C      2.336077    1.172683   -0.036495
  C      3.720426    1.315100   -0.057666
  H      4.341638    0.429606   -0.030434
  C      4.305681    2.574804   -0.113308
  C      3.517839    3.710787   -0.150744
  C      2.132801    3.582266   -0.133491
  H      0.161405   -2.267259    0.101395
  H     -2.318518    1.982544   -0.075223
  H      5.384853    2.655027   -0.127560
  N      1.706926   -0.071054    0.019577
  C      2.482715   -1.270742    0.049914
  C      2.919596   -1.777186    1.266552
  C      2.792624   -1.921927   -1.136599
  C      3.672016   -2.941876    1.293846
  C      3.542877   -3.087754   -1.102847
  H      2.441960   -1.511432   -2.075658
  C      3.983077   -3.597371    0.110789
  H      3.784758   -3.598040   -2.026528
  H      4.569558   -4.507060    0.134485
  H      1.486167    4.449915   -0.163408
  H     -2.278141   -2.308599    0.101157
  C     -3.985321   -0.186047    0.007100
  C     -4.720607    0.885788    0.526292
  C     -4.699103   -1.271908   -0.513591
  C     -6.105668    0.871662    0.526390
  H     -4.199596    1.733100    0.955074
  C     -6.083804   -1.286326   -0.511903
  H     -4.160869   -2.107054   -0.944740
  C     -6.796777   -0.214509    0.007817
  H     -6.648437    1.712031    0.941695
  H     -6.609634   -2.136903   -0.928218
  O      0.180295    2.281102   -0.062257
  H      3.965611    4.694593   -0.194123
  H     -7.879404   -0.225339    0.007667
  H      4.014473   -3.338056    2.241361
  H      2.668008   -1.254048    2.181072

 Total Charge           Charge          ....    0
 Multiplicity           Mult            ....    1
 Number of Electrons    NEL             ....  176
 Basis Dimension        Dim             ....  908

ORBITAL ENERGIES
----------------

  NO   OCC          E(Eh)            E(eV)
   0   2.0000     -20.056604      -545.7679
   1   2.0000     -15.121500      -411.4769
   2   2.0000     -10.896359      -296.5050
   3   2.0000     -10.895638      -296.4854
   4   2.0000     -10.882706      -296.1335
   5   2.0000     -10.882575      -296.1299
   6   2.0000     -10.869861      -295.7839
   7   2.0000     -10.839926      -294.9694
   8   2.0000     -10.836717      -294.8821
   9   2.0000     -10.831514      -294.7405
  10   2.0000     -10.831464      -294.7391
  11   2.0000     -10.830691      -294.7181
  12   2.0000     -10.830107      -294.7022
  13   2.0000     -10.829414      -294.6833
  14   2.0000     -10.828615      -294.6616
  15   2.0000     -10.828146      -294.6488
  16   2.0000     -10.827650      -294.6353
  17   2.0000     -10.827053      -294.6191
  18   2.0000     -10.825760      -294.5839
  19   2.0000     -10.825740      -294.5834
  20   2.0000     -10.825567      -294.5786
  21   2.0000     -10.824981      -294.5627
  22   2.0000     -10.824342      -294.5453
  23   2.0000     -10.824248      -294.5427
  24   2.0000     -10.823317      -294.5174
  25   2.0000     -10.822685      -294.5002
  26   2.0000      -1.310542       -35.6617
  27   2.0000      -1.176981       -32.0273
  28   2.0000      -1.065248       -28.9869
  29   2.0000      -1.049763       -28.5655
  30   2.0000      -1.044297       -28.4168
  31   2.0000      -1.021195       -27.7881
  32   2.0000      -0.954739       -25.9798
  33   2.0000      -0.940626       -25.5957
  34   2.0000      -0.931173       -25.3385
  35   2.0000      -0.921337       -25.0708
  36   2.0000      -0.914996       -24.8983
  37   2.0000      -0.908511       -24.7218
  38   2.0000      -0.897101       -24.4114
  39   2.0000      -0.860502       -23.4155
  40   2.0000      -0.796668       -21.6784
  41   2.0000      -0.794011       -21.6061
  42   2.0000      -0.755239       -20.5511
  43   2.0000      -0.753623       -20.5071
  44   2.0000      -0.744021       -20.2458
  45   2.0000      -0.728628       -19.8270
  46   2.0000      -0.724981       -19.7277
  47   2.0000      -0.696845       -18.9621
  48   2.0000      -0.686967       -18.6933
  49   2.0000      -0.655896       -17.8478
  50   2.0000      -0.635179       -17.2841
  51   2.0000      -0.620843       -16.8940
  52   2.0000      -0.613204       -16.6861
  53   2.0000      -0.592985       -16.1359
  54   2.0000      -0.590837       -16.0775
  55   2.0000      -0.585522       -15.9329
  56   2.0000      -0.575878       -15.6704
  57   2.0000      -0.568594       -15.4722
  58   2.0000      -0.560865       -15.2619
  59   2.0000      -0.551584       -15.0094
  60   2.0000      -0.545040       -14.8313
  61   2.0000      -0.540244       -14.7008
  62   2.0000      -0.538460       -14.6522
  63   2.0000      -0.535320       -14.5668
  64   2.0000      -0.529281       -14.4025
  65   2.0000      -0.520239       -14.1564
  66   2.0000      -0.501304       -13.6412
  67   2.0000      -0.485187       -13.2026
  68   2.0000      -0.483747       -13.1634
  69   2.0000      -0.477909       -13.0046
  70   2.0000      -0.466017       -12.6810
  71   2.0000      -0.464674       -12.6444
  72   2.0000      -0.461001       -12.5445
  73   2.0000      -0.458722       -12.4825
  74   2.0000      -0.452262       -12.3067
  75   2.0000      -0.441650       -12.0179
  76   2.0000      -0.438718       -11.9381
  77   2.0000      -0.431836       -11.7508
  78   2.0000      -0.423528       -11.5248
  79   2.0000      -0.409146       -11.1334
  80   2.0000      -0.342593        -9.3224
  81   2.0000      -0.326017        -8.8714
  82   2.0000      -0.315950        -8.5974
  83   2.0000      -0.314474        -8.5573
  84   2.0000      -0.311522        -8.4769
  85   2.0000      -0.298200        -8.1144
  86   2.0000      -0.284719        -7.7476
  87   2.0000      -0.227863        -6.2005
  88   0.0000       0.034143         0.9291
  89   0.0000       0.053062         1.4439
  90   0.0000       0.061206         1.6655
  91   0.0000       0.064243         1.7481
  92   0.0000       0.072321         1.9680

MULLIKEN ATOMIC CHARGES
-----------------------
   0 C :   -0.274484
   1 C :   -0.229072
   2 C :    0.085312
   3 C :    0.286944
   4 C :   -0.402334
   5 C :    0.277560
   6 C :    0.234035
   7 C :    0.137423
   8 C :   -0.238431
   9 H :    0.178280
  10 C :   -0.199812
  11 C :   -0.140641
  12 C :   -0.303081
  13 H :    0.179215
  14 H :    0.151396
  15 H :    0.159848
  16 N :   -0.002026
  17 C :    0.126561
  18 C :   -0.263281
  19 C :   -0.268031
  20 C :   -0.112381
  21 C :   -0.113561
  22 H :    0.163564
  23 C :   -0.141291
  24 H :    0.163582
  25 H :    0.165043
  26 H :    0.155244
  27 H :    0.160205
  28 C :    0.100619
  29 C :   -0.247878
  30 C :   -0.254394
  31 C :   -0.168039
  32 H :    0.161337
  33 C :   -0.166103
  34 H :    0.160971
  35 C :   -0.159548
  36 H :    0.159512
  37 H :    0.159454
  38 O :   -0.331713
  39 H :    0.161777
  40 H :    0.161812
  41 H :    0.163322
  42 H :    0.163087
Sum of atomic charges:    0.0000000

LOEWDIN ATOMIC CHARGES
----------------------
   0 C :   -0.111414
   1 C :   -0.118283
   2 C :   -0.137072
   3 C :   -0.189784
   4 C :   -0.074405
   5 C :   -0.121021
   6 C :   -0.191778
   7 C :   -0.137300
   8 C :   -0.121353
   9 H :    0.160029
  10 C :   -0.157000
  11 C :   -0.163121
  12 C :   -0.118483
  13 H :    0.161184
  14 H :    0.161667
  15 H :    0.151260
  16 N :    0.270048
  17 C :   -0.169247
  18 C :   -0.098128
  19 C :   -0.097747
  20 C :   -0.137184
  21 C :   -0.137240
  22 H :    0.159159
  23 C :   -0.137348
  24 H :    0.152549
  25 H :    0.151920
  26 H :    0.156719
  27 H :    0.156653
  28 C :   -0.110009
  29 C :   -0.107972
  30 C :   -0.107548
  31 C :   -0.147110
  32 H :    0.154657
  33 C :   -0.147128
  34 H :    0.154472
  35 C :   -0.151956
  36 H :    0.150724
  37 H :    0.150703
  38 O :    0.287290
  39 H :    0.149938
  40 H :    0.149073
  41 H :    0.152525
  42 H :    0.159060

  Mayer bond orders larger than 0.100000
B(  0-C ,  1-C ) :   1.4235 B(  0-C ,  5-C ) :   1.3836 B(  0-C , 27-H ) :   0.9749
B(  1-C ,  2-C ) :   1.3680 B(  1-C , 13-H ) :   0.9670 B(  2-C ,  3-C ) :   1.3251
B(  2-C , 16-N ) :   1.0969 B(  3-C ,  4-C ) :   1.4713 B(  3-C , 38-O ) :   0.9972
B(  4-C ,  5-C ) :   1.3307 B(  4-C , 14-H ) :   0.9876 B(  5-C , 28-C ) :   0.9062
B(  6-C ,  7-C ) :   1.3365 B(  6-C , 12-C ) :   1.4690 B(  6-C , 38-O ) :   0.9941
B(  7-C ,  8-C ) :   1.3788 B(  7-C , 16-N ) :   1.0747 B(  8-C ,  9-H ) :   0.9625
B(  8-C , 10-C ) :   1.3957 B( 10-C , 11-C ) :   1.4271 B( 10-C , 15-H ) :   0.9846
B( 11-C , 12-C ) :   1.3633 B( 11-C , 39-H ) :   0.9867 B( 12-C , 26-H ) :   0.9928
B( 16-N , 17-C ) :   0.7099 B( 17-C , 18-C ) :   1.4698 B( 17-C , 19-C ) :   1.4700
B( 18-C , 20-C ) :   1.4177 B( 18-C , 42-H ) :   0.9843 B( 19-C , 21-C ) :   1.4179
B( 19-C , 22-H ) :   0.9838 B( 20-C , 23-C ) :   1.3969 B( 20-C , 41-H ) :   0.9801
B( 21-C , 23-C ) :   1.3953 B( 21-C , 24-H ) :   0.9804 B( 23-C , 25-H ) :   0.9761
B( 28-C , 29-C ) :   1.3803 B( 28-C , 30-C ) :   1.3839 B( 29-C , 31-C ) :   1.4525
B( 29-C , 32-H ) :   0.9697 B( 30-C , 33-C ) :   1.4550 B( 30-C , 34-H ) :   0.9696
B( 31-C , 35-C ) :   1.4035 B( 31-C , 36-H ) :   0.9821 B( 33-C , 35-C ) :   1.4000
B( 33-C , 37-H ) :   0.9820 B( 35-C , 40-H ) :   0.9781

MP2 TOTAL ENERGY:    -1053.764232048 Eh

-----------------------------------------------------------------------------
         ABSORPTION SPECTRUM VIA TRANSITION ELECTRIC DIPOLE MOMENTS
-----------------------------------------------------------------------------
State   Energy    Wavelength  fosc         T2        TX        TY        TZ
        (cm-1)      (nm)                 (au**2)    (au)      (au)      (au)
-----------------------------------------------------------------------------
   1   21469.9    465.8   0.288809433   4.42851   2.06716   0.39399  -0.01192
   2   20605.1    485.3   0.127034671   2.02966   1.37592   0.36416  -0.06238
   3   22231.7    449.8   0.049320698   0.73035   0.65882   0.54372  -0.02599
   4   23533.9    424.9   0.039958456   0.55897   0.71935  -0.20240   0.02340
   5   32245.9    310.1   0.270689450   2.76358  -1.62293   0.35867  -0.03198
   6   27663.6    361.5   0.006572180   0.07821  -0.22466   0.14793   0.07655
   7   24667.6    405.4   0.003053626   0.04075  -0.17808   0.09051  -0.02910
   8   30025.7    333.0   0.003358935   0.03683   0.03306   0.12546  -0.14140
   9   34630.7    288.8   0.347726872   3.30562  -1.37951  -1.17253   0.16658
  10   46624.4    214.5   0.107985650   0.76248   0.73016   0.46699  -0.10615
  11   42238.9    236.7   0.281981389   2.19778  -1.41286  -0.42892   0.13277
  12   39018.6    256.3   0.479025690   4.04169   1.87268   0.62914   0.37276
  13   39558.4    252.8   0.067193014   0.55919  -0.43280   0.51164   0.33182
  14   35641.1    280.6   0.252437797   2.33173  -0.03139  -1.51345  -0.20051
  15   40253.9    248.4   0.261807165   2.14116   0.35163  -1.41960   0.04756
  16   35781.9    279.5   0.041251246   0.37953  -0.19475   0.57066  -0.12631
  17   40179.0    248.9   0.681629892   5.58502  -2.04907   1.17697  -0.03247
  18   39507.5    253.1   0.088717956   0.73928   0.27943   0.79858  -0.15317
  19   43605.4    229.3   0.549107748   4.14566   0.76999  -1.78766   0.59752
  20   47457.8    210.7   0.639576671   4.43671   0.31345  -0.93600  -1.86074
  21   41834.9    239.0   0.184670758   1.45323   0.62796  -1.02438   0.09769
  22   42070.8    237.7   0.057435736   0.44945  -0.27724  -0.44470  -0.41812
  23   38453.0    260.1   0.091936833   0.78711   0.26310   0.79577   0.29093
  24   46018.4    217.3   0.007656496   0.05477  -0.07002  -0.22095  -0.03240
  25   41097.1    243.3   0.056826995   0.45522   0.67442   0.01329   0.01391
  26   46503.5    215.0   0.001857050   0.01315   0.03297   0.04932   0.09812
  27   38975.3    256.6   0.029900586   0.25256  -0.47579   0.13627   0.08726
  28   38558.8    259.3   0.028083250   0.23977  -0.48574  -0.04159   0.04587
  29   39229.3    254.9   0.003545614   0.02975  -0.05243   0.02255  -0.16278
  30   38237.6    261.5   0.025705793   0.22132  -0.41520   0.21852   0.03431

Dispersion correction           -0.041149355
FINAL SINGLE POINT ENERGY     -1051.665520921754

DIPOLE MOMENT
-------------
                                X             Y             Z
Electronic contribution:      2.08413       4.41677      -0.07183
Nuclear contribution   :     -1.24498      -5.48076       0.09574
                        -----------------------------------------
Total Dipole Moment    :      0.83915      -1.06399       0.02391
                        -----------------------------------------
Magnitude (a.u.)       :      1.35529
Magnitude (Debye)      :      3.44487

Rotational constants in cm-1:     0.011848     0.003953     0.003079
Rotational constants in MHz :   355.195780   118.521258    92.295779

                             ****ORCA TERMINATED NORMALLY****
TOTAL RUN TIME: 0 days 0 hours 47 minutes 53 seconds 684 msec
