                         Program Version 5.0.2 -  RELEASE  -
|  1> %maxcore 3200
|  2> %pal
|  3>  nprocs= 8
|  4> end
|  5> ! RI-B2PLYP D3BJ def2-TZVP def2/J def2-TZVP/C RIJCOSX CPCM TightSCF
|  6> %TDDFT DCORR 4
|  7>    NROOTS   30
|  8>
|  9>    TDA      FALSE
| 10> END
| 11>
| 12> %CPCM
| 13>    SMD          TRUE
| 14>    SMDsolvent   "ACETONITRILE"
| 15> END
| 16>
| 17>
| 18> * xyz 0 1
| 19> C                  -2.79293800    4.12055100    0.00048800
| 20> C                  -1.46622100    3.79291700    0.00034500
| 21> C                  -1.05286200    2.44017500    0.00020200
| 22> C                  -2.04168300    1.41007400    0.00019500
| 23> C                  -3.40652800    1.78994200    0.00035800
| 24> C                  -3.77190700    3.10832400    0.00049900
| 25> C                   0.30285200    2.09382800    0.00008900
| 26> C                  -1.62929500    0.05246500    0.00004900
| 27> C                  -0.26938100   -0.25631800   -0.00007400
| 28> C                   0.71709800    0.78004900   -0.00003500
| 29> C                   2.11986200    0.41216600   -0.00011900
| 30> C                   2.46183500   -0.94127600   -0.00017400
| 31> C                   0.15746000   -1.66057700   -0.00032100
| 32> H                   1.02838400    2.89659300    0.00011500
| 33> H                  -3.09646100    5.15987500    0.00060100
| 34> H                  -0.70465800    4.56360300    0.00034600
| 35> H                  -4.16865700    1.02183200    0.00037600
| 36> H                  -4.82047400    3.37711400    0.00062600
| 37> C                  -2.69458300   -0.98341100    0.00007100
| 38> C                  -3.22739400   -1.44695400    1.19996100
| 39> C                  -3.22796800   -1.44642400   -1.19977000
| 40> C                  -4.25500700   -2.37793300    1.19964400
| 41> H                  -2.82614200   -1.08022700    2.13758000
| 42> C                  -4.25557000   -2.37741500   -1.19937300
| 43> H                  -2.82717400   -1.07927300   -2.13741900
| 44> C                  -4.77009800   -2.84971300    0.00015400
| 45> H                  -4.65586800   -2.73442000    2.14055200
| 46> H                  -4.65686900   -2.73350100   -2.14024600
| 47> H                  -5.57268300   -3.57650600    0.00018600
| 48> O                  -0.55376000   -2.63420400   -0.00045200
| 49> O                   1.50506500   -1.91615600   -0.00020200
| 50> C                   3.18326000    1.32007500   -0.00012700
| 51> C                   3.76940100   -1.38466800   -0.00022200
| 52> C                   4.80184500   -0.45358900   -0.00023000
| 53> C                   4.50132600    0.91224300   -0.00018400
| 54> H                   5.28952700    1.65075600   -0.00019000
| 55> H                   2.97751300    2.38210700   -0.00008700
| 56> H                   3.98545000   -2.44422900   -0.00026600
| 57> O                   6.05250400   -0.95690400   -0.00028400
| 58> C                   7.13492200   -0.03735000   -0.00035300
| 59> H                   7.12357600    0.59473400    0.89029100
| 60> H                   8.04005000   -0.63818000   -0.00042600
| 61> H                   7.12344400    0.59475500   -0.89098000
| 62> *
| 63>
| 64>
| 65>                          ****END OF INPUT****

CARTESIAN COORDINATES (ANGSTROEM)
---------------------------------
  C     -2.792938    4.120551    0.000488
  C     -1.466221    3.792917    0.000345
  C     -1.052862    2.440175    0.000202
  C     -2.041683    1.410074    0.000195
  C     -3.406528    1.789942    0.000358
  C     -3.771907    3.108324    0.000499
  C      0.302852    2.093828    0.000089
  C     -1.629295    0.052465    0.000049
  C     -0.269381   -0.256318   -0.000074
  C      0.717098    0.780049   -0.000035
  C      2.119862    0.412166   -0.000119
  C      2.461835   -0.941276   -0.000174
  C      0.157460   -1.660577   -0.000321
  H      1.028384    2.896593    0.000115
  H     -3.096461    5.159875    0.000601
  H     -0.704658    4.563603    0.000346
  H     -4.168657    1.021832    0.000376
  H     -4.820474    3.377114    0.000626
  C     -2.694583   -0.983411    0.000071
  C     -3.227394   -1.446954    1.199961
  C     -3.227968   -1.446424   -1.199770
  C     -4.255007   -2.377933    1.199644
  H     -2.826142   -1.080227    2.137580
  C     -4.255570   -2.377415   -1.199373
  H     -2.827174   -1.079273   -2.137419
  C     -4.770098   -2.849713    0.000154
  H     -4.655868   -2.734420    2.140552
  H     -4.656869   -2.733501   -2.140246
  H     -5.572683   -3.576506    0.000186
  O     -0.553760   -2.634204   -0.000452
  O      1.505065   -1.916156   -0.000202
  C      3.183260    1.320075   -0.000127
  C      3.769401   -1.384668   -0.000222
  C      4.801845   -0.453589   -0.000230
  C      4.501326    0.912243   -0.000184
  H      5.289527    1.650756   -0.000190
  H      2.977513    2.382107   -0.000087
  H      3.985450   -2.444229   -0.000266
  O      6.052504   -0.956904   -0.000284
  C      7.134922   -0.037350   -0.000353
  H      7.123576    0.594734    0.890291
  H      8.040050   -0.638180   -0.000426
  H      7.123444    0.594755   -0.890980

 Total Charge           Charge          ....    0
 Multiplicity           Mult            ....    1
 Number of Electrons    NEL             ....  184
 Basis Dimension        Dim             ....  933

ORBITAL ENERGIES
----------------

  NO   OCC          E(Eh)            E(eV)
   0   2.0000     -19.789179      -538.4909
   1   2.0000     -19.758187      -537.6476
   2   2.0000     -19.712054      -536.3923
   3   2.0000     -10.766323      -292.9665
   4   2.0000     -10.695773      -291.0468
   5   2.0000     -10.689787      -290.8839
   6   2.0000     -10.655303      -289.9455
   7   2.0000     -10.654201      -289.9155
   8   2.0000     -10.647977      -289.7462
   9   2.0000     -10.645883      -289.6892
  10   2.0000     -10.637648      -289.4651
  11   2.0000     -10.635403      -289.4040
  12   2.0000     -10.630399      -289.2679
  13   2.0000     -10.628869      -289.2262
  14   2.0000     -10.628062      -289.2043
  15   2.0000     -10.622614      -289.0560
  16   2.0000     -10.621529      -289.0265
  17   2.0000     -10.620606      -289.0014
  18   2.0000     -10.619510      -288.9715
  19   2.0000     -10.618456      -288.9429
  20   2.0000     -10.615457      -288.8613
  21   2.0000     -10.615180      -288.8537
  22   2.0000     -10.613948      -288.8202
  23   2.0000     -10.613790      -288.8159
  24   2.0000     -10.612718      -288.7867
  25   2.0000     -10.612645      -288.7848
  26   2.0000     -10.611924      -288.7651
  27   2.0000      -1.272674       -34.6312
  28   2.0000      -1.217893       -33.1406
  29   2.0000      -1.178642       -32.0725
  30   2.0000      -1.025100       -27.8944
  31   2.0000      -0.994714       -27.0675
  32   2.0000      -0.984516       -26.7900
  33   2.0000      -0.963093       -26.2071
  34   2.0000      -0.921307       -25.0700
  35   2.0000      -0.894486       -24.3402
  36   2.0000      -0.876745       -23.8575
  37   2.0000      -0.869184       -23.6517
  38   2.0000      -0.861331       -23.4380
  39   2.0000      -0.858243       -23.3540
  40   2.0000      -0.832684       -22.6585
  41   2.0000      -0.800586       -21.7850
  42   2.0000      -0.771858       -21.0033
  43   2.0000      -0.740974       -20.1629
  44   2.0000      -0.735965       -20.0266
  45   2.0000      -0.712460       -19.3870
  46   2.0000      -0.703801       -19.1514
  47   2.0000      -0.697409       -18.9775
  48   2.0000      -0.663844       -18.0641
  49   2.0000      -0.652972       -17.7683
  50   2.0000      -0.642130       -17.4732
  51   2.0000      -0.609160       -16.5761
  52   2.0000      -0.607821       -16.5396
  53   2.0000      -0.589156       -16.0317
  54   2.0000      -0.578750       -15.7486
  55   2.0000      -0.570593       -15.5266
  56   2.0000      -0.560693       -15.2572
  57   2.0000      -0.549700       -14.9581
  58   2.0000      -0.545395       -14.8410
  59   2.0000      -0.539601       -14.6833
  60   2.0000      -0.536307       -14.5937
  61   2.0000      -0.529700       -14.4139
  62   2.0000      -0.528931       -14.3929
  63   2.0000      -0.511006       -13.9052
  64   2.0000      -0.508985       -13.8502
  65   2.0000      -0.501700       -13.6519
  66   2.0000      -0.490470       -13.3464
  67   2.0000      -0.487478       -13.2649
  68   2.0000      -0.487406       -13.2630
  69   2.0000      -0.474290       -12.9061
  70   2.0000      -0.466132       -12.6841
  71   2.0000      -0.463895       -12.6232
  72   2.0000      -0.459847       -12.5131
  73   2.0000      -0.447408       -12.1746
  74   2.0000      -0.436414       -11.8754
  75   2.0000      -0.426643       -11.6095
  76   2.0000      -0.422545       -11.4980
  77   2.0000      -0.418177       -11.3792
  78   2.0000      -0.413016       -11.2387
  79   2.0000      -0.410905       -11.1813
  80   2.0000      -0.404826       -11.0159
  81   2.0000      -0.398624       -10.8471
  82   2.0000      -0.389042       -10.5864
  83   2.0000      -0.370541       -10.0829
  84   2.0000      -0.363179        -9.8826
  85   2.0000      -0.340104        -9.2547
  86   2.0000      -0.308126        -8.3845
  87   2.0000      -0.293589        -7.9890
  88   2.0000      -0.288898        -7.8613
  89   2.0000      -0.282266        -7.6808
  90   2.0000      -0.274918        -7.4809
  91   2.0000      -0.237496        -6.4626
  92   0.0000      -0.024177        -0.6579
  93   0.0000      -0.004745        -0.1291
  94   0.0000       0.036824         1.0020
  95   0.0000       0.043663         1.1881
  96   0.0000       0.047082         1.2812

MULLIKEN ATOMIC CHARGES
-----------------------
   0 C :   -0.116859
   1 C :   -0.263806
   2 C :    0.154935
   3 C :    0.058262
   4 C :   -0.240476
   5 C :   -0.171416
   6 C :   -0.404737
   7 C :    0.322890
   8 C :   -0.167421
   9 C :    0.173522
  10 C :    0.081491
  11 C :    0.266072
  12 C :    0.412309
  13 H :    0.157914
  14 H :    0.162117
  15 H :    0.157068
  16 H :    0.175465
  17 H :    0.160164
  18 C :    0.131244
  19 C :   -0.244014
  20 C :   -0.244090
  21 C :   -0.187661
  22 H :    0.153438
  23 C :   -0.187471
  24 H :    0.153425
  25 C :   -0.140000
  26 H :    0.153855
  27 H :    0.153850
  28 H :    0.156276
  29 O :   -0.402995
  30 O :   -0.259413
  31 C :   -0.235565
  32 C :   -0.412309
  33 C :    0.403965
  34 C :   -0.299370
  35 H :    0.167173
  36 H :    0.165881
  37 H :    0.146298
  38 O :   -0.325725
  39 C :   -0.195263
  40 H :    0.138965
  41 H :    0.153040
  42 H :    0.138971
Sum of atomic charges:    0.0000000

LOEWDIN ATOMIC CHARGES
----------------------
   0 C :   -0.128503
   1 C :   -0.099527
   2 C :   -0.085386
   3 C :   -0.055286
   4 C :   -0.089211
   5 C :   -0.139886
   6 C :   -0.053947
   7 C :    0.010860
   8 C :   -0.051611
   9 C :   -0.062779
  10 C :   -0.103775
  11 C :   -0.177877
  12 C :   -0.361272
  13 H :    0.163102
  14 H :    0.154069
  15 H :    0.157426
  16 H :    0.162402
  17 H :    0.153067
  18 C :   -0.098769
  19 C :   -0.102238
  20 C :   -0.102242
  21 C :   -0.146357
  22 H :    0.155618
  23 C :   -0.146356
  24 H :    0.155618
  25 C :   -0.150809
  26 H :    0.150575
  27 H :    0.150575
  28 H :    0.149375
  29 O :    0.084726
  30 O :    0.325203
  31 C :   -0.078879
  32 C :   -0.095871
  33 C :   -0.240692
  34 C :   -0.141929
  35 H :    0.159637
  36 H :    0.160741
  37 H :    0.160654
  38 O :    0.215992
  39 C :   -0.297853
  40 H :    0.112537
  41 H :    0.116337
  42 H :    0.112541

  Mayer bond orders larger than 0.100000
B(  0-C ,  1-C ) :   1.5495 B(  0-C ,  5-C ) :   1.2277 B(  0-C , 14-H ) :   0.9796
B(  1-C ,  2-C ) :   1.2118 B(  1-C , 15-H ) :   0.9898 B(  2-C ,  3-C ) :   1.2780
B(  2-C ,  6-C ) :   1.2594 B(  3-C ,  4-C ) :   1.2063 B(  3-C ,  7-C ) :   1.1958
B(  4-C ,  5-C ) :   1.5894 B(  4-C , 16-H ) :   0.9622 B(  5-C , 17-H ) :   0.9834
B(  6-C ,  9-C ) :   1.4919 B(  6-C , 13-H ) :   0.9729 B(  7-C ,  8-C ) :   1.3579
B(  7-C , 18-C ) :   0.7182 B(  8-C ,  9-C ) :   1.2465 B(  8-C , 12-C ) :   0.9956
B(  9-C , 10-C ) :   0.9811 B( 10-C , 11-C ) :   1.3433 B( 10-C , 31-C ) :   1.3191
B( 11-C , 30-O ) :   0.9884 B( 11-C , 32-C ) :   1.4080 B( 12-C , 29-O ) :   2.0654
B( 12-C , 30-O ) :   1.1648 B( 18-C , 19-C ) :   1.3937 B( 18-C , 20-C ) :   1.3937
B( 19-C , 21-C ) :   1.4381 B( 19-C , 22-H ) :   0.9851 B( 20-C , 23-C ) :   1.4383
B( 20-C , 24-H ) :   0.9851 B( 21-C , 25-C ) :   1.3914 B( 21-C , 26-H ) :   0.9828
B( 23-C , 25-C ) :   1.3915 B( 23-C , 27-H ) :   0.9828 B( 25-C , 28-H ) :   0.9776
B( 31-C , 34-C ) :   1.4631 B( 31-C , 36-H ) :   0.9460 B( 32-C , 33-C ) :   1.3340
B( 32-C , 37-H ) :   1.0165 B( 33-C , 34-C ) :   1.2795 B( 33-C , 38-O ) :   1.1364
B( 34-C , 35-H ) :   0.9746 B( 38-O , 39-C ) :   0.8854 B( 39-C , 40-H ) :   0.9711
B( 39-C , 41-H ) :   0.9729 B( 39-C , 42-H ) :   0.9711

MP2 TOTAL ENERGY:    -1149.383693611 Eh

-----------------------------------------------------------------------------
         ABSORPTION SPECTRUM VIA TRANSITION ELECTRIC DIPOLE MOMENTS
-----------------------------------------------------------------------------
State   Energy    Wavelength  fosc         T2        TX        TY        TZ
        (cm-1)      (nm)                 (au**2)    (au)      (au)      (au)
-----------------------------------------------------------------------------
   1   26675.2    374.9   0.076647115   0.94594   0.55561   0.79828   0.00002
   2   31055.8    322.0   0.378631883   4.01375   1.86199  -0.73943  -0.00012
   3   34531.3    289.6   0.925672085   8.82510  -2.77706   1.05501   0.00035
   4   32787.4    305.0   0.000041074   0.00041  -0.00839   0.00340  -0.01818
   5   36362.1    275.0   0.220507972   1.99641   0.77125  -1.18388  -0.00016
   6   37210.3    268.7   0.221369907   1.95853  -1.06588  -0.90688  -0.00002
   7   37296.0    268.1   0.003407703   0.03008   0.16029   0.06622   0.00003
   8   37751.9    264.9   0.111479325   0.97214  -0.75605   0.63287  -0.00059
   9   40313.5    248.1   0.002622768   0.02142  -0.00367   0.00329   0.14627
  10   42123.0    237.4   0.511618984   3.99855   0.73905  -1.85805  -0.00016
  11   40852.1    244.8   0.000261060   0.00210   0.00008   0.00103  -0.04586
  12   40082.5    249.5   0.024636174   0.20235   0.18964   0.40790   0.00008
  13   45875.2    218.0   0.179669697   1.28935  -0.15196   1.12528   0.00023
  14   44685.8    223.8   0.165582252   1.21989   0.52750  -0.97038  -0.00012
  15   42317.3    236.3   0.004454038   0.03465   0.00009  -0.00065   0.18615
  16   42352.7    236.1   0.003627788   0.02820  -0.00044  -0.00088  -0.16792
  17   46433.6    215.4   0.128035451   0.90777  -0.92142  -0.24239   0.00014
  18   45037.3    222.0   0.140525606   1.02721  -0.83238  -0.57824   0.00015
  19   44828.5    223.1   0.058144053   0.42700  -0.35901  -0.54599  -0.00015
  20   46184.2    216.5   0.139554133   0.99478  -0.82935  -0.55404   0.00006
  21   45693.0    218.9   0.048385373   0.34861   0.58141   0.10285   0.00011
  22   46202.3    216.4   0.067314151   0.47964  -0.68098   0.12611  -0.00007
  23   49782.7    200.9   0.594034302   3.92834   1.89091   0.59397   0.00074
  24   48162.1    207.6   0.016570767   0.11327  -0.26726   0.20440   0.00787
  25   51707.6    193.4   0.416266634   2.65029   0.00069  -0.00172   1.62797
  26   49418.8    202.4   0.045931256   0.30598  -0.00006   0.00082  -0.55315
  27   52243.5    191.4   0.446534384   2.81383   1.01014   1.33919   0.00022
  28   50062.3    199.8   0.034442111   0.22649  -0.00029  -0.00036  -0.47591
  29   50912.8    196.4   0.047483789   0.30704  -0.22374  -0.50693   0.00052
  30   54463.5    183.6   0.000119661   0.00072   0.00026  -0.00063  -0.02689

Dispersion correction           -0.051211345
FINAL SINGLE POINT ENERGY     -1147.867291363629

DIPOLE MOMENT
-------------
                                X             Y             Z
Electronic contribution:     -1.21389      -4.59496      -0.00077
Nuclear contribution   :      2.30387       7.71586       0.00102
                        -----------------------------------------
Total Dipole Moment    :      1.08999       3.12090       0.00025
                        -----------------------------------------
Magnitude (a.u.)       :      3.30576
Magnitude (Debye)      :      8.40259

Rotational constants in cm-1:     0.011445     0.004004     0.003062
Rotational constants in MHz :   343.117137   120.023996    91.800824

                             ****ORCA TERMINATED NORMALLY****
TOTAL RUN TIME: 0 days 1 hours 5 minutes 30 seconds 806 msec
