 Gaussian 09, Revision E.01,

 ----------------------------------------------------------------------
 #p b3lyp/def2TZVP opt freq=noraman nosymm int=ultrafine scrf=(SMD,solv
 ent=Acetonitrile) EmpiricalDispersion=GD3BJ
 ----------------------------------------------------------------------

 -----
 Title
 -----
 Symbolic Z-matrix:
 Charge =  0 Multiplicity = 1

 SCF Done:  E(RB3LYP) =  -1150.44530232     A.U. after   14 cycles
 SCF Done:  E(RB3LYP) =  -1150.44775574     A.U. after   11 cycles
 SCF Done:  E(RB3LYP) =  -1150.44785620     A.U. after   10 cycles
 SCF Done:  E(RB3LYP) =  -1150.44789267     A.U. after    9 cycles
 SCF Done:  E(RB3LYP) =  -1150.44789242     A.U. after    8 cycles
 SCF Done:  E(RB3LYP) =  -1150.44789509     A.U. after    7 cycles
 SCF Done:  E(RB3LYP) =  -1150.44789615     A.U. after    7 cycles
 Optimization completed.
    -- Stationary point found.
 Normal termination of Gaussian 09 at Sun Feb 14 20:13:56 2021.

 --------------------------------------------------------------------
 #P Geom=AllCheck Guess=TCheck SCRF=Check GenChk RB3LYP/def2TZVP Freq
 --------------------------------------------------------------------

 Structure from the checkpoint file:  "cp.chk"
 -----
 Title
 -----
 Charge =  0 Multiplicity = 1

 SCF Done:  E(RB3LYP) =  -1150.44789615     A.U. after    1 cycles

  Exact polarizability: 644.236  30.942 500.388  -0.016  -0.014 270.513
 Approx polarizability: 647.782  32.080 557.776  -0.012  -0.015 307.506

                      1                      2                      3
                      A                      A                      A
 Frequencies --     23.4493                43.5872                49.8678
 Red. masses --      5.6242                 4.4855                 4.5581
 Frc consts  --      0.0018                 0.0050                 0.0067
 IR Inten    --      2.9297                 1.1416                 0.0473

                      4                      5                      6
                      A                      A                      A
 Frequencies --     62.3077                63.9193                83.0663
 Red. masses --      5.3660                 4.4226                 3.8619
 Frc consts  --      0.0123                 0.0106                 0.0157
 IR Inten    --      1.0513                 0.0261                 0.4388

                      7                      8                      9
                      A                      A                      A
 Frequencies --    101.8482               120.8856               122.8991
 Red. masses --      5.6926                 5.1746                 4.9125
 Frc consts  --      0.0348                 0.0446                 0.0437
 IR Inten    --      1.2861                 3.9171                 0.7553

                     10                     11                     12
                      A                      A                      A
 Frequencies --    198.6983               201.7601               231.6643
 Red. masses --      3.9234                 5.1784                 1.8409
 Frc consts  --      0.0913                 0.1242                 0.0582
 IR Inten    --      0.5443                 0.1394                 0.6424

                     13                     14                     15
                      A                      A                      A
 Frequencies --    248.8523               254.2611               267.7947
 Red. masses --      5.2246                 6.4204                 4.9947
 Frc consts  --      0.1906                 0.2446                 0.2110
 IR Inten    --      1.5510                 0.5728                 0.6412

                     16                     17                     18
                      A                      A                      A
 Frequencies --    269.1030               304.7681               324.8440
 Red. masses --      1.9665                 6.7921                 4.1605
 Frc consts  --      0.0839                 0.3717                 0.2587
 IR Inten    --      0.1452                 6.5322                 0.3843

                     19                     20                     21
                      A                      A                      A
 Frequencies --    325.5626               372.4634               373.8212
 Red. masses --      5.7924                 5.8841                 5.6436
 Frc consts  --      0.3617                 0.4809                 0.4647
 IR Inten    --     14.1921                 1.3156                 4.7819

                     22                     23                     24
                      A                      A                      A
 Frequencies --    415.1330               441.9977               455.3030
 Red. masses --      2.8786                 7.4180                 2.9904
 Frc consts  --      0.2923                 0.8538                 0.3652
 IR Inten    --      0.1267                 6.4336                 1.6742

                     25                     26                     27
                      A                      A                      A
 Frequencies --    472.1415               486.1078               507.2576
 Red. masses --      3.1929                 7.0706                 4.7739
 Frc consts  --      0.4194                 0.9844                 0.7237
 IR Inten    --     23.0818                 2.8385                 9.2809

                     28                     29                     30
                      A                      A                      A
 Frequencies --    535.5814               553.8864               589.4225
 Red. masses --      3.4265                 6.4387                 4.3263
 Frc consts  --      0.5791                 1.1638                 0.8856
 IR Inten    --      7.5238                11.6628                76.7518

                     31                     32                     33
                      A                      A                      A
 Frequencies --    614.1449               623.2926               636.4205
 Red. masses --      7.0628                 5.3536                 5.8150
 Frc consts  --      1.5695                 1.2254                 1.3877
 IR Inten    --     39.8573                 8.7849                 9.6371

                     34                     35                     36
                      A                      A                      A
 Frequencies --    639.0446               651.4644               658.0397
 Red. masses --      6.6545                 6.9110                 3.2489
 Frc consts  --      1.6011                 1.7281                 0.8289
 IR Inten    --      3.6883                 4.5510                 0.9531

                     37                     38                     39
                      A                      A                      A
 Frequencies --    685.2583               688.1997               717.1736
 Red. masses --      5.7721                 4.9470                 2.4804
 Frc consts  --      1.5970                 1.3804                 0.7517
 IR Inten    --      1.0759                 1.3912                57.0999

                     40                     41                     42
                      A                      A                      A
 Frequencies --    717.2712               743.0422               766.1329
 Red. masses --      2.4850                 2.4871                 2.8660
 Frc consts  --      0.7533                 0.8091                 0.9911
 IR Inten    --     38.6327                 1.3329                41.5524

                     43                     44                     45
                      A                      A                      A
 Frequencies --    768.8013               790.3925               806.7702
 Red. masses --      1.5210                 3.6459                 6.2940
 Frc consts  --      0.5297                 1.3420                 2.4137
 IR Inten    --     65.3426                49.3678                41.9805

                     46                     47                     48
                      A                      A                      A
 Frequencies --    822.0798               825.7504               848.2189
 Red. masses --      4.5183                 1.7402                 3.1415
 Frc consts  --      1.7991                 0.6991                 1.3317
 IR Inten    --      8.7277                50.4843                 8.4560

                     49                     50                     51
                      A                      A                      A
 Frequencies --    862.3777               872.3180               873.1270
 Red. masses --      1.2528                 1.6785                 5.4021
 Frc consts  --      0.5489                 0.7525                 2.4264
 IR Inten    --      0.0162                55.6564                 1.5551

                     52                     53                     54
                      A                      A                      A
 Frequencies --    879.5424               916.8641               921.0644
 Red. masses --      1.6377                 3.5262                 1.9698
 Frc consts  --      0.7464                 1.7465                 0.9846
 IR Inten    --     16.8360                13.6583                28.7588

                     55                     56                     57
                      A                      A                      A
 Frequencies --    940.4839               961.4323               981.4109
 Red. masses --      1.9280                 1.3373                 5.1464
 Frc consts  --      1.0047                 0.7283                 2.9205
 IR Inten    --      5.1888                 1.7413                22.4713

                     58                     59                     60
                      A                      A                      A
 Frequencies --    983.3072               984.1536              1005.0785
 Red. masses --      1.3718                 1.3642                 1.4343
 Frc consts  --      0.7815                 0.7785                 0.8537
 IR Inten    --      0.8441                 2.0865                 3.3749

                     61                     62                     63
                      A                      A                      A
 Frequencies --   1005.3637              1005.7201              1022.4532
 Red. masses --      1.3146                 4.2466                 6.2847
 Frc consts  --      0.7828                 2.5307                 3.8710
 IR Inten    --      0.0534                29.1955                 3.1802

                     64                     65                     66
                      A                      A                      A
 Frequencies --   1046.4457              1051.5850              1056.6548
 Red. masses --      2.3664                 2.4035                 2.5084
 Frc consts  --      1.5267                 1.5660                 1.6501
 IR Inten    --     10.1895                61.3516                79.0170

                     67                     68                     69
                      A                      A                      A
 Frequencies --   1098.4786              1113.5352              1148.9898
 Red. masses --      1.5677                 5.1175                 2.2474
 Frc consts  --      1.1146                 3.7387                 1.7481
 IR Inten    --     15.3628               178.6021               477.1780

                     70                     71                     72
                      A                      A                      A
 Frequencies --   1156.6059              1171.2833              1174.5189
 Red. masses --      1.9369                 1.0969                 1.2718
 Frc consts  --      1.5266                 0.8866                 1.0337
 IR Inten    --     80.1678                 0.0047                 1.4830

                     73                     74                     75
                      A                      A                      A
 Frequencies --   1175.5316              1191.1583              1193.7361
 Red. masses --      1.1963                 1.9243                 1.1445
 Frc consts  --      0.9740                 1.6086                 0.9609
 IR Inten    --    139.3738               435.2935                 8.1226

                     76                     77                     78
                      A                      A                      A
 Frequencies --   1206.2656              1216.2540              1226.9642
 Red. masses --      2.2025                 1.6351                 1.7432
 Frc consts  --      1.8882                 1.4251                 1.5462
 IR Inten    --     11.4631               192.4236                53.6215

                     79                     80                     81
                      A                      A                      A
 Frequencies --   1250.6287              1273.1542              1285.9701
 Red. masses --      2.3721                 2.8072                 2.4744
 Frc consts  --      2.1859                 2.6809                 2.4109
 IR Inten    --     25.0740               244.4625                29.3917

                     82                     83                     84
                      A                      A                      A
 Frequencies --   1312.3565              1321.9988              1345.1652
 Red. masses --      4.9415                 3.1113                 7.4290
 Frc consts  --      5.0144                 3.2037                 7.9201
 IR Inten    --      0.0073               418.9269               108.3471

                     85                     86                     87
                      A                      A                      A
 Frequencies --   1351.1678              1353.5771              1370.7030
 Red. masses --      2.6171                 1.4812                 2.7345
 Frc consts  --      2.8151                 1.5989                 3.0270
 IR Inten    --     11.9776                 0.0301                59.7743

                     88                     89                     90
                      A                      A                      A
 Frequencies --   1407.2961              1410.2267              1434.5704
 Red. masses --      5.6272                 3.4545                 3.7791
 Frc consts  --      6.5662                 4.0478                 4.5823
 IR Inten    --      7.2080                10.2914                 5.0086

                     91                     92                     93
                      A                      A                      A
 Frequencies --   1474.0851              1474.6640              1477.4050
 Red. masses --      2.0599                 2.1818                 1.7600
 Frc consts  --      2.6372                 2.7955                 2.2634
 IR Inten    --    104.1265                 8.1738                33.5542

                     94                     95                     96
                      A                      A                      A
 Frequencies --   1487.7900              1488.9154              1492.0827
 Red. masses --      1.0433                 2.2469                 1.1024
 Frc consts  --      1.3607                 2.9348                 1.4460
 IR Inten    --     14.0907                28.1955                26.3479

                     97                     98                     99
                      A                      A                      A
 Frequencies --   1525.6328              1533.9237              1547.3112
 Red. masses --      2.5692                 2.9855                 2.8607
 Frc consts  --      3.5233                 4.1388                 4.0353
 IR Inten    --     43.7216                 5.5276               196.1731

                    100                    101                    102
                      A                      A                      A
 Frequencies --   1594.0754              1613.7820              1617.3992
 Red. masses --      8.3780                 6.7606                 5.5865
 Frc consts  --     12.5432                10.3734                 8.6105
 IR Inten    --    154.1240                42.8311                 1.7070

                    103                    104                    105
                      A                      A                      A
 Frequencies --   1631.2193              1643.3006              1652.4581
 Red. masses --      6.3924                 5.7678                 5.8906
 Frc consts  --     10.0217                 9.1769                 9.4770
 IR Inten    --    317.9855                14.7011               393.6687

                    106                    107                    108
                      A                      A                      A
 Frequencies --   1659.7237              1759.8160              3028.2441
 Red. masses --      6.3435                12.8530                 1.0327
 Frc consts  --     10.2955                23.4526                 5.5799
 IR Inten    --    213.4922               909.3293                78.2520

                    109                    110                    111
                      A                      A                      A
 Frequencies --   3093.4969              3145.5551              3168.2694
 Red. masses --      1.1075                 1.1019                 1.0858
 Frc consts  --      6.2444                 6.4238                 6.4214
 IR Inten    --     40.4984                25.0143                 2.3680

                    112                    113                    114
                      A                      A                      A
 Frequencies --   3173.1650              3174.6309              3181.1812
 Red. masses --      1.0875                 1.0869                 1.0913
 Frc consts  --      6.4516                 6.4542                 6.5067
 IR Inten    --      0.0436                 0.3745                13.9998

                    115                    116                    117
                      A                      A                      A
 Frequencies --   3183.9475              3187.1065              3195.3617
 Red. masses --      1.0904                 1.0946                 1.0978
 Frc consts  --      6.5128                 6.5511                 6.6041
 IR Inten    --     12.3693                42.0261                23.0402

                    118                    119                    120
                      A                      A                      A
 Frequencies --   3195.6093              3199.0203              3207.0513
 Red. masses --      1.0955                 1.0907                 1.0919
 Frc consts  --      6.5915                 6.5762                 6.6170
 IR Inten    --     22.3060                 3.6114                 0.6950

                    121                    122                    123
                      A                      A                      A
 Frequencies --   3210.6915              3213.8809              3226.7449
 Red. masses --      1.0879                 1.0931                 1.0927
 Frc consts  --      6.6073                 6.6524                 6.7034
 IR Inten    --      7.4057                12.9291                 4.6703

 - Thermochemistry -
 -------------------
 Temperature   298.150 Kelvin.  Pressure   1.00000 Atm.
 Atom     1 has atomic number  6 and mass  12.00000

 Molecular mass:   352.10994 amu.
 Principal axes and moments of inertia in atomic units:
                           1         2         3
     Eigenvalues --  5256.65758********************
           X            0.99998  -0.00612   0.00005
           Y            0.00612   0.99998   0.00007
           Z           -0.00005  -0.00007   1.00000
 This molecule is an asymmetric top.
 Rotational symmetry number  1.
 Warning -- assumption of classical behavior for rotation
           may cause significant error
 Rotational temperatures (Kelvin)      0.01648     0.00573     0.00439
 Rotational constants (GHZ):           0.34332     0.11930     0.09140
 Zero-point vibrational energy     876389.1 (Joules/Mol)
                                  209.46201 (Kcal/Mol)
 Warning -- explicit consideration of  31 degrees of freedom as
           vibrations may cause significant error
 Vibrational temperatures:     33.74    62.71    71.75    89.65    91.97
          (Kelvin)            119.51   146.54   173.93   176.82   285.88
                              290.29   333.31   358.04   365.82   385.30
                              387.18   438.49   467.38   468.41   535.89
                              537.84   597.28   635.94   655.08   679.31
                              699.40   729.83   770.58   796.92   848.05
                              883.62   896.78   915.67   919.44   937.31
                              946.77   985.93   990.16  1031.85  1031.99
                             1069.07  1102.29  1106.13  1137.20  1160.76
                             1182.79  1188.07  1220.40  1240.77  1255.07
                             1256.23  1265.46  1319.16  1325.20  1353.14
                             1383.28  1412.03  1414.76  1415.98  1446.08
                             1446.49  1447.01  1471.08  1505.60  1512.99
                             1520.29  1580.46  1602.13  1653.14  1664.10
                             1685.21  1689.87  1691.33  1713.81  1717.52
                             1735.54  1749.92  1765.33  1799.37  1831.78
                             1850.22  1888.19  1902.06  1935.39  1944.03
                             1947.49  1972.13  2024.78  2029.00  2064.02
                             2120.88  2121.71  2125.65  2140.60  2142.21
                             2146.77  2195.04  2206.97  2226.23  2293.52
                             2321.87  2327.07  2346.96  2364.34  2377.52
                             2387.97  2531.98  4356.96  4450.85  4525.75
                             4558.43  4565.47  4567.58  4577.00  4580.98
                             4585.53  4597.41  4597.76  4602.67  4614.23
                             4619.46  4624.05  4642.56

 Zero-point correction=                           0.333799 (Hartree/Particle)
 Thermal correction to Energy=                    0.354296
 Thermal correction to Enthalpy=                  0.355240
 Thermal correction to Gibbs Free Energy=         0.283600
 Sum of electronic and zero-point Energies=          -1150.114097
 Sum of electronic and thermal Energies=             -1150.093600
 Sum of electronic and thermal Enthalpies=           -1150.092656
 Sum of electronic and thermal Free Energies=        -1150.164297

                     E (Thermal)             CV                S
                      KCal/Mol        Cal/Mol-Kelvin    Cal/Mol-Kelvin
 Total                  222.324             82.589            150.781
 Electronic               0.000              0.000              0.000
 Translational            0.889              2.981             43.470
 Rotational               0.889              2.981             35.705
 Vibrational            220.547             76.628             71.605
 Vibration     1          0.593              1.985              6.318
 Vibration     2          0.595              1.980              5.089
 Vibration     3          0.595              1.978              4.823
 Vibration     4          0.597              1.972              4.383
 Vibration     5          0.597              1.972              4.332
 Vibration     6          0.600              1.961              3.817
 Vibration     7          0.604              1.948              3.419
 Vibration     8          0.609              1.932              3.086
 Vibration     9          0.610              1.930              3.054
 Vibration    10          0.637              1.842              2.145
 Vibration    11          0.639              1.837              2.117
 Vibration    12          0.653              1.793              1.866
 Vibration    13          0.662              1.765              1.739
 Vibration    14          0.665              1.756              1.701
 Vibration    15          0.673              1.732              1.610
 Vibration    16          0.673              1.730              1.602
 Vibration    17          0.696              1.665              1.391
 Vibration    18          0.709              1.626              1.286
 Vibration    19          0.710              1.624              1.282
 Vibration    20          0.744              1.529              1.070
 Vibration    21          0.745              1.526              1.064
 Vibration    22          0.779              1.437              0.909
 Vibration    23          0.802              1.379              0.820
 Vibration    24          0.814              1.349              0.780
 Vibration    25          0.829              1.312              0.732
 Vibration    26          0.842              1.281              0.694
 Vibration    27          0.862              1.234              0.640
 Vibration    28          0.891              1.171              0.575
 Vibration    29          0.909              1.131              0.536
 Vibration    30          0.947              1.054              0.468
 Vibration    31          0.974              1.002              0.426

 Optimization completed.
    -- Stationary point found.
 Normal termination of Gaussian 09 at Mon Feb 15 00:09:47 2021.
 Gaussian 09:  ES64L-G09RevE.01 30-Nov-2015

 ----------------------------------------------------------------------
 #p b3lyp chkbasis geom=allcheck Guess=Read int=ultrafine scrf=(SMD,sol
 vent=Acetonitrile) td=(NStates=30) EmpiricalDispersion=GD3BJ
 ----------------------------------------------------------------------

 Structure from the checkpoint file:  "cp.chk"
 -----
 Title
 -----
 Charge =  0 Multiplicity = 1

                         Standard orientation:
 ---------------------------------------------------------------------
 Center     Atomic      Atomic             Coordinates (Angstroms)
 Number     Number       Type             X           Y           Z
 ---------------------------------------------------------------------
      1          6           0       -2.802029    4.121452    0.000521
      2          6           0       -1.473143    3.795842    0.000368
      3          6           0       -1.059720    2.438764    0.000216
      4          6           0       -2.047203    1.407348    0.000210
      5          6           0       -3.416931    1.784630    0.000382
      6          6           0       -3.783134    3.104195    0.000533
      7          6           0        0.300547    2.094670    0.000094
      8          6           0       -1.631596    0.047957    0.000048
      9          6           0       -0.271903   -0.258730   -0.000078
     10          6           0        0.715400    0.781136   -0.000036
     11          6           0        2.127287    0.414830   -0.000122
     12          6           0        2.470840   -0.938070   -0.000167
     13          6           0        0.163507   -1.668658   -0.000307
     14          1           0        1.021695    2.899484    0.000120
     15          1           0       -3.107974    5.159950    0.000640
     16          1           0       -0.713088    4.567448    0.000366
     17          1           0       -4.176764    1.017199    0.000398
     18          1           0       -4.831672    3.372931    0.000666
     19          6           0       -2.701153   -0.989268    0.000065
     20          6           0       -3.234898   -1.448434    1.202348
     21          6           0       -3.235378   -1.447999   -1.202171
     22          6           0       -4.272396   -2.373112    1.202760
     23          1           0       -2.832076   -1.083317    2.138774
     24          6           0       -4.272870   -2.372682   -1.202504
     25          1           0       -2.832932   -1.082542   -2.138627
     26          6           0       -4.792718   -2.840956    0.000148
     27          1           0       -4.676194   -2.726552    2.143410
     28          1           0       -4.677037   -2.725790   -2.143119
     29          1           0       -5.601818   -3.560481    0.000178
     30          8           0       -0.547106   -2.643288   -0.000543
     31          8           0        1.510555   -1.916861   -0.000184
     32          6           0        3.190335    1.326449   -0.000142
     33          6           0        3.780373   -1.382148   -0.000213
     34          6           0        4.814781   -0.450071   -0.000228
     35          6           0        4.512053    0.917496   -0.000196
     36          1           0        5.296389    1.658766   -0.000211
     37          1           0        2.988203    2.387889   -0.000117
     38          1           0        3.996449   -2.441725   -0.000250
     39          8           0        6.069639   -0.953119   -0.000279
     40          6           0        7.169573   -0.040525   -0.000365
     41          1           0        7.159926    0.588106    0.892949
     42          1           0        8.064655   -0.658016   -0.000433
     43          1           0        7.159788    0.588103   -0.893678
 ---------------------------------------------------------------------

 SCF Done:  E(RB3LYP) =  -1150.44789605     A.U. after    4 cycles

 Excitation energies and oscillator strengths:

 Excited State   1:      Singlet-A      3.1658 eV  391.64 nm  f=0.0508  <S**2>=0.000
      92 -> 93         0.69037
 This state for optimization and/or second-order correction.
 Total Energy, E(TD-HF/TD-KS) =  -1150.33155517
 Copying the excited state density for this state as the 1-particle RhoCI density.

 Excited State   2:      Singlet-A      3.7400 eV  331.51 nm  f=0.3791  <S**2>=0.000
      87 -> 93        -0.10390
      91 -> 93         0.23849
      92 -> 93        -0.10809
      92 -> 94         0.63991

 Excited State   3:      Singlet-A      3.8121 eV  325.24 nm  f=0.0000  <S**2>=0.000
      90 -> 93         0.69550

 Excited State   4:      Singlet-A      4.1089 eV  301.75 nm  f=0.5660  <S**2>=0.000
      88 -> 93         0.10454
      91 -> 93         0.63701
      92 -> 94        -0.22322
      92 -> 95         0.10453

 Excited State   5:      Singlet-A      4.2228 eV  293.61 nm  f=0.0263  <S**2>=0.000
      88 -> 93         0.12221
      89 -> 93         0.67854

 Excited State   6:      Singlet-A      4.3282 eV  286.46 nm  f=0.0437  <S**2>=0.000
      88 -> 93         0.68186
      89 -> 93        -0.10807

 Excited State   7:      Singlet-A      4.4279 eV  280.00 nm  f=0.1235  <S**2>=0.000
      87 -> 93         0.37279
      89 -> 93        -0.12915
      89 -> 94        -0.18560
      91 -> 94         0.45641
      92 -> 95        -0.25479

 Excited State   8:      Singlet-A      4.5096 eV  274.93 nm  f=0.1199  <S**2>=0.000
      89 -> 94         0.32746
      91 -> 94         0.34908
      92 -> 95         0.46509
      92 -> 97        -0.12087

 Excited State   9:      Singlet-A      4.5705 eV  271.27 nm  f=0.0010  <S**2>=0.000
      86 -> 93         0.11107
      90 -> 94         0.68490

 Excited State  10:      Singlet-A      4.8087 eV  257.84 nm  f=0.0262  <S**2>=0.000
      87 -> 93         0.13205
      89 -> 94         0.44344
      92 -> 95        -0.37875
      92 -> 97        -0.33417

 Excited State  11:      Singlet-A      4.8440 eV  255.96 nm  f=0.0000  <S**2>=0.000
      92 -> 96         0.70014

 Excited State  12:      Singlet-A      4.9296 eV  251.51 nm  f=0.1151  <S**2>=0.000
      87 -> 93         0.34803
      89 -> 94         0.22820
      91 -> 94        -0.23531
      92 -> 97         0.47857

 Excited State  13:      Singlet-A      4.9609 eV  249.92 nm  f=0.0001  <S**2>=0.000
      86 -> 93         0.65219
      86 -> 94         0.14616
      90 -> 94        -0.13625

 Excited State  14:      Singlet-A      4.9872 eV  248.61 nm  f=0.2317  <S**2>=0.000
      87 -> 93        -0.22514
      88 -> 94         0.52753
      89 -> 94         0.23366
      91 -> 94         0.14256
      92 -> 95        -0.10484
      92 -> 97         0.19603
      92 -> 98         0.17809

 Excited State  15:      Singlet-A      5.0509 eV  245.47 nm  f=0.2158  <S**2>=0.000
      87 -> 93        -0.17928
      88 -> 94        -0.41353
      89 -> 94         0.12897
      92 -> 95        -0.14373
      92 -> 97         0.17522
      92 -> 98         0.44946

 Excited State  16:      Singlet-A      5.1168 eV  242.31 nm  f=0.4210  <S**2>=0.000
      87 -> 93         0.27865
      88 -> 94         0.19714
      89 -> 94        -0.13571
      91 -> 94        -0.20859
      92 -> 97        -0.22277
      92 -> 98         0.45039
      92 -> 99        -0.10190

 Excited State  17:      Singlet-A      5.2901 eV  234.37 nm  f=0.0012  <S**2>=0.000
      88 -> 96         0.39178
      89 -> 96         0.11553
      90 -> 95        -0.38413
      90 -> 97        -0.38634
      90 -> 98         0.10653
      91 -> 96         0.12296

 Excited State  18:      Singlet-A      5.3735 eV  230.73 nm  f=0.0110  <S**2>=0.000
      85 -> 93         0.45664
      87 -> 94        -0.45387
      91 -> 98        -0.12530
      92 -> 99        -0.19188

 Excited State  19:      Singlet-A      5.4137 eV  229.02 nm  f=0.0681  <S**2>=0.000
      85 -> 93        -0.32337
      87 -> 94        -0.38950
      91 -> 95         0.42709

 Excited State  20:      Singlet-A      5.5298 eV  224.21 nm  f=0.1216  <S**2>=0.000
      85 -> 93         0.33992
      87 -> 94         0.23969
      91 -> 95         0.51046
      92 -> 98        -0.11310
      92 -> 99         0.13681

 Excited State  21:      Singlet-A      5.6150 eV  220.81 nm  f=0.0004  <S**2>=0.000
      91 -> 96         0.68098

 Excited State  22:      Singlet-A      5.6718 eV  218.60 nm  f=0.0566  <S**2>=0.000
      84 -> 93        -0.10832
      85 -> 94         0.18481
      87 -> 94        -0.11798
      89 -> 95         0.20974
      91 -> 97        -0.30049
      91 -> 98        -0.13142
      92 -> 99         0.49637
      92 ->100        -0.10388

 Excited State  23:      Singlet-A      5.7170 eV  216.87 nm  f=0.0137  <S**2>=0.000
      87 -> 94        -0.11539
      89 -> 95         0.18326
      90 -> 96         0.15863
      91 -> 97         0.58721
      91 -> 98        -0.14870
      92 -> 99         0.16158

 Excited State  24:      Singlet-A      5.7229 eV  216.65 nm  f=0.0016  <S**2>=0.000
      86 -> 94        -0.11469
      88 -> 96         0.12309
      90 -> 95         0.52531
      90 -> 97        -0.41349

 Excited State  25:      Singlet-A      5.8152 eV  213.21 nm  f=0.0002  <S**2>=0.000
      83 -> 93        -0.10519
      86 -> 93        -0.15941
      86 -> 94         0.65083
      90 -> 95         0.14582

 Excited State  26:      Singlet-A      5.8402 eV  212.29 nm  f=0.0579  <S**2>=0.000
      88 -> 95         0.28346
      88 -> 97         0.20435
      89 -> 97         0.14411
      90 -> 96         0.54528
      91 -> 97        -0.12421
      91 -> 98         0.11922

 Excited State  27:      Singlet-A      5.8869 eV  210.61 nm  f=0.1908  <S**2>=0.000
      84 -> 93        -0.16274
      85 -> 94         0.45036
      89 -> 95        -0.42190
      90 -> 96         0.11273
      91 -> 98        -0.10879
      92 ->100        -0.13682

 Excited State  28:      Singlet-A      5.9334 eV  208.96 nm  f=0.0047  <S**2>=0.000
      83 -> 93        -0.25228
      86 -> 94        -0.12537
      90 -> 95         0.11739
      90 -> 97         0.15182
      90 -> 98         0.59195

 Excited State  29:      Singlet-A      5.9599 eV  208.03 nm  f=0.0632  <S**2>=0.000
      84 -> 93        -0.21163
      85 -> 94         0.25999
      89 -> 95         0.27224
      91 -> 98         0.47224
      92 -> 99        -0.12603
      92 ->100        -0.15609

 Excited State  30:      Singlet-A      5.9603 eV  208.02 nm  f=0.0005  <S**2>=0.000
      82 -> 93         0.23268
      83 -> 93         0.58477
      90 -> 98         0.27948

 The electronic state is 1-A.
 Alpha  occ. eigenvalues --  -19.19087 -19.16279 -19.11442 -10.31265 -10.24955
 Alpha  occ. eigenvalues --  -10.24438 -10.21504 -10.20806 -10.20435 -10.20393
 Alpha  occ. eigenvalues --  -10.19472 -10.19392 -10.19010 -10.18625 -10.18525
 Alpha  occ. eigenvalues --  -10.18033 -10.17913 -10.17913 -10.17843 -10.17744
 Alpha  occ. eigenvalues --  -10.17552 -10.17498 -10.17244 -10.17236 -10.17140
 Alpha  occ. eigenvalues --  -10.17138 -10.17087  -1.12441  -1.07309  -1.03689
 Alpha  occ. eigenvalues --   -0.89729  -0.87065  -0.86046  -0.84165  -0.80371
 Alpha  occ. eigenvalues --   -0.78010  -0.76562  -0.75812  -0.74975  -0.74674
 Alpha  occ. eigenvalues --   -0.72615  -0.69836  -0.67278  -0.64822  -0.63915
 Alpha  occ. eigenvalues --   -0.61983  -0.61224  -0.60612  -0.57711  -0.56637
 Alpha  occ. eigenvalues --   -0.55845  -0.53054  -0.52827  -0.51080  -0.50332
 Alpha  occ. eigenvalues --   -0.49417  -0.48450  -0.47254  -0.46890  -0.46473
 Alpha  occ. eigenvalues --   -0.46007  -0.45707  -0.45485  -0.43994  -0.43928
 Alpha  occ. eigenvalues --   -0.43191  -0.42220  -0.42002  -0.41874  -0.40682
 Alpha  occ. eigenvalues --   -0.40555  -0.39899  -0.39700  -0.38253  -0.37287
 Alpha  occ. eigenvalues --   -0.36664  -0.36217  -0.35661  -0.35613  -0.34846
 Alpha  occ. eigenvalues --   -0.34522  -0.33577  -0.32963  -0.31729  -0.29746
 Alpha  occ. eigenvalues --   -0.29639  -0.27130  -0.25878  -0.25193  -0.24629
 Alpha  occ. eigenvalues --   -0.24283  -0.21124
 Alpha virt. eigenvalues --   -0.07508  -0.05503  -0.01999  -0.01310  -0.01109
 Alpha virt. eigenvalues --   -0.00273   0.01884   0.03618   0.05241   0.05399
 Alpha virt. eigenvalues --    0.06100   0.06600   0.07350   0.07906   0.08703

 Mulliken charges:
               1
     1  C   -0.117640
     2  C   -0.228786
     3  C    0.134815
     4  C    0.023760
     5  C   -0.196185
     6  C   -0.159644
     7  C   -0.354481
     8  C    0.245010
     9  C   -0.160258
    10  C    0.147611
    11  C    0.068878
    12  C    0.260545
    13  C    0.351487
    14  H    0.146891
    15  H    0.151581
    16  H    0.144949
    17  H    0.169417
    18  H    0.150681
    19  C    0.087765
    20  C   -0.210598
    21  C   -0.210589
    22  C   -0.176247
    23  H    0.141642
    24  C   -0.176253
    25  H    0.141641
    26  C   -0.132232
    27  H    0.144880
    28  H    0.144880
    29  H    0.147206
    30  O   -0.333077
    31  O   -0.213325
    32  C   -0.238690
    33  C   -0.382236
    34  C    0.372097
    35  C   -0.280170
    36  H    0.158204
    37  H    0.159166
    38  H    0.132415
    39  O   -0.282608
    40  C   -0.212225
    41  H    0.142409
    42  H    0.154904
    43  H    0.142409
 Sum of Mulliken charges =  -0.00000

 Dipole moment (field-independent basis, Debye):
    X=              3.1257    Y=              7.6224    Z=              0.0008  Tot=              8.2383
 Quadrupole moment (field-independent basis, Debye-Ang):
   XX=           -110.2297   YY=           -151.7535   ZZ=           -154.0985
   XY=              9.0961   XZ=             -0.0025   YZ=             -0.0030

 Normal termination of Gaussian 09 at Mon Feb 15 02:32:31 2021.
