                         Program Version 5.0.2 -  RELEASE  -
|  1> %maxcore 38400
|  2> %pal
|  3>  nprocs= 4
|  4> end
|  5> !STEOM-DLPNO-CCSD DEF2-TZVP DEF2-TZVP/C def2/J TightSCF TightPNO CPCM
|  6> %MDCI
|  7>    Dorootwise true
|  8>    OTHRESH 0.005
|  9>    VTHRESH 0.005
| 10>    TCutPNOSingles 1e-11
| 11>    DTol 1e-5
| 12>    NROOTS  25
| 13>    DOSOLV  TRUE
| 14>    MAXITER 500
| 15> END
| 16> %CPCM
| 17>    SMD          TRUE
| 18>    SMDsolvent   "ACETONITRILE"
| 19> END
| 20>
| 21>
| 22> * xyz 0 1
| 23> C                  -2.79293800    4.12055100    0.00048800
| 24> C                  -1.46622100    3.79291700    0.00034500
| 25> C                  -1.05286200    2.44017500    0.00020200
| 26> C                  -2.04168300    1.41007400    0.00019500
| 27> C                  -3.40652800    1.78994200    0.00035800
| 28> C                  -3.77190700    3.10832400    0.00049900
| 29> C                   0.30285200    2.09382800    0.00008900
| 30> C                  -1.62929500    0.05246500    0.00004900
| 31> C                  -0.26938100   -0.25631800   -0.00007400
| 32> C                   0.71709800    0.78004900   -0.00003500
| 33> C                   2.11986200    0.41216600   -0.00011900
| 34> C                   2.46183500   -0.94127600   -0.00017400
| 35> C                   0.15746000   -1.66057700   -0.00032100
| 36> H                   1.02838400    2.89659300    0.00011500
| 37> H                  -3.09646100    5.15987500    0.00060100
| 38> H                  -0.70465800    4.56360300    0.00034600
| 39> H                  -4.16865700    1.02183200    0.00037600
| 40> H                  -4.82047400    3.37711400    0.00062600
| 41> C                  -2.69458300   -0.98341100    0.00007100
| 42> C                  -3.22739400   -1.44695400    1.19996100
| 43> C                  -3.22796800   -1.44642400   -1.19977000
| 44> C                  -4.25500700   -2.37793300    1.19964400
| 45> H                  -2.82614200   -1.08022700    2.13758000
| 46> C                  -4.25557000   -2.37741500   -1.19937300
| 47> H                  -2.82717400   -1.07927300   -2.13741900
| 48> C                  -4.77009800   -2.84971300    0.00015400
| 49> H                  -4.65586800   -2.73442000    2.14055200
| 50> H                  -4.65686900   -2.73350100   -2.14024600
| 51> H                  -5.57268300   -3.57650600    0.00018600
| 52> O                  -0.55376000   -2.63420400   -0.00045200
| 53> O                   1.50506500   -1.91615600   -0.00020200
| 54> C                   3.18326000    1.32007500   -0.00012700
| 55> C                   3.76940100   -1.38466800   -0.00022200
| 56> C                   4.80184500   -0.45358900   -0.00023000
| 57> C                   4.50132600    0.91224300   -0.00018400
| 58> H                   5.28952700    1.65075600   -0.00019000
| 59> H                   2.97751300    2.38210700   -0.00008700
| 60> H                   3.98545000   -2.44422900   -0.00026600
| 61> O                   6.05250400   -0.95690400   -0.00028400
| 62> C                   7.13492200   -0.03735000   -0.00035300
| 63> H                   7.12357600    0.59473400    0.89029100
| 64> H                   8.04005000   -0.63818000   -0.00042600
| 65> H                   7.12344400    0.59475500   -0.89098000
| 66> *
| 67>
| 68>
| 69>                          ****END OF INPUT****

CARTESIAN COORDINATES (ANGSTROEM)
---------------------------------
  C     -2.792938    4.120551    0.000488
  C     -1.466221    3.792917    0.000345
  C     -1.052862    2.440175    0.000202
  C     -2.041683    1.410074    0.000195
  C     -3.406528    1.789942    0.000358
  C     -3.771907    3.108324    0.000499
  C      0.302852    2.093828    0.000089
  C     -1.629295    0.052465    0.000049
  C     -0.269381   -0.256318   -0.000074
  C      0.717098    0.780049   -0.000035
  C      2.119862    0.412166   -0.000119
  C      2.461835   -0.941276   -0.000174
  C      0.157460   -1.660577   -0.000321
  H      1.028384    2.896593    0.000115
  H     -3.096461    5.159875    0.000601
  H     -0.704658    4.563603    0.000346
  H     -4.168657    1.021832    0.000376
  H     -4.820474    3.377114    0.000626
  C     -2.694583   -0.983411    0.000071
  C     -3.227394   -1.446954    1.199961
  C     -3.227968   -1.446424   -1.199770
  C     -4.255007   -2.377933    1.199644
  H     -2.826142   -1.080227    2.137580
  C     -4.255570   -2.377415   -1.199373
  H     -2.827174   -1.079273   -2.137419
  C     -4.770098   -2.849713    0.000154
  H     -4.655868   -2.734420    2.140552
  H     -4.656869   -2.733501   -2.140246
  H     -5.572683   -3.576506    0.000186
  O     -0.553760   -2.634204   -0.000452
  O      1.505065   -1.916156   -0.000202
  C      3.183260    1.320075   -0.000127
  C      3.769401   -1.384668   -0.000222
  C      4.801845   -0.453589   -0.000230
  C      4.501326    0.912243   -0.000184
  H      5.289527    1.650756   -0.000190
  H      2.977513    2.382107   -0.000087
  H      3.985450   -2.444229   -0.000266
  O      6.052504   -0.956904   -0.000284
  C      7.134922   -0.037350   -0.000353
  H      7.123576    0.594734    0.890291
  H      8.040050   -0.638180   -0.000426
  H      7.123444    0.594755   -0.890980

 Total Charge           Charge          ....    0
 Multiplicity           Mult            ....    1
 Number of Electrons    NEL             ....  184
 Basis Dimension        Dim             ....  933

ORBITAL ENERGIES
----------------

  NO   OCC          E(Eh)            E(eV)
   0   2.0000     -20.622140      -561.1570
   1   2.0000     -20.587826      -560.2232
   2   2.0000     -20.542059      -558.9778
   3   2.0000     -11.394560      -310.0617
   4   2.0000     -11.317430      -307.9629
   5   2.0000     -11.310654      -307.7785
   6   2.0000     -11.275399      -306.8192
   7   2.0000     -11.270286      -306.6801
   8   2.0000     -11.265915      -306.5611
   9   2.0000     -11.259158      -306.3773
  10   2.0000     -11.254549      -306.2519
  11   2.0000     -11.248588      -306.0896
  12   2.0000     -11.248160      -306.0780
  13   2.0000     -11.243112      -305.9406
  14   2.0000     -11.242244      -305.9170
  15   2.0000     -11.239116      -305.8319
  16   2.0000     -11.237610      -305.7909
  17   2.0000     -11.233032      -305.6663
  18   2.0000     -11.232916      -305.6632
  19   2.0000     -11.231788      -305.6325
  20   2.0000     -11.229157      -305.5609
  21   2.0000     -11.228894      -305.5537
  22   2.0000     -11.227276      -305.5097
  23   2.0000     -11.227273      -305.5096
  24   2.0000     -11.227247      -305.5089
  25   2.0000     -11.227162      -305.5066
  26   2.0000     -11.226413      -305.4862
  27   2.0000      -1.480337       -40.2820
  28   2.0000      -1.418404       -38.5967
  29   2.0000      -1.377195       -37.4754
  30   2.0000      -1.202151       -32.7122
  31   2.0000      -1.167379       -31.7660
  32   2.0000      -1.156867       -31.4800
  33   2.0000      -1.131051       -30.7774
  34   2.0000      -1.084346       -29.5066
  35   2.0000      -1.052867       -28.6500
  36   2.0000      -1.032369       -28.0922
  37   2.0000      -1.023456       -27.8497
  38   2.0000      -1.016920       -27.6718
  39   2.0000      -1.014069       -27.5942
  40   2.0000      -0.981491       -26.7077
  41   2.0000      -0.942637       -25.6505
  42   2.0000      -0.909362       -24.7450
  43   2.0000      -0.870024       -23.6746
  44   2.0000      -0.869537       -23.6613
  45   2.0000      -0.841219       -22.8907
  46   2.0000      -0.831102       -22.6154
  47   2.0000      -0.825202       -22.4549
  48   2.0000      -0.784803       -21.3556
  49   2.0000      -0.774830       -21.0842
  50   2.0000      -0.755946       -20.5703
  51   2.0000      -0.718310       -19.5462
  52   2.0000      -0.717914       -19.5354
  53   2.0000      -0.697662       -18.9844
  54   2.0000      -0.683507       -18.5992
  55   2.0000      -0.676249       -18.4017
  56   2.0000      -0.667322       -18.1588
  57   2.0000      -0.659002       -17.9324
  58   2.0000      -0.652972       -17.7683
  59   2.0000      -0.645755       -17.5719
  60   2.0000      -0.639915       -17.4130
  61   2.0000      -0.633541       -17.2395
  62   2.0000      -0.628387       -17.0993
  63   2.0000      -0.610657       -16.6168
  64   2.0000      -0.606399       -16.5010
  65   2.0000      -0.598913       -16.2972
  66   2.0000      -0.586722       -15.9655
  67   2.0000      -0.583747       -15.8846
  68   2.0000      -0.582386       -15.8475
  69   2.0000      -0.569598       -15.4996
  70   2.0000      -0.557559       -15.1719
  71   2.0000      -0.548471       -14.9247
  72   2.0000      -0.543893       -14.8001
  73   2.0000      -0.538201       -14.6452
  74   2.0000      -0.527727       -14.3602
  75   2.0000      -0.508868       -13.8470
  76   2.0000      -0.508573       -13.8390
  77   2.0000      -0.504307       -13.7229
  78   2.0000      -0.503188       -13.6924
  79   2.0000      -0.490609       -13.3502
  80   2.0000      -0.487419       -13.2633
  81   2.0000      -0.487113       -13.2550
  82   2.0000      -0.472669       -12.8620
  83   2.0000      -0.456296       -12.4165
  84   2.0000      -0.445034       -12.1100
  85   2.0000      -0.396737       -10.7958
  86   2.0000      -0.357233        -9.7208
  87   2.0000      -0.341209        -9.2848
  88   2.0000      -0.337867        -9.1938
  89   2.0000      -0.329506        -8.9663
  90   2.0000      -0.318046        -8.6545
  91   2.0000      -0.273862        -7.4522
  92   0.0000       0.052354         1.4246
  93   0.0000       0.069942         1.9032
  94   0.0000       0.117074         3.1858
  95   0.0000       0.124021         3.3748
  96   0.0000       0.129329         3.5192

E(0)                                       ...  -1143.206611602
E(0)                                       ...  -1143.206611602
E(CORR)(strong-pairs)                      ...     -4.412591537
E(CORR)(weak-pairs)                        ...     -0.009951556
E(CORR)(corrected)                         ...     -4.422543093
E(TOT)                                     ...  -1147.629154695

MULLIKEN ATOMIC CHARGES
-----------------------
   0 C :   -0.128033
   1 C :   -0.287762
   2 C :    0.158193
   3 C :    0.115207
   4 C :   -0.272282
   5 C :   -0.169884
   6 C :   -0.402185
   7 C :    0.285269
   8 C :   -0.119021
   9 C :    0.138142
  10 C :    0.096277
  11 C :    0.217614
  12 C :    0.303913
  13 H :    0.168480
  14 H :    0.174674
  15 H :    0.171110
  16 H :    0.182544
  17 H :    0.170684
  18 C :    0.102099
  19 C :   -0.280443
  20 C :   -0.256815
  21 C :   -0.185141
  22 H :    0.165678
  23 C :   -0.191625
  24 H :    0.165555
  25 C :   -0.155686
  26 H :    0.167995
  27 H :    0.167299
  28 H :    0.169314
  29 O :   -0.325277
  30 O :   -0.184805
  31 C :   -0.265283
  32 C :   -0.420873
  33 C :    0.361855
  34 C :   -0.284571
  35 H :    0.176891
  36 H :    0.171868
  37 H :    0.155430
  38 O :   -0.270166
  39 C :   -0.271510
  40 H :    0.156483
  41 H :    0.172304
  42 H :    0.156484
Sum of atomic charges:    0.0000000

LOEWDIN ATOMIC CHARGES
----------------------
   0 C :   -0.134934
   1 C :   -0.102927
   2 C :   -0.089909
   3 C :   -0.054901
   4 C :   -0.096293
   5 C :   -0.141442
   6 C :   -0.053655
   7 C :   -0.001165
   8 C :   -0.053081
   9 C :   -0.067174
  10 C :   -0.104773
  11 C :   -0.191246
  12 C :   -0.394730
  13 H :    0.168306
  14 H :    0.159226
  15 H :    0.162483
  16 H :    0.166909
  17 H :    0.158305
  18 C :   -0.106484
  19 C :   -0.107385
  20 C :   -0.107172
  21 C :   -0.151245
  22 H :    0.161046
  23 C :   -0.150971
  24 H :    0.161030
  25 C :   -0.153801
  26 H :    0.155901
  27 H :    0.155833
  28 H :    0.154605
  29 O :    0.134064
  30 O :    0.345067
  31 C :   -0.089940
  32 C :   -0.099517
  33 C :   -0.256443
  34 C :   -0.144015
  35 H :    0.164872
  36 H :    0.165610
  37 H :    0.165487
  38 O :    0.237302
  39 C :   -0.319472
  40 H :    0.117495
  41 H :    0.121639
  42 H :    0.117496

  Mayer bond orders larger than 0.100000
B(  0-C ,  1-C ) :   1.4247 B(  0-C ,  5-C ) :   1.1145 B(  0-C , 14-H ) :   0.9332
B(  1-C ,  2-C ) :   1.1239 B(  1-C , 15-H ) :   0.9445 B(  2-C ,  3-C ) :   1.2225
B(  2-C ,  6-C ) :   1.1617 B(  3-C ,  4-C ) :   1.1350 B(  3-C ,  7-C ) :   1.1435
B(  4-C ,  5-C ) :   1.4519 B(  4-C , 16-H ) :   0.9234 B(  5-C , 17-H ) :   0.9350
B(  6-C ,  9-C ) :   1.3600 B(  6-C , 13-H ) :   0.9344 B(  7-C ,  8-C ) :   1.3014
B(  7-C , 18-C ) :   0.6652 B(  8-C ,  9-C ) :   1.1707 B(  8-C , 12-C ) :   0.9077
B(  9-C , 10-C ) :   0.9509 B( 10-C , 11-C ) :   1.2603 B( 10-C , 31-C ) :   1.2570
B( 11-C , 30-O ) :   0.9771 B( 11-C , 32-C ) :   1.3040 B( 12-C , 29-O ) :   2.0012
B( 12-C , 30-O ) :   1.1184 B( 18-C , 19-C ) :   1.2998 B( 18-C , 20-C ) :   1.3137
B( 19-C , 21-C ) :   1.3340 B( 19-C , 22-H ) :   0.9381 B( 20-C , 23-C ) :   1.3388
B( 20-C , 24-H ) :   0.9360 B( 21-C , 25-C ) :   1.2875 B( 21-C , 26-H ) :   0.9331
B( 23-C , 25-C ) :   1.2833 B( 23-C , 27-H ) :   0.9334 B( 25-C , 28-H ) :   0.9312
B( 31-C , 34-C ) :   1.3401 B( 31-C , 36-H ) :   0.9073 B( 32-C , 33-C ) :   1.2299
B( 32-C , 37-H ) :   0.9591 B( 33-C , 34-C ) :   1.1720 B( 33-C , 38-O ) :   1.1102
B( 34-C , 35-H ) :   0.9242 B( 38-O , 39-C ) :   0.8364 B( 39-C , 40-H ) :   0.9180
B( 39-C , 41-H ) :   0.9209 B( 39-C , 42-H ) :   0.9180

-----------------------------------------------------------------------------
         ABSORPTION SPECTRUM VIA TRANSITION ELECTRIC DIPOLE MOMENTS
-----------------------------------------------------------------------------
State   Energy  Wavelength   fosc         T2         TX        TY        TZ
        (cm-1)    (nm)                  (au**2)     (au)      (au)      (au)
-----------------------------------------------------------------------------
   1   26468.1    377.8   0.049469834   0.61531   0.65172   0.43528   0.00042
   2   32163.5    310.9   0.282201803   2.88850   1.51325   0.77322   0.00085
   3   34763.7    287.7   0.063864870   0.60480   0.71978   0.28757   0.00090
   4   34128.5    293.0   0.000322538   0.00311   0.04112   0.01272   0.01326
   5   37547.3    266.3   1.089080651   9.54899   2.87374   1.13324   0.00092
   6   38458.0    260.0   0.000686843   0.00588   0.05890   0.00624   0.04378
   7   38601.9    259.1   0.127749856   1.08950   0.70789   0.71795   0.00390
   8   40337.4    247.9   0.061083037   0.49853   0.63479   0.30889   0.00312
   9   41829.9    239.1   0.108221688   0.85173   0.54506   0.74398   0.00092
  10   42132.7    237.3   0.002140029   0.01672   0.09202   0.05845   0.06900
  11   44955.6    222.4   0.383851183   2.81096   0.26407   1.63751   0.00389
  12   45206.3    221.2   0.064378933   0.46884   0.31755   0.59132   0.00105
  13   46269.4    216.1   0.449757988   3.20008   0.85082   1.57072   0.00664
  14   44008.0    227.2   0.004333073   0.03241   0.03197   0.04915   0.16945
  15   47383.7    211.0   0.022079377   0.15340   0.38599   0.06584   0.00266
  16   48880.5    204.6   0.019096341   0.12861   0.34757   0.08779   0.00133
  17   44464.6    224.9   0.000155616   0.00115   0.00907   0.02742   0.01067
  18   50258.8    199.0   0.001096669   0.00718   0.07894   0.02406   0.00637
  19   50836.0    196.7   0.068602625   0.44427   0.65994   0.08963   0.01203
  20   48375.9    206.7   0.002541587   0.01730   0.04553   0.12022   0.00743
  21   55332.5    180.7   0.042923304   0.25538   0.33036   0.36502   0.09875
  22   58857.2    169.9   0.037955158   0.21230   0.24072   0.36528   0.13151
  23   61302.9    163.1   0.009663712   0.05190   0.05824   0.13499   0.15336

FINAL SINGLE POINT ENERGY     -1147.508557015807

DIPOLE MOMENT
-------------
                                X             Y             Z
Electronic contribution:     -1.26170      -4.77792      -0.00194
Nuclear contribution   :      2.30387       7.71586       0.00102
                        -----------------------------------------
Total Dipole Moment    :      1.04217       2.93793      -0.00091
                        -----------------------------------------
Magnitude (a.u.)       :      3.11730
Magnitude (Debye)      :      7.92356

Rotational constants in cm-1:     0.011445     0.004004     0.003062
Rotational constants in MHz :   343.117137   120.023996    91.800824

                             ****ORCA TERMINATED NORMALLY****
TOTAL RUN TIME: 0 days 17 hours 33 minutes 20 seconds 346 msec
