 Gaussian 09, Revision E.01,

 ----------------------------------------------------------------------
 #p B97D3/def2TZVP opt freq=noraman nosymm int=ultrafine scrf=(SMD,solv
 ent=Acetonitrile)
 ----------------------------------------------------------------------

 -----
 Title
 -----
 Symbolic Z-matrix:
 Charge =  0 Multiplicity = 1

 SCF Done:  E(RB97D3) =  -1149.59383975     A.U. after   15 cycles
 SCF Done:  E(RB97D3) =  -1149.59495871     A.U. after   11 cycles
 SCF Done:  E(RB97D3) =  -1149.59513306     A.U. after   10 cycles
 SCF Done:  E(RB97D3) =  -1149.59517338     A.U. after    9 cycles
 SCF Done:  E(RB97D3) =  -1149.59517396     A.U. after    8 cycles
 SCF Done:  E(RB97D3) =  -1149.59517741     A.U. after    8 cycles
 Optimization completed.
    -- Stationary point found.
 Normal termination of Gaussian 09 at Mon Mar 29 19:53:41 2021.

 --------------------------------------------------------------------
 #P Geom=AllCheck Guess=TCheck SCRF=Check GenChk RB97D3/def2TZVP Freq
 --------------------------------------------------------------------

 Structure from the checkpoint file:  "cp.chk"
 -----
 Title
 -----
 Charge =  0 Multiplicity = 1

 SCF Done:  E(RB97D3) =  -1149.59517741     A.U. after    1 cycles

  Exact polarizability: 705.769  39.818 527.223  -0.005  -0.019 277.194
 Approx polarizability: 884.870  59.931 728.295   0.003  -0.039 358.034

                      1                      2                      3
                      A                      A                      A
 Frequencies --     19.1469                41.8920                47.1800
 Red. masses --      5.6273                 4.4647                 4.6525
 Frc consts  --      0.0012                 0.0046                 0.0061
 IR Inten    --      2.5967                 1.2795                 0.0729

                      4                      5                      6
                      A                      A                      A
 Frequencies --     59.8399                61.8951                80.9042
 Red. masses --      5.3730                 4.4415                 3.9692
 Frc consts  --      0.0113                 0.0100                 0.0153
 IR Inten    --      1.0519                 0.0215                 0.2879

                      7                      8                      9
                      A                      A                      A
 Frequencies --     99.1663               118.8885               120.7297
 Red. masses --      5.4832                 5.2048                 4.9172
 Frc consts  --      0.0318                 0.0433                 0.0422
 IR Inten    --      0.8346                 4.0795                 0.9326

                     10                     11                     12
                      A                      A                      A
 Frequencies --    192.5377               197.5635               228.1320
 Red. masses --      4.0775                 5.1945                 2.2183
 Frc consts  --      0.0891                 0.1195                 0.0680
 IR Inten    --      0.5533                 0.1866                 0.4756

                     13                     14                     15
                      A                      A                      A
 Frequencies --    242.6959               246.9550               261.7431
 Red. masses --      5.1228                 6.3869                 5.1740
 Frc consts  --      0.1778                 0.2295                 0.2088
 IR Inten    --      2.0213                 0.4101                 0.6226

                     16                     17                     18
                      A                      A                      A
 Frequencies --    265.8537               298.6292               314.0516
 Red. masses --      1.6471                 6.8252                 4.1052
 Frc consts  --      0.0686                 0.3586                 0.2386
 IR Inten    --      0.1129                 7.1586                 0.4308

                     19                     20                     21
                      A                      A                      A
 Frequencies --    317.7786               361.0896               366.6834
 Red. masses --      5.7953                 5.7920                 5.6288
 Frc consts  --      0.3448                 0.4449                 0.4459
 IR Inten    --     12.1371                 1.0603                 4.6112

                     22                     23                     24
                      A                      A                      A
 Frequencies --    401.5992               432.1834               439.9926
 Red. masses --      2.9080                 7.4416                 2.9923
 Frc consts  --      0.2763                 0.8189                 0.3413
 IR Inten    --      0.1526                 6.1806                 1.1809

                     25                     26                     27
                      A                      A                      A
 Frequencies --    456.3030               475.0446               494.2469
 Red. masses --      3.2189                 7.0072                 4.7862
 Frc consts  --      0.3949                 0.9317                 0.6889
 IR Inten    --     22.7900                 1.7437                10.8859

                     28                     29                     30
                      A                      A                      A
 Frequencies --    518.6285               540.7712               575.6994
 Red. masses --      3.5025                 6.5304                 4.3567
 Frc consts  --      0.5551                 1.1252                 0.8508
 IR Inten    --      7.2091                14.7679                86.8199

                     31                     32                     33
                      A                      A                      A
 Frequencies --    600.9641               604.9929               619.7347
 Red. masses --      7.1415                 5.3062                 5.7458
 Frc consts  --      1.5196                 1.1443                 1.3002
 IR Inten    --     37.9097                10.6831                 6.1641

                     34                     35                     36
                      A                      A                      A
 Frequencies --    625.2135               637.0597               637.9310
 Red. masses --      6.6831                 6.9248                 3.3857
 Frc consts  --      1.5392                 1.6558                 0.8118
 IR Inten    --      3.3404                 4.7278                 0.7623

                     37                     38                     39
                      A                      A                      A
 Frequencies --    666.4227               668.8584               696.8959
 Red. masses --      5.1100                 5.7853                 1.5234
 Frc consts  --      1.3371                 1.5249                 0.4359
 IR Inten    --      1.7581                 1.3517                91.6494

                     40                     41                     42
                      A                      A                      A
 Frequencies --    699.5386               717.6757               744.1055
 Red. masses --      6.7253                 2.6320                 1.5119
 Frc consts  --      1.9390                 0.7987                 0.4932
 IR Inten    --      1.2072                 1.1596                59.2753

                     43                     44                     45
                      A                      A                      A
 Frequencies --    744.7945               763.2858               784.1026
 Red. masses --      2.9168                 3.8218                 6.6099
 Frc consts  --      0.9533                 1.3119                 2.3944
 IR Inten    --     47.4679                45.9207                29.9683

                     46                     47                     48
                      A                      A                      A
 Frequencies --    794.8944               800.9001               818.3331
 Red. masses --      1.7495                 4.6822                 3.3311
 Frc consts  --      0.6513                 1.7695                 1.3143
 IR Inten    --     45.8347                10.9598                 7.8386

                     49                     50                     51
                      A                      A                      A
 Frequencies --    834.6519               837.8748               849.5721
 Red. masses --      1.2525                 1.6284                 1.5684
 Frc consts  --      0.5141                 0.6736                 0.6670
 IR Inten    --      0.0303                55.3417                16.0367

                     52                     53                     54
                      A                      A                      A
 Frequencies --    853.6323               884.5764               890.2110
 Red. masses --      5.3818                 1.9506                 3.0189
 Frc consts  --      2.3106                 0.8992                 1.4095
 IR Inten    --      0.7096                24.4482                30.9375

                     55                     56                     57
                      A                      A                      A
 Frequencies --    908.6905               922.7151               946.2940
 Red. masses --      2.1346                 1.3154                 1.3667
 Frc consts  --      1.0385                 0.6599                 0.7211
 IR Inten    --     17.5563                 2.4566                 0.5205

                     58                     59                     60
                      A                      A                      A
 Frequencies --    947.8564               951.9260               969.2659
 Red. masses --      1.3601                 5.6434                 1.2931
 Frc consts  --      0.7199                 3.0130                 0.7158
 IR Inten    --      2.2516                16.9123                 0.0198

                     61                     62                     63
                      A                      A                      A
 Frequencies --    969.5769               974.0711               998.9698
 Red. masses --      1.2752                 6.6494                 6.3002
 Frc consts  --      0.7063                 3.7172                 3.7043
 IR Inten    --      1.0859                78.5725                 3.0437

                     64                     65                     66
                      A                      A                      A
 Frequencies --   1021.6124              1025.6990              1030.3898
 Red. masses --      3.0355                 2.5105                 2.1507
 Frc consts  --      1.8666                 1.5562                 1.3454
 IR Inten    --    200.3554                 9.4132                19.1083

                     67                     68                     69
                      A                      A                      A
 Frequencies --   1065.5631              1075.3508              1111.9627
 Red. masses --      5.1670                 1.5750                 2.9642
 Frc consts  --      3.4566                 1.0731                 2.1594
 IR Inten    --    469.1127                15.7035               500.9409

                     70                     71                     72
                      A                      A                      A
 Frequencies --   1130.5656              1146.0963              1150.0737
 Red. masses --      1.8629                 1.2698                 1.0738
 Frc consts  --      1.4029                 0.9827                 0.8368
 IR Inten    --     43.7306                 1.0910                 0.0113

                     73                     74                     75
                      A                      A                      A
 Frequencies --   1153.9076              1159.0938              1169.5025
 Red. masses --      1.1592                 1.7611                 1.1338
 Frc consts  --      0.9094                 1.3940                 0.9137
 IR Inten    --     97.5550               202.4793                 0.0537

                     76                     77                     78
                      A                      A                      A
 Frequencies --   1179.7681              1188.2268              1202.4066
 Red. masses --      2.1506                 1.5259                 1.7958
 Frc consts  --      1.7636                 1.2693                 1.5297
 IR Inten    --     21.7788                57.0528                17.4164

                     79                     80                     81
                      A                      A                      A
 Frequencies --   1227.7374              1248.1077              1261.0273
 Red. masses --      2.1043                 2.7819                 2.5500
 Frc consts  --      1.8688                 2.5532                 2.3891
 IR Inten    --     22.3498               358.7003                10.7020

                     82                     83                     84
                      A                      A                      A
 Frequencies --   1287.7832              1302.3551              1323.6906
 Red. masses --      2.7906                 2.2463                 4.0965
 Frc consts  --      2.7267                 2.2448                 4.2290
 IR Inten    --    321.0383                 0.0616                82.1082

                     85                     86                     87
                      A                      A                      A
 Frequencies --   1329.6408              1332.8323              1345.1581
 Red. masses --      2.4020                 2.7912                 3.7212
 Frc consts  --      2.5021                 2.9214                 3.9671
 IR Inten    --      0.0001                94.5643                17.6253

                     88                     89                     90
                      A                      A                      A
 Frequencies --   1379.8397              1385.4695              1403.7780
 Red. masses --      5.5073                 3.6472                 4.4459
 Frc consts  --      6.1780                 4.1248                 5.1619
 IR Inten    --      8.7369                16.0292                 8.4138

                     91                     92                     93
                      A                      A                      A
 Frequencies --   1438.8526              1439.3450              1442.1371
 Red. masses --      2.0072                 2.1892                 2.1385
 Frc consts  --      2.4484                 2.6722                 2.6205
 IR Inten    --    113.8076                 6.8087                32.3338

                     94                     95                     96
                      A                      A                      A
 Frequencies --   1452.6398              1457.2513              1461.9645
 Red. masses --      1.9590                 1.0436                 1.0843
 Frc consts  --      2.4356                 1.3057                 1.3655
 IR Inten    --     21.6700                12.4700                25.3714

                     97                     98                     99
                      A                      A                      A
 Frequencies --   1488.2512              1495.2567              1508.9809
 Red. masses --      2.4958                 2.9132                 2.8209
 Frc consts  --      3.2569                 3.8376                 3.7844
 IR Inten    --     38.2312                 4.1975               165.0156

                    100                    101                    102
                      A                      A                      A
 Frequencies --   1548.1900              1568.5306              1575.5190
 Red. masses --      8.1434                 6.9512                 5.5581
 Frc consts  --     11.5001                10.0762                 8.1287
 IR Inten    --    177.7205                52.3815                 1.4530

                    103                    104                    105
                      A                      A                      A
 Frequencies --   1585.9865              1599.4184              1608.0330
 Red. masses --      5.7631                 5.7420                 5.7278
 Frc consts  --      8.5409                 8.6544                 8.7263
 IR Inten    --    340.6532                16.1760               321.7736

                    106                    107                    108
                      A                      A                      A
 Frequencies --   1615.7650              1713.2319              2975.3229
 Red. masses --      6.4292                12.8406                 1.0319
 Frc consts  --      9.8892                22.2058                 5.3822
 IR Inten    --    266.6673               878.2240               101.4731

                    109                    110                    111
                      A                      A                      A
 Frequencies --   3044.3506              3096.8277              3113.6496
 Red. masses --      1.1073                 1.1021                 1.0847
 Frc consts  --      6.0467                 6.2271                 6.1961
 IR Inten    --     47.9303                29.4610                 2.8290

                    112                    113                    114
                      A                      A                      A
 Frequencies --   3118.9253              3120.1591              3127.5187
 Red. masses --      1.0867                 1.0860                 1.0908
 Frc consts  --      6.2284                 6.2291                 6.2862
 IR Inten    --      0.2722                 0.8597                20.3828

                    115                    116                    117
                      A                      A                      A
 Frequencies --   3129.6651              3133.2309              3141.4492
 Red. masses --      1.0897                 1.0945                 1.0950
 Frc consts  --      6.2885                 6.3304                 6.3670
 IR Inten    --     18.4682                63.2541                48.4689

                    118                    119                    120
                      A                      A                      A
 Frequencies --   3141.8152              3146.3827              3155.0528
 Red. masses --      1.0978                 1.0899                 1.0883
 Frc consts  --      6.3846                 6.3572                 6.3830
 IR Inten    --     19.7657                 5.6721                12.5097

                    121                    122                    123
                      A                      A                      A
 Frequencies --   3156.4864              3157.8688              3174.4121
 Red. masses --      1.0904                 1.0930                 1.0923
 Frc consts  --      6.4008                 6.4218                 6.4849
 IR Inten    --      5.9874                22.4634                 9.3066

 - Thermochemistry -
 -------------------
 Temperature   298.150 Kelvin.  Pressure   1.00000 Atm.
 Atom     1 has atomic number  6 and mass  12.00000

 Molecular mass:   352.10994 amu.
 Principal axes and moments of inertia in atomic units:
                           1         2         3
     Eigenvalues --  5286.34150********************
           X            0.99998  -0.00600   0.00005
           Y            0.00600   0.99998   0.00008
           Z           -0.00005  -0.00008   1.00000
 This molecule is an asymmetric top.
 Rotational symmetry number  1.
 Warning -- assumption of classical behavior for rotation
           may cause significant error
 Rotational temperatures (Kelvin)      0.01638     0.00568     0.00435
 Rotational constants (GHZ):           0.34140     0.11828     0.09069
 Zero-point vibrational energy     856607.1 (Joules/Mol)
                                  204.73400 (Kcal/Mol)
 Warning -- explicit consideration of  33 degrees of freedom as
           vibrations may cause significant error
 Vibrational temperatures:     27.55    60.27    67.88    86.10    89.05
          (Kelvin)            116.40   142.68   171.05   173.70   277.02
                              284.25   328.23   349.18   355.31   376.59
                              382.50   429.66   451.85   457.21   519.53
                              527.57   577.81   621.81   633.05   656.52
                              683.48   711.11   746.19   778.05   828.30
                              864.65   870.45   891.66   899.54   916.59
                              917.84   958.83   962.34  1002.68  1006.48
                             1032.57  1070.60  1071.59  1098.20  1128.15
                             1143.67  1152.32  1177.40  1200.88  1205.51
                             1222.34  1228.18  1272.71  1280.81  1307.40
                             1327.58  1361.50  1363.75  1369.61  1394.56
                             1395.00  1401.47  1437.29  1469.87  1475.75
                             1482.50  1533.11  1547.19  1599.86  1626.63
                             1648.97  1654.70  1660.21  1667.68  1682.65
                             1697.42  1709.59  1729.99  1766.44  1795.75
                             1814.33  1852.83  1873.80  1904.49  1913.05
                             1917.65  1935.38  1985.28  1993.38  2019.72
                             2070.19  2070.89  2074.91  2090.02  2096.66
                             2103.44  2141.26  2151.34  2171.08  2227.50
                             2256.76  2266.82  2281.88  2301.20  2313.60
                             2324.72  2464.96  4280.82  4380.14  4455.64
                             4479.84  4487.43  4489.21  4499.80  4502.88
                             4508.01  4519.84  4520.37  4526.94  4539.41
                             4541.47  4543.46  4567.27

 Zero-point correction=                           0.326264 (Hartree/Particle)
 Thermal correction to Energy=                    0.347292
 Thermal correction to Enthalpy=                  0.348236
 Thermal correction to Gibbs Free Energy=         0.275387
 Sum of electronic and zero-point Energies=          -1149.268913
 Sum of electronic and thermal Energies=             -1149.247885
 Sum of electronic and thermal Enthalpies=           -1149.246941
 Sum of electronic and thermal Free Energies=        -1149.319791

                     E (Thermal)             CV                S
                      KCal/Mol        Cal/Mol-Kelvin    Cal/Mol-Kelvin
 Total                  217.929             84.920            153.325
 Electronic               0.000              0.000              0.000
 Translational            0.889              2.981             43.470
 Rotational               0.889              2.981             35.727
 Vibrational            216.152             78.958             74.128
 Vibration     1          0.593              1.986              6.721
 Vibration     2          0.595              1.980              5.168
 Vibration     3          0.595              1.979              4.932
 Vibration     4          0.597              1.973              4.462
 Vibration     5          0.597              1.972              4.396
 Vibration     6          0.600              1.962              3.869
 Vibration     7          0.604              1.950              3.471
 Vibration     8          0.609              1.934              3.118
 Vibration     9          0.609              1.932              3.089
 Vibration    10          0.635              1.850              2.203
 Vibration    11          0.637              1.843              2.156
 Vibration    12          0.651              1.798              1.894
 Vibration    13          0.659              1.775              1.783
 Vibration    14          0.661              1.768              1.752
 Vibration    15          0.669              1.743              1.650
 Vibration    16          0.672              1.736              1.623
 Vibration    17          0.692              1.676              1.425
 Vibration    18          0.702              1.647              1.341
 Vibration    19          0.704              1.640              1.322
 Vibration    20          0.735              1.552              1.117
 Vibration    21          0.740              1.541              1.094
 Vibration    22          0.767              1.467              0.957
 Vibration    23          0.793              1.400              0.852
 Vibration    24          0.800              1.383              0.827
 Vibration    25          0.815              1.347              0.777
 Vibration    26          0.832              1.305              0.724
 Vibration    27          0.850              1.263              0.673
 Vibration    28          0.874              1.209              0.613
 Vibration    29          0.896              1.160              0.564
 Vibration    30          0.932              1.084              0.493
 Vibration    31          0.959              1.030              0.448
 Vibration    32          0.964              1.021              0.441
 Vibration    33          0.980              0.990              0.417

 Normal termination of Gaussian 09 at Mon Mar 29 22:34:09 2021.
 Gaussian 09:  ES64L-G09RevE.01 30-Nov-2015

 ----------------------------------------------------------------------
 #p B97D3 chkbasis geom=allcheck Guess=Read int=ultrafine scrf=(SMD,sol
 vent=Acetonitrile) td=(NStates=30)
 ----------------------------------------------------------------------

 Structure from the checkpoint file:  "cp.chk"
 -----
 Title
 -----
 Charge =  0 Multiplicity = 1

                         Standard orientation:
 ---------------------------------------------------------------------
 Center     Atomic      Atomic             Coordinates (Angstroms)
 Number     Number       Type             X           Y           Z
 ---------------------------------------------------------------------
      1          6           0       -2.815074    4.132884    0.000415
      2          6           0       -1.478409    3.806832    0.000314
      3          6           0       -1.061836    2.446716    0.000218
      4          6           0       -2.055107    1.408580    0.000189
      5          6           0       -3.428202    1.785646    0.000324
      6          6           0       -3.797747    3.112263    0.000429
      7          6           0        0.301813    2.101181    0.000174
      8          6           0       -1.637398    0.045581    0.000050
      9          6           0       -0.269859   -0.264564    0.000006
     10          6           0        0.721762    0.780160    0.000087
     11          6           0        2.134097    0.415206    0.000006
     12          6           0        2.482475   -0.945035   -0.000199
     13          6           0        0.160044   -1.676630   -0.000192
     14          1           0        1.025559    2.909738    0.000201
     15          1           0       -3.122681    5.175843    0.000495
     16          1           0       -0.716271    4.582985    0.000319
     17          1           0       -4.189868    1.013212    0.000342
     18          1           0       -4.851292    3.380600    0.000529
     19          6           0       -2.708426   -0.992684    0.000109
     20          6           0       -3.247862   -1.450170    1.207800
     21          6           0       -3.248550   -1.449651   -1.207471
     22          6           0       -4.294397   -2.372924    1.207950
     23          1           0       -2.840846   -1.083713    2.147189
     24          6           0       -4.295074   -2.372417   -1.207421
     25          1           0       -2.842075   -1.082788   -2.146936
     26          6           0       -4.819316   -2.839905    0.000313
     27          1           0       -4.702343   -2.725189    2.152773
     28          1           0       -4.703545   -2.724293   -2.152163
     29          1           0       -5.636051   -3.557983    0.000391
     30          8           0       -0.550562   -2.659222   -0.001322
     31          8           0        1.521958   -1.930851   -0.000317
     32          6           0        3.202102    1.331546    0.000071
     33          6           0        3.798605   -1.388279   -0.000317
     34          6           0        4.836573   -0.449877   -0.000223
     35          6           0        4.529412    0.923452   -0.000031
     36          1           0        5.315061    1.669889    0.000030
     37          1           0        2.998119    2.397295    0.000198
     38          1           0        4.017383   -2.451686   -0.000482
     39          8           0        6.095655   -0.956510   -0.000333
     40          6           0        7.198203   -0.033171   -0.000304
     41          1           0        7.184348    0.596720    0.897543
     42          1           0        8.096896   -0.653345   -0.000446
     43          1           0        7.184213    0.596938   -0.897995
 ---------------------------------------------------------------------

 SCF Done:  E(RB97D3) =  -1149.59517710     A.U. after    5 cycles

 Excitation energies and oscillator strengths:

 Excited State   1:      Singlet-A      2.6106 eV  474.93 nm  f=0.0271  <S**2>=0.000
      90 -> 93        -0.11527
      92 -> 93         0.68453
 This state for optimization and/or second-order correction.
 Total Energy, E(TD-HF/TD-KS) =  -1149.49923961
 Copying the excited state density for this state as the 1-particle RhoCI density.

 Excited State   2:      Singlet-A      3.1930 eV  388.30 nm  f=0.0000  <S**2>=0.000
      91 -> 93         0.70670

 Excited State   3:      Singlet-A      3.3166 eV  373.83 nm  f=0.1222  <S**2>=0.000
      89 -> 93        -0.43808
      90 -> 93        -0.26154
      92 -> 93        -0.10126
      92 -> 94         0.46556

 Excited State   4:      Singlet-A      3.4516 eV  359.21 nm  f=0.4177  <S**2>=0.000
      87 -> 93         0.10540
      89 -> 93         0.47989
      92 -> 94         0.47896

 Excited State   5:      Singlet-A      3.5305 eV  351.18 nm  f=0.0585  <S**2>=0.000
      87 -> 93         0.12641
      88 -> 93         0.45479
      89 -> 93        -0.22535
      90 -> 93         0.45379

 Excited State   6:      Singlet-A      3.6117 eV  343.28 nm  f=0.0867  <S**2>=0.000
      87 -> 93        -0.14369
      88 -> 93         0.53413
      89 -> 93         0.12092
      90 -> 93        -0.38517

 Excited State   7:      Singlet-A      3.7426 eV  331.28 nm  f=0.0004  <S**2>=0.000
      91 -> 94         0.70605

 Excited State   8:      Singlet-A      3.8777 eV  319.73 nm  f=0.0969  <S**2>=0.000
      87 -> 93         0.18941
      89 -> 94         0.12264
      90 -> 94         0.54378
      92 -> 95        -0.33200
      92 -> 97        -0.10623

 Excited State   9:      Singlet-A      3.9473 eV  314.10 nm  f=0.0796  <S**2>=0.000
      87 -> 93         0.28206
      89 -> 94        -0.33288
      90 -> 94         0.24774
      92 -> 95         0.46367

 Excited State  10:      Singlet-A      3.9970 eV  310.19 nm  f=0.0000  <S**2>=0.000
      92 -> 96         0.70708

 Excited State  11:      Singlet-A      4.0375 eV  307.08 nm  f=0.0149  <S**2>=0.000
      88 -> 94         0.11217
      89 -> 94         0.43517
      90 -> 94         0.10037
      92 -> 95         0.18473
      92 -> 97         0.47432
      92 -> 98        -0.12811

 Excited State  12:      Singlet-A      4.1299 eV  300.21 nm  f=0.0071  <S**2>=0.000
      88 -> 94         0.67342
      92 -> 97        -0.18453

 Excited State  13:      Singlet-A      4.2075 eV  294.67 nm  f=0.0001  <S**2>=0.000
      86 -> 93         0.70497

 Excited State  14:      Singlet-A      4.2342 eV  292.82 nm  f=0.0035  <S**2>=0.000
      87 -> 93         0.26150
      88 -> 94        -0.14583
      89 -> 94         0.38857
      90 -> 95         0.17420
      92 -> 95         0.23263
      92 -> 97        -0.35039
      92 -> 98         0.10426

 Excited State  15:      Singlet-A      4.3885 eV  282.52 nm  f=0.2023  <S**2>=0.000
      85 -> 93        -0.14999
      87 -> 93         0.11180
      90 -> 93        -0.11270
      92 -> 97         0.18488
      92 -> 98         0.61514

 Excited State  16:      Singlet-A      4.5046 eV  275.24 nm  f=0.6269  <S**2>=0.000
      85 -> 93         0.23799
      87 -> 93         0.41640
      90 -> 93        -0.11590
      90 -> 94        -0.25446
      92 -> 94        -0.10319
      92 -> 95        -0.19635
      92 -> 97         0.20387
      92 -> 99         0.18742

 Excited State  17:      Singlet-A      4.6513 eV  266.56 nm  f=0.0012  <S**2>=0.000
      91 -> 95         0.66807
      91 -> 97        -0.20571

 Excited State  18:      Singlet-A      4.6725 eV  265.35 nm  f=0.0161  <S**2>=0.000
      85 -> 93        -0.26868
      87 -> 94         0.35338
      90 -> 95         0.46224
      90 -> 97         0.10068
      92 -> 99        -0.15441

 Excited State  19:      Singlet-A      4.7417 eV  261.48 nm  f=0.0000  <S**2>=0.000
      86 -> 94         0.70142

 Excited State  20:      Singlet-A      4.7546 eV  260.77 nm  f=0.0600  <S**2>=0.000
      87 -> 93         0.12605
      87 -> 94         0.42555
      90 -> 95        -0.40271
      90 -> 97        -0.24953
      90 -> 98         0.15722
      92 -> 99        -0.12146

 Excited State  21:      Singlet-A      4.7745 eV  259.68 nm  f=0.0000  <S**2>=0.000
      90 -> 96         0.69969

 Excited State  22:      Singlet-A      4.7918 eV  258.74 nm  f=0.1428  <S**2>=0.000
      85 -> 93         0.47090
      87 -> 94         0.18277
      90 -> 95         0.14919
      90 -> 97        -0.13367
      90 -> 98        -0.21422
      92 -> 98         0.11581
      92 -> 99        -0.29045
      92 ->100        -0.11576

 Excited State  23:      Singlet-A      4.8776 eV  254.19 nm  f=0.0005  <S**2>=0.000
      87 -> 94         0.18588
      89 -> 95         0.22579
      89 -> 97         0.20711
      90 -> 95        -0.11956
      90 -> 97         0.56444

 Excited State  24:      Singlet-A      4.9223 eV  251.88 nm  f=0.0002  <S**2>=0.000
      89 -> 96         0.65805
      91 -> 97         0.23383

 Excited State  25:      Singlet-A      4.9391 eV  251.03 nm  f=0.0736  <S**2>=0.000
      87 -> 94        -0.13153
      89 -> 95         0.41827
      89 -> 97         0.41517
      89 -> 98        -0.13278
      90 -> 95         0.12237
      90 -> 97        -0.20831

 Excited State  26:      Singlet-A      4.9474 eV  250.61 nm  f=0.0020  <S**2>=0.000
      88 -> 96         0.20912
      89 -> 96        -0.24362
      91 -> 95         0.10642
      91 -> 97         0.47344
      91 -> 98         0.39547

 Excited State  27:      Singlet-A      5.0196 eV  247.00 nm  f=0.0079  <S**2>=0.000
      84 -> 93         0.59374
      85 -> 94        -0.15172
      89 -> 97         0.15066
      90 -> 99         0.11313
      92 -> 99         0.15990
      92 ->100        -0.12103

 Excited State  28:      Singlet-A      5.0457 eV  245.72 nm  f=0.0010  <S**2>=0.000
      88 -> 96        -0.29654
      91 -> 97        -0.28145
      91 -> 98         0.55854

 Excited State  29:      Singlet-A      5.0468 eV  245.67 nm  f=0.0074  <S**2>=0.000
      88 -> 95         0.61477
      88 -> 97        -0.28332
      89 -> 97        -0.12623

 Excited State  30:      Singlet-A      5.1251 eV  241.91 nm  f=0.1356  <S**2>=0.000
      84 -> 93        -0.15292
      85 -> 93         0.12052
      87 -> 93        -0.11780
      89 -> 95        -0.10598
      89 -> 97         0.18068
      90 -> 95         0.10549
      90 -> 98         0.43279
      92 -> 98         0.11637
      92 -> 99         0.32049
      92 ->100        -0.15472

 The electronic state is 1-A.
 Alpha  occ. eigenvalues --  -18.81145 -18.78798 -18.73701 -10.03133  -9.97431
 Alpha  occ. eigenvalues --   -9.96991  -9.94379  -9.93478  -9.93195  -9.93149
 Alpha  occ. eigenvalues --   -9.92244  -9.92214  -9.91795  -9.91468  -9.91233
 Alpha  occ. eigenvalues --   -9.90859  -9.90734  -9.90720  -9.90694  -9.90605
 Alpha  occ. eigenvalues --   -9.90348  -9.90320  -9.90083  -9.90079  -9.90007
 Alpha  occ. eigenvalues --   -9.90006  -9.89949  -1.02685  -0.98326  -0.94620
 Alpha  occ. eigenvalues --   -0.81540  -0.79014  -0.78080  -0.76343  -0.72845
 Alpha  occ. eigenvalues --   -0.70641  -0.69212  -0.68626  -0.67780  -0.67481
 Alpha  occ. eigenvalues --   -0.65610  -0.63041  -0.60660  -0.58282  -0.57509
 Alpha  occ. eigenvalues --   -0.55685  -0.54956  -0.54404  -0.51673  -0.50775
 Alpha  occ. eigenvalues --   -0.49903  -0.47346  -0.47120  -0.45400  -0.44848
 Alpha  occ. eigenvalues --   -0.43824  -0.42525  -0.41773  -0.41248  -0.41187
 Alpha  occ. eigenvalues --   -0.40655  -0.40358  -0.39926  -0.38800  -0.38733
 Alpha  occ. eigenvalues --   -0.37970  -0.37156  -0.36954  -0.36767  -0.35738
 Alpha  occ. eigenvalues --   -0.35659  -0.35029  -0.34722  -0.33442  -0.32562
 Alpha  occ. eigenvalues --   -0.31926  -0.31612  -0.31196  -0.31046  -0.30073
 Alpha  occ. eigenvalues --   -0.29989  -0.28969  -0.28447  -0.27530  -0.26077
 Alpha  occ. eigenvalues --   -0.24856  -0.23885  -0.22661  -0.21815  -0.21248
 Alpha  occ. eigenvalues --   -0.21234  -0.18408
 Alpha virt. eigenvalues --   -0.09566  -0.07516  -0.04274  -0.03723  -0.03519
 Alpha virt. eigenvalues --   -0.02875  -0.00820   0.00568   0.03993   0.04067
 Alpha virt. eigenvalues --    0.04684   0.04920   0.06136   0.06254   0.06562

 Mulliken charges:
               1
     1  C   -0.098665
     2  C   -0.247045
     3  C    0.202837
     4  C    0.034885
     5  C   -0.205083
     6  C   -0.143395
     7  C   -0.441732
     8  C    0.311369
     9  C   -0.162217
    10  C    0.195115
    11  C    0.105778
    12  C    0.247349
    13  C    0.288530
    14  H    0.126118
    15  H    0.136152
    16  H    0.129210
    17  H    0.144613
    18  H    0.135251
    19  C    0.181550
    20  C   -0.232093
    21  C   -0.232004
    22  C   -0.162373
    23  H    0.122994
    24  C   -0.162408
    25  H    0.122989
    26  C   -0.118304
    27  H    0.128563
    28  H    0.128562
    29  H    0.131891
    30  O   -0.319265
    31  O   -0.161624
    32  C   -0.243828
    33  C   -0.407107
    34  C    0.381620
    35  C   -0.287486
    36  H    0.143551
    37  H    0.136453
    38  H    0.106288
    39  O   -0.240390
    40  C   -0.204631
    41  H    0.138056
    42  H    0.151869
    43  H    0.138057
 Sum of Mulliken charges =  -0.00000

 Dipole moment (field-independent basis, Debye):
    X=              3.3422    Y=              7.4258    Z=              0.0026  Tot=              8.1432
 Quadrupole moment (field-independent basis, Debye-Ang):
   XX=           -107.4966   YY=           -150.5119   ZZ=           -153.1700
   XY=              8.5969   XZ=             -0.0009   YZ=             -0.0081

 Normal termination of Gaussian 09 at Tue Mar 30 00:19:01 2021.
