                         Program Version 5.0.2 -  RELEASE  -
|  1> %maxcore 3200
|  2> %pal
|  3>  nprocs= 8
|  4> end
|  5> ! RI-wB2PLYP def2-TZVP def2/J def2-TZVP/C RIJCOSX CPCM TightSCF
|  6> %TDDFT DCORR 1
|  7>    NROOTS   30
|  8>
|  9>    TDA      FALSE
| 10> END
| 11>
| 12> %CPCM
| 13>    SMD          TRUE
| 14>    SMDsolvent   "ACETONITRILE"
| 15> END
| 16>
| 17>
| 18> * xyz 0 1
| 19> C                  -2.79293800    4.12055100    0.00048800
| 20> C                  -1.46622100    3.79291700    0.00034500
| 21> C                  -1.05286200    2.44017500    0.00020200
| 22> C                  -2.04168300    1.41007400    0.00019500
| 23> C                  -3.40652800    1.78994200    0.00035800
| 24> C                  -3.77190700    3.10832400    0.00049900
| 25> C                   0.30285200    2.09382800    0.00008900
| 26> C                  -1.62929500    0.05246500    0.00004900
| 27> C                  -0.26938100   -0.25631800   -0.00007400
| 28> C                   0.71709800    0.78004900   -0.00003500
| 29> C                   2.11986200    0.41216600   -0.00011900
| 30> C                   2.46183500   -0.94127600   -0.00017400
| 31> C                   0.15746000   -1.66057700   -0.00032100
| 32> H                   1.02838400    2.89659300    0.00011500
| 33> H                  -3.09646100    5.15987500    0.00060100
| 34> H                  -0.70465800    4.56360300    0.00034600
| 35> H                  -4.16865700    1.02183200    0.00037600
| 36> H                  -4.82047400    3.37711400    0.00062600
| 37> C                  -2.69458300   -0.98341100    0.00007100
| 38> C                  -3.22739400   -1.44695400    1.19996100
| 39> C                  -3.22796800   -1.44642400   -1.19977000
| 40> C                  -4.25500700   -2.37793300    1.19964400
| 41> H                  -2.82614200   -1.08022700    2.13758000
| 42> C                  -4.25557000   -2.37741500   -1.19937300
| 43> H                  -2.82717400   -1.07927300   -2.13741900
| 44> C                  -4.77009800   -2.84971300    0.00015400
| 45> H                  -4.65586800   -2.73442000    2.14055200
| 46> H                  -4.65686900   -2.73350100   -2.14024600
| 47> H                  -5.57268300   -3.57650600    0.00018600
| 48> O                  -0.55376000   -2.63420400   -0.00045200
| 49> O                   1.50506500   -1.91615600   -0.00020200
| 50> C                   3.18326000    1.32007500   -0.00012700
| 51> C                   3.76940100   -1.38466800   -0.00022200
| 52> C                   4.80184500   -0.45358900   -0.00023000
| 53> C                   4.50132600    0.91224300   -0.00018400
| 54> H                   5.28952700    1.65075600   -0.00019000
| 55> H                   2.97751300    2.38210700   -0.00008700
| 56> H                   3.98545000   -2.44422900   -0.00026600
| 57> O                   6.05250400   -0.95690400   -0.00028400
| 58> C                   7.13492200   -0.03735000   -0.00035300
| 59> H                   7.12357600    0.59473400    0.89029100
| 60> H                   8.04005000   -0.63818000   -0.00042600
| 61> H                   7.12344400    0.59475500   -0.89098000
| 62> *
| 63>
| 64>
| 65>                          ****END OF INPUT****

CARTESIAN COORDINATES (ANGSTROEM)
---------------------------------
  C     -2.792938    4.120551    0.000488
  C     -1.466221    3.792917    0.000345
  C     -1.052862    2.440175    0.000202
  C     -2.041683    1.410074    0.000195
  C     -3.406528    1.789942    0.000358
  C     -3.771907    3.108324    0.000499
  C      0.302852    2.093828    0.000089
  C     -1.629295    0.052465    0.000049
  C     -0.269381   -0.256318   -0.000074
  C      0.717098    0.780049   -0.000035
  C      2.119862    0.412166   -0.000119
  C      2.461835   -0.941276   -0.000174
  C      0.157460   -1.660577   -0.000321
  H      1.028384    2.896593    0.000115
  H     -3.096461    5.159875    0.000601
  H     -0.704658    4.563603    0.000346
  H     -4.168657    1.021832    0.000376
  H     -4.820474    3.377114    0.000626
  C     -2.694583   -0.983411    0.000071
  C     -3.227394   -1.446954    1.199961
  C     -3.227968   -1.446424   -1.199770
  C     -4.255007   -2.377933    1.199644
  H     -2.826142   -1.080227    2.137580
  C     -4.255570   -2.377415   -1.199373
  H     -2.827174   -1.079273   -2.137419
  C     -4.770098   -2.849713    0.000154
  H     -4.655868   -2.734420    2.140552
  H     -4.656869   -2.733501   -2.140246
  H     -5.572683   -3.576506    0.000186
  O     -0.553760   -2.634204   -0.000452
  O      1.505065   -1.916156   -0.000202
  C      3.183260    1.320075   -0.000127
  C      3.769401   -1.384668   -0.000222
  C      4.801845   -0.453589   -0.000230
  C      4.501326    0.912243   -0.000184
  H      5.289527    1.650756   -0.000190
  H      2.977513    2.382107   -0.000087
  H      3.985450   -2.444229   -0.000266
  O      6.052504   -0.956904   -0.000284
  C      7.134922   -0.037350   -0.000353
  H      7.123576    0.594734    0.890291
  H      8.040050   -0.638180   -0.000426
  H      7.123444    0.594755   -0.890980

 Total Charge           Charge          ....    0
 Multiplicity           Mult            ....    1
 Number of Electrons    NEL             ....  184
 Basis Dimension        Dim             ....  933

ORBITAL ENERGIES
----------------

  NO   OCC          E(Eh)            E(eV)
   0   2.0000     -19.863547      -540.5146
   1   2.0000     -19.830582      -539.6176
   2   2.0000     -19.787181      -538.4366
   3   2.0000     -10.842968      -295.0522
   4   2.0000     -10.770056      -293.0681
   5   2.0000     -10.763535      -292.8907
   6   2.0000     -10.728709      -291.9430
   7   2.0000     -10.725064      -291.8438
   8   2.0000     -10.721700      -291.7523
   9   2.0000     -10.718807      -291.6736
  10   2.0000     -10.710799      -291.4557
  11   2.0000     -10.707728      -291.3721
  12   2.0000     -10.702643      -291.2337
  13   2.0000     -10.701808      -291.2110
  14   2.0000     -10.700576      -291.1775
  15   2.0000     -10.694463      -291.0111
  16   2.0000     -10.693563      -290.9866
  17   2.0000     -10.692463      -290.9567
  18   2.0000     -10.690937      -290.9152
  19   2.0000     -10.689816      -290.8847
  20   2.0000     -10.686739      -290.8010
  21   2.0000     -10.686467      -290.7935
  22   2.0000     -10.685650      -290.7713
  23   2.0000     -10.685512      -290.7676
  24   2.0000     -10.684468      -290.7392
  25   2.0000     -10.684394      -290.7371
  26   2.0000     -10.683523      -290.7135
  27   2.0000      -1.357181       -36.9308
  28   2.0000      -1.299739       -35.3677
  29   2.0000      -1.261379       -34.3239
  30   2.0000      -1.110892       -30.2289
  31   2.0000      -1.079269       -29.3684
  32   2.0000      -1.068993       -29.0888
  33   2.0000      -1.047180       -28.4952
  34   2.0000      -1.004472       -27.3331
  35   2.0000      -0.976548       -26.5732
  36   2.0000      -0.957912       -26.0661
  37   2.0000      -0.950362       -25.8607
  38   2.0000      -0.942224       -25.6392
  39   2.0000      -0.939122       -25.5548
  40   2.0000      -0.912664       -24.8348
  41   2.0000      -0.879381       -23.9292
  42   2.0000      -0.850248       -23.1364
  43   2.0000      -0.818169       -22.2635
  44   2.0000      -0.813409       -22.1340
  45   2.0000      -0.789479       -21.4828
  46   2.0000      -0.780008       -21.2251
  47   2.0000      -0.773368       -21.0444
  48   2.0000      -0.738923       -20.1071
  49   2.0000      -0.727094       -19.7852
  50   2.0000      -0.716876       -19.5072
  51   2.0000      -0.683402       -18.5963
  52   2.0000      -0.681360       -18.5407
  53   2.0000      -0.662436       -18.0258
  54   2.0000      -0.650354       -17.6970
  55   2.0000      -0.642517       -17.4838
  56   2.0000      -0.637704       -17.3528
  57   2.0000      -0.621945       -16.9240
  58   2.0000      -0.618961       -16.8428
  59   2.0000      -0.609744       -16.5920
  60   2.0000      -0.607705       -16.5365
  61   2.0000      -0.600124       -16.3302
  62   2.0000      -0.599356       -16.3093
  63   2.0000      -0.580386       -15.7931
  64   2.0000      -0.577754       -15.7215
  65   2.0000      -0.570346       -15.5199
  66   2.0000      -0.558688       -15.2027
  67   2.0000      -0.555633       -15.1195
  68   2.0000      -0.555406       -15.1134
  69   2.0000      -0.541731       -14.7413
  70   2.0000      -0.539561       -14.6822
  71   2.0000      -0.531897       -14.4737
  72   2.0000      -0.531231       -14.4555
  73   2.0000      -0.513282       -13.9671
  74   2.0000      -0.504194       -13.7198
  75   2.0000      -0.496812       -13.5189
  76   2.0000      -0.491093       -13.3633
  77   2.0000      -0.482768       -13.1368
  78   2.0000      -0.478938       -13.0326
  79   2.0000      -0.478433       -13.0188
  80   2.0000      -0.468631       -12.7521
  81   2.0000      -0.463293       -12.6068
  82   2.0000      -0.452511       -12.3134
  83   2.0000      -0.437132       -11.8950
  84   2.0000      -0.431600       -11.7444
  85   2.0000      -0.402454       -10.9513
  86   2.0000      -0.365164        -9.9366
  87   2.0000      -0.351122        -9.5545
  88   2.0000      -0.346572        -9.4307
  89   2.0000      -0.339421        -9.2361
  90   2.0000      -0.328874        -8.9491
  91   2.0000      -0.288077        -7.8390
  92   0.0000       0.015228         0.4144
  93   0.0000       0.033493         0.9114
  94   0.0000       0.079022         2.1503
  95   0.0000       0.086283         2.3479
  96   0.0000       0.090160         2.4534

MULLIKEN ATOMIC CHARGES
-----------------------
   0 C :   -0.141704
   1 C :   -0.263331
   2 C :    0.109070
   3 C :    0.069636
   4 C :   -0.246691
   5 C :   -0.196062
   6 C :   -0.354523
   7 C :    0.255285
   8 C :   -0.137763
   9 C :    0.150121
  10 C :    0.044675
  11 C :    0.253396
  12 C :    0.386332
  13 H :    0.179291
  14 H :    0.184361
  15 H :    0.180076
  16 H :    0.201066
  17 H :    0.182187
  18 C :    0.012574
  19 C :   -0.225027
  20 C :   -0.225001
  21 C :   -0.206794
  22 H :    0.177456
  23 C :   -0.206657
  24 H :    0.177442
  25 C :   -0.158727
  26 H :    0.176503
  27 H :    0.176471
  28 H :    0.178793
  29 O :   -0.379513
  30 O :   -0.241972
  31 C :   -0.245271
  32 C :   -0.402535
  33 C :    0.372864
  34 C :   -0.306973
  35 H :    0.189652
  36 H :    0.188982
  37 H :    0.174968
  38 O :   -0.308820
  39 C :   -0.257313
  40 H :    0.156873
  41 H :    0.169717
  42 H :    0.156884
Sum of atomic charges:    0.0000000

LOEWDIN ATOMIC CHARGES
----------------------
   0 C :   -0.130789
   1 C :   -0.103609
   2 C :   -0.086321
   3 C :   -0.057975
   4 C :   -0.092319
   5 C :   -0.143744
   6 C :   -0.058072
   7 C :    0.011112
   8 C :   -0.053929
   9 C :   -0.063276
  10 C :   -0.107392
  11 C :   -0.179325
  12 C :   -0.359484
  13 H :    0.166927
  14 H :    0.158327
  15 H :    0.161568
  16 H :    0.166214
  17 H :    0.157138
  18 C :   -0.103647
  19 C :   -0.105716
  20 C :   -0.105722
  21 C :   -0.148946
  22 H :    0.160062
  23 C :   -0.148943
  24 H :    0.160063
  25 C :   -0.153605
  26 H :    0.154798
  27 H :    0.154797
  28 H :    0.153526
  29 O :    0.087245
  30 O :    0.325590
  31 C :   -0.078757
  32 C :   -0.100009
  33 C :   -0.241989
  34 C :   -0.146703
  35 H :    0.163375
  36 H :    0.165062
  37 H :    0.165060
  38 O :    0.215083
  39 C :   -0.308347
  40 H :    0.116285
  41 H :    0.120098
  42 H :    0.116290

  Mayer bond orders larger than 0.100000
B(  0-C ,  1-C ) :   1.5755 B(  0-C ,  5-C ) :   1.2253 B(  0-C , 14-H ) :   0.9729
B(  1-C ,  2-C ) :   1.2068 B(  1-C , 15-H ) :   0.9730 B(  2-C ,  3-C ) :   1.2829
B(  2-C ,  6-C ) :   1.2925 B(  3-C ,  4-C ) :   1.1978 B(  3-C ,  7-C ) :   1.1906
B(  4-C ,  5-C ) :   1.6177 B(  4-C , 16-H ) :   0.9470 B(  5-C , 17-H ) :   0.9752
B(  6-C ,  9-C ) :   1.5364 B(  6-C , 13-H ) :   0.9302 B(  7-C ,  8-C ) :   1.3992
B(  7-C , 18-C ) :   0.7653 B(  8-C ,  9-C ) :   1.2418 B(  8-C , 12-C ) :   0.9900
B(  9-C , 10-C ) :   0.9857 B( 10-C , 11-C ) :   1.3498 B( 10-C , 31-C ) :   1.3334
B( 11-C , 30-O ) :   0.9956 B( 11-C , 32-C ) :   1.4361 B( 12-C , 29-O ) :   2.1000
B( 12-C , 30-O ) :   1.1750 B( 18-C , 19-C ) :   1.3835 B( 18-C , 20-C ) :   1.3836
B( 19-C , 21-C ) :   1.4420 B( 19-C , 22-H ) :   0.9773 B( 20-C , 23-C ) :   1.4423
B( 20-C , 24-H ) :   0.9774 B( 21-C , 25-C ) :   1.3967 B( 21-C , 26-H ) :   0.9761
B( 23-C , 25-C ) :   1.3967 B( 23-C , 27-H ) :   0.9762 B( 25-C , 28-H ) :   0.9716
B( 31-C , 34-C ) :   1.4883 B( 31-C , 36-H ) :   0.9282 B( 32-C , 33-C ) :   1.3603
B( 32-C , 37-H ) :   0.9791 B( 33-C , 34-C ) :   1.2849 B( 33-C , 38-O ) :   1.1489
B( 34-C , 35-H ) :   0.9610 B( 38-O , 39-C ) :   0.8822 B( 39-C , 40-H ) :   0.9700
B( 39-C , 41-H ) :   0.9719 B( 39-C , 42-H ) :   0.9701

MP2 TOTAL ENERGY:    -1148.124273275 Eh

-----------------------------------------------------------------------------
         ABSORPTION SPECTRUM VIA TRANSITION ELECTRIC DIPOLE MOMENTS
-----------------------------------------------------------------------------
State   Energy    Wavelength  fosc         T2        TX        TY        TZ
        (cm-1)      (nm)                 (au**2)    (au)      (au)      (au)
-----------------------------------------------------------------------------
   1   30480.1    328.1   0.085588366   0.92443   0.49518   0.82415   0.00001
   2   33161.0    301.6   0.349707082   3.47178  -1.74833   0.64431   0.00011
   3   37645.2    265.6   1.036947329   9.06823  -2.82262   1.04931   0.00030
   4   38232.8    261.6   0.000034747   0.00030  -0.00001   0.00005  -0.01730
   5   39692.6    251.9   0.319747424   2.65200   1.11313  -1.18867  -0.00018
   6   42121.5    237.4   0.499431492   3.90344  -0.62484  -1.87430  -0.00012
   7   42762.6    233.8   0.000949198   0.00731  -0.00027  -0.00035  -0.08548
   8   46010.0    217.3   0.488987588   3.49882  -1.37810   1.26478   0.00019
   9   48959.2    204.3   0.027814811   0.18703  -0.12751   0.41325  -0.00005
  10   46016.9    217.3   0.000982108   0.00703   0.00075  -0.00141   0.08381
  11   46940.0    213.0   0.155909159   1.09346   0.44596  -0.94583  -0.00017
  12   47917.6    208.7   0.158982154   1.09227  -1.04115  -0.09093  -0.00004
  13   47804.9    209.2   0.027054450   0.18631  -0.32485   0.28423   0.00059
  14   49594.3    201.6   0.411757384   2.73328  -0.60560  -1.53836  -0.00003
  15   49191.4    203.3   0.365083089   2.44331   1.35125   0.78577  -0.00020
  16   51304.6    194.9   0.438725702   2.81522   1.40106   0.92317   0.00058
  17   50560.3    197.8   0.022909819   0.14917  -0.28347   0.26231   0.00294
  18   52396.7    190.9   0.389037320   2.44435  -0.00057   0.00096  -1.56344
  19   53049.9    188.5   0.111622992   0.69270  -0.37879   0.74109  -0.00079
  20   52566.7    190.2   0.003765039   0.02358   0.00074  -0.00019  -0.15355
  21   54302.8    184.2   0.297203338   1.80180   1.12614   0.73049   0.00043
  22   53026.9    188.6   0.167676681   1.04100  -0.00040  -0.00025   1.02030
  23   54709.1    182.8   0.130591881   0.78584   0.86385   0.19899  -0.00032
  24   54808.0    182.5   0.005050870   0.03034   0.00015  -0.00013  -0.17418
  25   54484.5    183.5   0.031200477   0.18852  -0.33763   0.27300  -0.00045
  26   58767.3    170.2   0.000144652   0.00081  -0.00026   0.00011  -0.02846
  27   56812.8    176.0   0.213429788   1.23676   1.07378   0.28939   0.00014
  28   57233.9    174.7   0.042092538   0.24212  -0.35634  -0.33931  -0.00322
  29   60887.8    164.2   0.004669348   0.02525   0.00742   0.00708  -0.15856
  30   58213.8    171.8   0.000508381   0.00288   0.00012   0.00005   0.05362

FINAL SINGLE POINT ENERGY     -1146.680380691103

DIPOLE MOMENT
-------------
                                X             Y             Z
Electronic contribution:     -1.25815      -4.56349      -0.00077
Nuclear contribution   :      2.30387       7.71586       0.00102
                        -----------------------------------------
Total Dipole Moment    :      1.04573       3.15237       0.00025
                        -----------------------------------------
Magnitude (a.u.)       :      3.32129
Magnitude (Debye)      :      8.44206

Rotational constants in cm-1:     0.011445     0.004004     0.003062
Rotational constants in MHz :   343.117137   120.023996    91.800824

                             ****ORCA TERMINATED NORMALLY****
TOTAL RUN TIME: 0 days 1 hours 24 minutes 4 seconds 818 msec
