 Gaussian 09, Revision E.01,

 ----------------------------------------------------------------------
 #p m06l/def2TZVP opt freq=noraman nosymm int=ultrafine scrf=(SMD,solve
 nt=Acetonitrile)
 ----------------------------------------------------------------------

 -----
 Title
 -----
 Symbolic Z-matrix:
 Charge =  0 Multiplicity = 1

 SCF Done:  E(RM06L) =  -1150.17483334     A.U. after   15 cycles
 SCF Done:  E(RM06L) =  -1150.17822547     A.U. after   13 cycles
 SCF Done:  E(RM06L) =  -1150.17833638     A.U. after   11 cycles
 SCF Done:  E(RM06L) =  -1150.17836896     A.U. after   10 cycles
 SCF Done:  E(RM06L) =  -1150.17836940     A.U. after    9 cycles
 SCF Done:  E(RM06L) =  -1150.17837030     A.U. after    8 cycles
 SCF Done:  E(RM06L) =  -1150.17837161     A.U. after    8 cycles
 Optimization completed.
    -- Stationary point found.
 Normal termination of Gaussian 09 at Wed Feb 17 01:01:31 2021.

 -------------------------------------------------------------------
 #P Geom=AllCheck Guess=TCheck SCRF=Check GenChk RM06L/def2TZVP Freq
 -------------------------------------------------------------------

 Structure from the checkpoint file:  "cp.chk"
 -----
 Title
 -----
 Charge =  0 Multiplicity = 1

 SCF Done:  E(RM06L) =  -1150.17837161     A.U. after    1 cycles

  Exact polarizability: 664.269  35.928 506.088  -0.015  -0.012 271.212
 Approx polarizability: 797.401  49.876 664.869  -0.014  -0.015 328.808

                      1                      2                      3
                      A                      A                      A
 Frequencies --     24.1871                45.3446                51.2643
 Red. masses --      5.3086                 4.0953                 4.9238
 Frc consts  --      0.0018                 0.0050                 0.0076
 IR Inten    --      2.4418                 0.9183                 0.1407

                      4                      5                      6
                      A                      A                      A
 Frequencies --     59.3287                66.9631                85.7186
 Red. masses --      5.3407                 4.5012                 3.9887
 Frc consts  --      0.0111                 0.0119                 0.0173
 IR Inten    --      0.6816                 0.0004                 0.1278

                      7                      8                      9
                      A                      A                      A
 Frequencies --    106.2048               123.2590               126.2871
 Red. masses --      5.6380                 4.9338                 5.3051
 Frc consts  --      0.0375                 0.0442                 0.0498
 IR Inten    --      0.6978                 0.8262                 3.5052

                     10                     11                     12
                      A                      A                      A
 Frequencies --    199.1549               203.0854               235.1671
 Red. masses --      4.0037                 5.2320                 1.9127
 Frc consts  --      0.0936                 0.1271                 0.0623
 IR Inten    --      0.8087                 0.1693                 0.6673

                     13                     14                     15
                      A                      A                      A
 Frequencies --    248.4229               260.7341               268.1335
 Red. masses --      5.0965                 6.1531                 5.0287
 Frc consts  --      0.1853                 0.2465                 0.2130
 IR Inten    --      1.5951                 0.3260                 0.5378

                     16                     17                     18
                      A                      A                      A
 Frequencies --    272.1222               304.6973               325.5577
 Red. masses --      1.8861                 6.9891                 4.2168
 Frc consts  --      0.0823                 0.3823                 0.2633
 IR Inten    --      0.0326                 7.9618                 0.2170

                     19                     20                     21
                      A                      A                      A
 Frequencies --    327.9333               372.8427               375.7036
 Red. masses --      5.5746                 5.5700                 5.7272
 Frc consts  --      0.3532                 0.4562                 0.4763
 IR Inten    --     12.6859                 3.9665                 0.8663

                     22                     23                     24
                      A                      A                      A
 Frequencies --    411.5376               442.1139               455.9511
 Red. masses --      2.8592                 7.3061                 2.9925
 Frc consts  --      0.2853                 0.8414                 0.3665
 IR Inten    --      0.1165                 7.5154                 1.5054

                     25                     26                     27
                      A                      A                      A
 Frequencies --    473.1499               485.4339               506.8600
 Red. masses --      3.2052                 6.8238                 4.9615
 Frc consts  --      0.4228                 0.9474                 0.7510
 IR Inten    --     19.0834                 1.6931                10.0166

                     28                     29                     30
                      A                      A                      A
 Frequencies --    538.0924               551.1932               589.5731
 Red. masses --      3.4266                 6.1981                 4.2402
 Frc consts  --      0.5846                 1.1095                 0.8684
 IR Inten    --      6.1390                11.7565                80.2013

                     31                     32                     33
                      A                      A                      A
 Frequencies --    611.8616               622.2610               635.3567
 Red. masses --      7.0886                 5.6726                 6.7277
 Frc consts  --      1.5636                 1.2941                 1.6001
 IR Inten    --     35.2294                 3.0728                 4.1305

                     34                     35                     36
                      A                      A                      A
 Frequencies --    636.7580               648.8958               662.7023
 Red. masses --      5.6266                 6.7250                 3.2807
 Frc consts  --      1.3441                 1.6684                 0.8489
 IR Inten    --     11.5794                 4.1859                 0.6645

                     37                     38                     39
                      A                      A                      A
 Frequencies --    683.7357               689.9872               717.4630
 Red. masses --      5.6919                 4.9132                 6.4253
 Frc consts  --      1.5678                 1.3781                 1.9487
 IR Inten    --      0.5381                 1.1326                 0.1931

                     40                     41                     42
                      A                      A                      A
 Frequencies --    720.5240               748.8107               766.2131
 Red. masses --      1.5072                 2.5856                 3.0954
 Frc consts  --      0.4610                 0.8542                 1.0707
 IR Inten    --     82.5655                 1.8292                41.3270

                     43                     44                     45
                      A                      A                      A
 Frequencies --    772.1283               793.1360               808.2626
 Red. masses --      1.5312                 3.7421                 6.7670
 Frc consts  --      0.5379                 1.3869                 2.6046
 IR Inten    --     55.3810                48.9952                36.6736

                     46                     47                     48
                      A                      A                      A
 Frequencies --    823.3095               823.6577               847.0742
 Red. masses --      1.7566                 4.4702                 3.2256
 Frc consts  --      0.7015                 1.7868                 1.3637
 IR Inten    --     49.6089                 9.4813                 9.2277

                     49                     50                     51
                      A                      A                      A
 Frequencies --    865.0431               870.2031               872.9400
 Red. masses --      1.2548                 1.6220                 5.2648
 Frc consts  --      0.5532                 0.7237                 2.3638
 IR Inten    --      0.0722                50.2170                 1.2260

                     52                     53                     54
                      A                      A                      A
 Frequencies --    884.1499               915.9862               924.7808
 Red. masses --      1.6261                 3.1182                 1.8605
 Frc consts  --      0.7489                 1.5415                 0.9375
 IR Inten    --      9.2616                15.7902                28.5628

                     55                     56                     57
                      A                      A                      A
 Frequencies --    937.5987               966.6639               982.6719
 Red. masses --      2.0208                 1.3437                 4.9769
 Frc consts  --      1.0467                 0.7398                 2.8316
 IR Inten    --      6.6702                 0.7958                24.9319

                     58                     59                     60
                      A                      A                      A
 Frequencies --    986.1514               993.7268              1004.1317
 Red. masses --      1.3662                 1.3781                 5.5467
 Frc consts  --      0.7828                 0.8018                 3.2951
 IR Inten    --      3.4488                 0.1197                46.7130

                     61                     62                     63
                      A                      A                      A
 Frequencies --   1014.3883              1014.8141              1019.4515
 Red. masses --      1.3143                 1.2925                 6.0486
 Frc consts  --      0.7968                 0.7842                 3.7038
 IR Inten    --      0.1879                 0.6654                 2.2321

                     64                     65                     66
                      A                      A                      A
 Frequencies --   1054.2961              1055.5111              1060.5030
 Red. masses --      2.3300                 2.3212                 2.5846
 Frc consts  --      1.5259                 1.5237                 1.7127
 IR Inten    --      4.6552                50.3255               105.0782

                     67                     68                     69
                      A                      A                      A
 Frequencies --   1100.5176              1108.8924              1147.6140
 Red. masses --      1.5384                 4.9793                 2.1453
 Frc consts  --      1.0978                 3.6074                 1.6647
 IR Inten    --     14.4183               270.5167               435.2845

                     70                     71                     72
                      A                      A                      A
 Frequencies --   1156.5998              1167.7698              1169.9183
 Red. masses --      1.8941                 1.2812                 1.0784
 Frc consts  --      1.4928                 1.0294                 0.8696
 IR Inten    --    123.1050                 1.8602                 0.0050

                     73                     74                     75
                      A                      A                      A
 Frequencies --   1173.5176              1189.7380              1193.2341
 Red. masses --      1.1264                 1.9311                 1.1267
 Frc consts  --      0.9139                 1.6105                 0.9452
 IR Inten    --     79.4090               448.7433                 1.2371

                     76                     77                     78
                      A                      A                      A
 Frequencies --   1206.4890              1213.6020              1228.4490
 Red. masses --      2.0240                 1.5945                 1.7638
 Frc consts  --      1.7358                 1.3837                 1.5683
 IR Inten    --     53.2532               141.2683                37.6055

                     79                     80                     81
                      A                      A                      A
 Frequencies --   1252.7669              1278.8586              1290.9867
 Red. masses --      2.0908                 2.2691                 2.7038
 Frc consts  --      1.9334                 2.1865                 2.6550
 IR Inten    --     20.1778               189.2177                58.7731

                     82                     83                     84
                      A                      A                      A
 Frequencies --   1323.1299              1328.7562              1359.5928
 Red. masses --      2.9579                 1.8488                 3.3442
 Frc consts  --      3.0510                 1.9232                 3.6422
 IR Inten    --    444.4546                 0.0105                34.4983

                     85                     86                     87
                      A                      A                      A
 Frequencies --   1362.1006              1365.7755              1384.6400
 Red. masses --      3.0561                 3.3144                 4.5299
 Frc consts  --      3.3406                 3.6427                 5.1170
 IR Inten    --      0.0258               169.5083                 1.9154

                     88                     89                     90
                      A                      A                      A
 Frequencies --   1421.3723              1427.9248              1448.6578
 Red. masses --      4.8408                 4.1966                 5.3948
 Frc consts  --      5.7622                 5.0415                 6.6705
 IR Inten    --     25.5989                17.8459                 6.7386

                     91                     92                     93
                      A                      A                      A
 Frequencies --   1472.9645              1473.2478              1479.0442
 Red. masses --      1.4742                 2.2549                 1.0404
 Frc consts  --      1.8845                 2.8836                 1.3410
 IR Inten    --     94.9676                 3.0136                12.4470

                     94                     95                     96
                      A                      A                      A
 Frequencies --   1479.9354              1485.9501              1491.5479
 Red. masses --      1.9579                 1.4222                 2.1666
 Frc consts  --      2.5266                 1.8501                 2.8399
 IR Inten    --     20.6861                59.3040                26.1478

                     97                     98                     99
                      A                      A                      A
 Frequencies --   1527.5920              1540.7043              1552.7424
 Red. masses --      2.5103                 3.6369                 3.1644
 Frc consts  --      3.4514                 5.0865                 4.4951
 IR Inten    --     31.6740                 0.5209               170.8352

                    100                    101                    102
                      A                      A                      A
 Frequencies --   1602.8477              1621.4296              1623.7271
 Red. masses --      8.4635                 6.9423                 5.7465
 Frc consts  --     12.8110                10.7534                 8.9264
 IR Inten    --    179.9699                50.1976                 1.5672

                    103                    104                    105
                      A                      A                      A
 Frequencies --   1637.2156              1650.4725              1660.7423
 Red. masses --      6.9285                 5.9371                 6.0915
 Frc consts  --     10.9421                 9.5289                 9.8988
 IR Inten    --    333.7904                16.7445               438.0717

                    106                    107                    108
                      A                      A                      A
 Frequencies --   1669.7390              1780.1354              3031.6168
 Red. masses --      6.7013                12.9234                 1.0330
 Frc consts  --     11.0080                24.1286                 5.5937
 IR Inten    --    237.9921               943.6744               103.0899

                    109                    110                    111
                      A                      A                      A
 Frequencies --   3118.9523              3173.6053              3176.1944
 Red. masses --      1.1075                 1.0853                 1.1034
 Frc consts  --      6.3475                 6.4401                 6.5584
 IR Inten    --     35.2692                 6.2046                17.6928

                    112                    113                    114
                      A                      A                      A
 Frequencies --   3176.6126              3180.4158              3186.2376
 Red. masses --      1.0874                 1.0862                 1.0905
 Frc consts  --      6.4653                 6.4734                 6.5228
 IR Inten    --      3.4487                 1.8334                 6.6406

                    115                    116                    117
                      A                      A                      A
 Frequencies --   3189.7977              3193.3947              3197.2228
 Red. masses --      1.0882                 1.0950                 1.0904
 Frc consts  --      6.5239                 6.5788                 6.5669
 IR Inten    --      6.8424                49.5557                 5.7331

                    118                    119                    120
                      A                      A                      A
 Frequencies --   3199.2959              3204.1916              3206.2401
 Red. masses --      1.0935                 1.0987                 1.0879
 Frc consts  --      6.5944                 6.6459                 6.5890
 IR Inten    --     23.0680                23.8693                10.2653

                    121                    122                    123
                      A                      A                      A
 Frequencies --   3208.5537              3218.4900              3228.6752
 Red. masses --      1.0977                 1.0921                 1.0926
 Frc consts  --      6.6579                 6.6654                 6.7107
 IR Inten    --     35.2138                 2.6272                 5.7148

 - Thermochemistry -
 -------------------
 Temperature   298.150 Kelvin.  Pressure   1.00000 Atm.
 Atom     1 has atomic number  6 and mass  12.00000

 Molecular mass:   352.10994 amu.
 Principal axes and moments of inertia in atomic units:
                           1         2         3
     Eigenvalues --  5255.80830********************
           X            0.99998  -0.00660   0.00005
           Y            0.00660   0.99998   0.00006
           Z           -0.00005  -0.00006   1.00000
 This molecule is an asymmetric top.
 Rotational symmetry number  1.
 Warning -- assumption of classical behavior for rotation
           may cause significant error
 Rotational temperatures (Kelvin)      0.01648     0.00576     0.00441
 Rotational constants (GHZ):           0.34338     0.12011     0.09187
 Zero-point vibrational energy     878726.5 (Joules/Mol)
                                  210.02068 (Kcal/Mol)
 Warning -- explicit consideration of  31 degrees of freedom as
           vibrations may cause significant error
 Vibrational temperatures:     34.80    65.24    73.76    85.36    96.34
          (Kelvin)            123.33   152.80   177.34   181.70   286.54
                              292.19   338.35   357.42   375.14   385.78
                              391.52   438.39   468.40   471.82   536.44
                              540.55   592.11   636.10   656.01   680.76
                              698.43   729.26   774.19   793.04   848.26
                              880.33   895.29   914.14   916.15   933.62
                              953.48   983.74   992.74  1032.27  1036.67
                             1077.37  1102.41  1110.92  1141.14  1162.91
                             1184.56  1185.06  1218.75  1244.60  1252.03
                             1255.96  1272.09  1317.90  1330.55  1348.99
                             1390.81  1413.84  1418.85  1429.75  1444.72
                             1459.48  1460.09  1466.76  1516.90  1518.64
                             1525.83  1583.40  1595.45  1651.16  1664.09
                             1680.16  1683.25  1688.43  1711.77  1716.80
                             1735.87  1746.10  1767.46  1802.45  1839.99
                             1857.44  1903.69  1911.78  1956.15  1959.76
                             1965.04  1992.19  2045.04  2054.46  2084.29
                             2119.26  2119.67  2128.01  2129.29  2137.95
                             2146.00  2197.86  2216.73  2234.05  2306.14
                             2332.87  2336.18  2355.59  2374.66  2389.43
                             2402.38  2561.21  4361.81  4487.47  4566.10
                             4569.83  4570.43  4575.90  4584.28  4589.40
                             4594.58  4600.08  4603.07  4610.11  4613.06
                             4616.39  4630.68  4645.34

 Zero-point correction=                           0.334689 (Hartree/Particle)
 Thermal correction to Energy=                    0.355116
 Thermal correction to Enthalpy=                  0.356060
 Thermal correction to Gibbs Free Energy=         0.284700
 Sum of electronic and zero-point Energies=          -1149.843682
 Sum of electronic and thermal Energies=             -1149.823256
 Sum of electronic and thermal Enthalpies=           -1149.822312
 Sum of electronic and thermal Free Energies=        -1149.893671

                     E (Thermal)             CV                S
                      KCal/Mol        Cal/Mol-Kelvin    Cal/Mol-Kelvin
 Total                  222.838             82.422            150.189
 Electronic               0.000              0.000              0.000
 Translational            0.889              2.981             43.470
 Rotational               0.889              2.981             35.693
 Vibrational            221.061             76.460             71.025
 Vibration     1          0.593              1.985              6.257
 Vibration     2          0.595              1.979              5.011
 Vibration     3          0.596              1.977              4.768
 Vibration     4          0.597              1.974              4.479
 Vibration     5          0.598              1.970              4.241
 Vibration     6          0.601              1.959              3.755
 Vibration     7          0.605              1.944              3.337
 Vibration     8          0.610              1.930              3.049
 Vibration     9          0.611              1.927              3.002
 Vibration    10          0.637              1.841              2.141
 Vibration    11          0.639              1.836              2.105
 Vibration    12          0.655              1.787              1.839
 Vibration    13          0.662              1.765              1.742
 Vibration    14          0.669              1.745              1.657
 Vibration    15          0.673              1.732              1.608
 Vibration    16          0.675              1.725              1.583
 Vibration    17          0.696              1.665              1.391
 Vibration    18          0.710              1.624              1.282
 Vibration    19          0.711              1.620              1.270
 Vibration    20          0.744              1.528              1.068
 Vibration    21          0.747              1.522              1.056
 Vibration    22          0.776              1.445              0.921
 Vibration    23          0.802              1.378              0.820
 Vibration    24          0.814              1.348              0.778
 Vibration    25          0.830              1.310              0.729
 Vibration    26          0.841              1.282              0.696
 Vibration    27          0.862              1.235              0.641
 Vibration    28          0.893              1.166              0.569
 Vibration    29          0.907              1.137              0.542
 Vibration    30          0.947              1.054              0.468
 Vibration    31          0.971              1.007              0.430

 Optimization completed.
    -- Stationary point found.
 Normal termination of Gaussian 09 at Wed Feb 17 04:48:03 2021.
 Gaussian 09:  ES64L-G09RevE.01 30-Nov-2015

 ----------------------------------------------------------------------
 #p m06l chkbasis geom=allcheck Guess=Read int=ultrafine scrf=(SMD,solv
 ent=Acetonitrile) td=(NStates=30)
 ----------------------------------------------------------------------

 Structure from the checkpoint file:  "cp.chk"
 -----
 Title
 -----
 Charge =  0 Multiplicity = 1

                         Standard orientation:
 ---------------------------------------------------------------------
 Center     Atomic      Atomic             Coordinates (Angstroms)
 Number     Number       Type             X           Y           Z
 ---------------------------------------------------------------------
      1          6           0       -2.792938    4.120551    0.000488
      2          6           0       -1.466221    3.792917    0.000345
      3          6           0       -1.052862    2.440175    0.000202
      4          6           0       -2.041683    1.410074    0.000195
      5          6           0       -3.406528    1.789942    0.000358
      6          6           0       -3.771907    3.108324    0.000499
      7          6           0        0.302852    2.093828    0.000089
      8          6           0       -1.629295    0.052465    0.000049
      9          6           0       -0.269381   -0.256318   -0.000074
     10          6           0        0.717098    0.780049   -0.000035
     11          6           0        2.119862    0.412166   -0.000119
     12          6           0        2.461835   -0.941276   -0.000174
     13          6           0        0.157460   -1.660577   -0.000321
     14          1           0        1.028384    2.896593    0.000115
     15          1           0       -3.096461    5.159875    0.000601
     16          1           0       -0.704658    4.563603    0.000346
     17          1           0       -4.168657    1.021832    0.000376
     18          1           0       -4.820474    3.377114    0.000626
     19          6           0       -2.694583   -0.983411    0.000071
     20          6           0       -3.227394   -1.446954    1.199961
     21          6           0       -3.227968   -1.446424   -1.199770
     22          6           0       -4.255007   -2.377933    1.199644
     23          1           0       -2.826142   -1.080227    2.137580
     24          6           0       -4.255570   -2.377415   -1.199373
     25          1           0       -2.827174   -1.079273   -2.137419
     26          6           0       -4.770098   -2.849713    0.000154
     27          1           0       -4.655868   -2.734420    2.140552
     28          1           0       -4.656869   -2.733501   -2.140246
     29          1           0       -5.572683   -3.576506    0.000186
     30          8           0       -0.553760   -2.634204   -0.000452
     31          8           0        1.505065   -1.916156   -0.000202
     32          6           0        3.183260    1.320075   -0.000127
     33          6           0        3.769401   -1.384668   -0.000222
     34          6           0        4.801845   -0.453589   -0.000230
     35          6           0        4.501326    0.912243   -0.000184
     36          1           0        5.289527    1.650756   -0.000190
     37          1           0        2.977513    2.382107   -0.000087
     38          1           0        3.985450   -2.444229   -0.000266
     39          8           0        6.052504   -0.956904   -0.000284
     40          6           0        7.134922   -0.037350   -0.000353
     41          1           0        7.123576    0.594734    0.890291
     42          1           0        8.040050   -0.638180   -0.000426
     43          1           0        7.123444    0.594755   -0.890980
 ---------------------------------------------------------------------

 SCF Done:  E(RM06L) =  -1150.17837394     A.U. after    4 cycles

 Excitation energies and oscillator strengths:

 Excited State   1:      Singlet-A      2.8607 eV  433.40 nm  f=0.0340  <S**2>=0.000
      91 -> 93         0.10764
      92 -> 93         0.68526
 This state for optimization and/or second-order correction.
 Total Energy, E(TD-HF/TD-KS) =  -1150.07324446
 Copying the excited state density for this state as the 1-particle RhoCI density.

 Excited State   2:      Singlet-A      3.5001 eV  354.23 nm  f=0.0000  <S**2>=0.000
      90 -> 93         0.70698

 Excited State   3:      Singlet-A      3.5699 eV  347.30 nm  f=0.2527  <S**2>=0.000
      89 -> 93         0.29362
      91 -> 93         0.23640
      92 -> 93        -0.10872
      92 -> 94         0.57433

 Excited State   4:      Singlet-A      3.7391 eV  331.59 nm  f=0.2769  <S**2>=0.000
      89 -> 93         0.60258
      92 -> 94        -0.32552

 Excited State   5:      Singlet-A      3.8352 eV  323.28 nm  f=0.1936  <S**2>=0.000
      87 -> 93         0.16820
      88 -> 93        -0.22469
      89 -> 93        -0.19647
      91 -> 93         0.58135
      92 -> 94        -0.12797

 Excited State   6:      Singlet-A      3.9352 eV  315.07 nm  f=0.0326  <S**2>=0.000
      88 -> 93         0.66731
      91 -> 93         0.18808

 Excited State   7:      Singlet-A      4.0785 eV  303.99 nm  f=0.0004  <S**2>=0.000
      90 -> 94         0.70656

 Excited State   8:      Singlet-A      4.1672 eV  297.53 nm  f=0.1506  <S**2>=0.000
      87 -> 93         0.25733
      91 -> 94         0.56527
      92 -> 95         0.26320

 Excited State   9:      Singlet-A      4.2174 eV  293.99 nm  f=0.0602  <S**2>=0.000
      87 -> 93        -0.24629
      89 -> 94         0.29367
      91 -> 94        -0.16486
      92 -> 95         0.54755

 Excited State  10:      Singlet-A      4.3124 eV  287.50 nm  f=0.0000  <S**2>=0.000
      92 -> 96         0.70708

 Excited State  11:      Singlet-A      4.3336 eV  286.10 nm  f=0.0174  <S**2>=0.000
      89 -> 94        -0.42725
      91 -> 94        -0.10962
      92 -> 95         0.14488
      92 -> 97         0.51290

 Excited State  12:      Singlet-A      4.4945 eV  275.86 nm  f=0.0039  <S**2>=0.000
      88 -> 94         0.63787
      89 -> 94        -0.17468
      92 -> 97        -0.20156

 Excited State  13:      Singlet-A      4.5434 eV  272.89 nm  f=0.0173  <S**2>=0.000
      87 -> 93         0.26250
      88 -> 94         0.28236
      89 -> 94         0.39981
      91 -> 94        -0.10805
      91 -> 95         0.15222
      92 -> 95        -0.17144
      92 -> 97         0.28850

 Excited State  14:      Singlet-A      4.5532 eV  272.30 nm  f=0.0000  <S**2>=0.000
      86 -> 93         0.70648

 Excited State  15:      Singlet-A      4.7244 eV  262.44 nm  f=0.2664  <S**2>=0.000
      85 -> 93         0.13704
      87 -> 93        -0.14026
      91 -> 93         0.11416
      92 -> 97         0.18037
      92 -> 98         0.61319

 Excited State  16:      Singlet-A      4.8230 eV  257.07 nm  f=0.6334  <S**2>=0.000
      85 -> 93         0.22524
      87 -> 93         0.40045
      91 -> 94        -0.27142
      92 -> 95         0.18021
      92 -> 97        -0.21250
      92 -> 98         0.14738
      92 -> 99        -0.18069

 Excited State  17:      Singlet-A      5.0012 eV  247.91 nm  f=0.0141  <S**2>=0.000
      85 -> 93        -0.29279
      87 -> 94         0.36080
      91 -> 95         0.45777
      91 -> 98         0.10452
      92 -> 99         0.16198

 Excited State  18:      Singlet-A      5.0242 eV  246.77 nm  f=0.0019  <S**2>=0.000
      88 -> 96         0.11653
      90 -> 95         0.66480
      90 -> 97        -0.19041

 Excited State  19:      Singlet-A      5.0637 eV  244.85 nm  f=0.0640  <S**2>=0.000
      85 -> 93         0.10731
      87 -> 93        -0.12355
      87 -> 94        -0.41940
      91 -> 95         0.43350
      91 -> 97         0.23134
      91 -> 98        -0.13423
      92 -> 99        -0.10927

 Excited State  20:      Singlet-A      5.1179 eV  242.25 nm  f=0.0000  <S**2>=0.000
      86 -> 94         0.67332
      91 -> 96         0.21363

 Excited State  21:      Singlet-A      5.1258 eV  241.88 nm  f=0.0000  <S**2>=0.000
      86 -> 94        -0.21187
      90 -> 97        -0.12091
      91 -> 96         0.66193

 Excited State  22:      Singlet-A      5.1378 eV  241.32 nm  f=0.1333  <S**2>=0.000
      85 -> 93         0.48936
      87 -> 94         0.23923
      91 -> 95         0.11926
      91 -> 98        -0.20970
      92 -> 98        -0.14578
      92 -> 99         0.26648

 Excited State  23:      Singlet-A      5.2106 eV  237.95 nm  f=0.0030  <S**2>=0.000
      87 -> 94         0.14518
      89 -> 95         0.21569
      89 -> 97         0.15704
      91 -> 95        -0.12822
      91 -> 97         0.59719

 Excited State  24:      Singlet-A      5.2526 eV  236.04 nm  f=0.0020  <S**2>=0.000
      88 -> 96         0.29951
      89 -> 96        -0.24474
      90 -> 95         0.10402
      90 -> 97         0.56961

 Excited State  25:      Singlet-A      5.2786 eV  234.88 nm  f=0.0579  <S**2>=0.000
      87 -> 94        -0.11134
      89 -> 95         0.47646
      89 -> 97         0.39995
      91 -> 95         0.10106
      91 -> 97        -0.19015
      92 -> 99         0.12124

 Excited State  26:      Singlet-A      5.3139 eV  233.32 nm  f=0.0008  <S**2>=0.000
      88 -> 96         0.16739
      89 -> 96         0.65896
      90 -> 97         0.17151

 Excited State  27:      Singlet-A      5.3806 eV  230.43 nm  f=0.0072  <S**2>=0.000
      84 -> 93         0.59706
      85 -> 94        -0.18213
      89 -> 97         0.14409
      91 -> 99         0.10012
      92 -> 99        -0.18350

 Excited State  28:      Singlet-A      5.4192 eV  228.79 nm  f=0.0000  <S**2>=0.000
      88 -> 96        -0.12970
      90 -> 98         0.68913

 Excited State  29:      Singlet-A      5.4620 eV  226.99 nm  f=0.0067  <S**2>=0.000
      88 -> 95         0.59502
      88 -> 97        -0.31914
      89 -> 97         0.12843
      90 -> 96        -0.10149

 Excited State  30:      Singlet-A      5.4780 eV  226.33 nm  f=0.0002  <S**2>=0.000
      83 -> 93         0.70022

 The electronic state is 1-A.
 Alpha  occ. eigenvalues --  -19.02454 -19.00282 -18.94757 -10.17789 -10.11998
 Alpha  occ. eigenvalues --  -10.11606 -10.09230 -10.07929 -10.07508 -10.07430
 Alpha  occ. eigenvalues --  -10.06674 -10.06619 -10.06104 -10.06047 -10.05745
 Alpha  occ. eigenvalues --  -10.05350 -10.05257 -10.05122 -10.05092 -10.05072
 Alpha  occ. eigenvalues --  -10.04738 -10.04703 -10.04653 -10.04647 -10.04535
 Alpha  occ. eigenvalues --  -10.04535 -10.04463  -1.08842  -1.04608  -1.00103
 Alpha  occ. eigenvalues --   -0.85721  -0.83086  -0.82143  -0.80214  -0.76533
 Alpha  occ. eigenvalues --   -0.74182  -0.72599  -0.71993  -0.71251  -0.70972
 Alpha  occ. eigenvalues --   -0.68739  -0.65991  -0.63362  -0.60668  -0.60102
 Alpha  occ. eigenvalues --   -0.58102  -0.57270  -0.56783  -0.53772  -0.52892
 Alpha  occ. eigenvalues --   -0.51827  -0.48987  -0.48696  -0.46964  -0.46371
 Alpha  occ. eigenvalues --   -0.45308  -0.44195  -0.43178  -0.42897  -0.42561
 Alpha  occ. eigenvalues --   -0.42020  -0.41780  -0.41323  -0.39953  -0.39861
 Alpha  occ. eigenvalues --   -0.39087  -0.38295  -0.38009  -0.37885  -0.36980
 Alpha  occ. eigenvalues --   -0.36658  -0.36247  -0.35747  -0.34337  -0.33739
 Alpha  occ. eigenvalues --   -0.32797  -0.32681  -0.32201  -0.31846  -0.30870
 Alpha  occ. eigenvalues --   -0.30725  -0.29703  -0.29112  -0.28402  -0.26821
 Alpha  occ. eigenvalues --   -0.25655  -0.24493  -0.23394  -0.22422  -0.21845
 Alpha  occ. eigenvalues --   -0.21769  -0.18779
 Alpha virt. eigenvalues --   -0.08989  -0.06868  -0.03506  -0.02926  -0.02785
 Alpha virt. eigenvalues --   -0.01919   0.00294   0.01888   0.05968   0.06001
 Alpha virt. eigenvalues --    0.06587   0.07117   0.08128   0.08257   0.08939

 Mulliken charges:
               1
     1  C   -0.034721
     2  C   -0.078515
     3  C   -0.042960
     4  C   -0.129640
     5  C   -0.087512
     6  C   -0.132182
     7  C   -0.119975
     8  C    0.587778
     9  C   -0.279871
    10  C    0.036152
    11  C    0.010206
    12  C    0.401312
    13  C    0.798063
    14  H    0.113958
    15  H    0.090941
    16  H    0.075378
    17  H    0.137768
    18  H    0.088774
    19  C    0.107444
    20  C   -0.303489
    21  C   -0.303480
    22  C   -0.081786
    23  H    0.095966
    24  C   -0.081805
    25  H    0.095973
    26  C   -0.099041
    27  H    0.088977
    28  H    0.088976
    29  H    0.093013
    30  O   -0.593729
    31  O   -0.475078
    32  C   -0.083728
    33  C   -0.479956
    34  C    0.736177
    35  C   -0.366850
    36  H    0.105782
    37  H    0.124496
    38  H    0.097929
    39  O   -0.468567
    40  C    0.013057
    41  H    0.081961
    42  H    0.090842
    43  H    0.081962
 Sum of Mulliken charges =  -0.00000

 Dipole moment (field-independent basis, Debye):
    X=              3.2861    Y=              6.9465    Z=              0.0005  Tot=              7.6846
 Quadrupole moment (field-independent basis, Debye-Ang):
   XX=           -110.8960   YY=           -150.7983   ZZ=           -151.7480
   XY=              7.2798   XZ=             -0.0018   YZ=             -0.0026

 Normal termination of Gaussian 09 at Wed Feb 17 07:43:11 2021.
