                         Program Version 5.0.2 -  RELEASE  -
|  1> %maxcore 20000
|  2> %pal
|  3>  nprocs= 4
|  4> end
|  5> ! RI-B2GP-PLYP   def2-TZVP def2/J def2-TZVP/C RIJCOSX CPCM TightSCF
|  6> %TDDFT
|  7>    NROOTS   30
|  8>    dcorr 4
|  9>    TDA      FALSE
| 10> END
| 11>
| 12> %CPCM
| 13>    SMD          TRUE
| 14>    SMDsolvent   "ACETONITRILE"
| 15> END
| 16>
| 17>
| 18> * xyz 0 1
| 19> C                  -2.79293800    4.12055100    0.00048800
| 20> C                  -1.46622100    3.79291700    0.00034500
| 21> C                  -1.05286200    2.44017500    0.00020200
| 22> C                  -2.04168300    1.41007400    0.00019500
| 23> C                  -3.40652800    1.78994200    0.00035800
| 24> C                  -3.77190700    3.10832400    0.00049900
| 25> C                   0.30285200    2.09382800    0.00008900
| 26> C                  -1.62929500    0.05246500    0.00004900
| 27> C                  -0.26938100   -0.25631800   -0.00007400
| 28> C                   0.71709800    0.78004900   -0.00003500
| 29> C                   2.11986200    0.41216600   -0.00011900
| 30> C                   2.46183500   -0.94127600   -0.00017400
| 31> C                   0.15746000   -1.66057700   -0.00032100
| 32> H                   1.02838400    2.89659300    0.00011500
| 33> H                  -3.09646100    5.15987500    0.00060100
| 34> H                  -0.70465800    4.56360300    0.00034600
| 35> H                  -4.16865700    1.02183200    0.00037600
| 36> H                  -4.82047400    3.37711400    0.00062600
| 37> C                  -2.69458300   -0.98341100    0.00007100
| 38> C                  -3.22739400   -1.44695400    1.19996100
| 39> C                  -3.22796800   -1.44642400   -1.19977000
| 40> C                  -4.25500700   -2.37793300    1.19964400
| 41> H                  -2.82614200   -1.08022700    2.13758000
| 42> C                  -4.25557000   -2.37741500   -1.19937300
| 43> H                  -2.82717400   -1.07927300   -2.13741900
| 44> C                  -4.77009800   -2.84971300    0.00015400
| 45> H                  -4.65586800   -2.73442000    2.14055200
| 46> H                  -4.65686900   -2.73350100   -2.14024600
| 47> H                  -5.57268300   -3.57650600    0.00018600
| 48> O                  -0.55376000   -2.63420400   -0.00045200
| 49> O                   1.50506500   -1.91615600   -0.00020200
| 50> C                   3.18326000    1.32007500   -0.00012700
| 51> C                   3.76940100   -1.38466800   -0.00022200
| 52> C                   4.80184500   -0.45358900   -0.00023000
| 53> C                   4.50132600    0.91224300   -0.00018400
| 54> H                   5.28952700    1.65075600   -0.00019000
| 55> H                   2.97751300    2.38210700   -0.00008700
| 56> H                   3.98545000   -2.44422900   -0.00026600
| 57> O                   6.05250400   -0.95690400   -0.00028400
| 58> C                   7.13492200   -0.03735000   -0.00035300
| 59> H                   7.12357600    0.59473400    0.89029100
| 60> H                   8.04005000   -0.63818000   -0.00042600
| 61> H                   7.12344400    0.59475500   -0.89098000
| 62> *
| 63>
| 64>
| 65>                          ****END OF INPUT****

CARTESIAN COORDINATES (ANGSTROEM)
---------------------------------
  C     -2.792938    4.120551    0.000488
  C     -1.466221    3.792917    0.000345
  C     -1.052862    2.440175    0.000202
  C     -2.041683    1.410074    0.000195
  C     -3.406528    1.789942    0.000358
  C     -3.771907    3.108324    0.000499
  C      0.302852    2.093828    0.000089
  C     -1.629295    0.052465    0.000049
  C     -0.269381   -0.256318   -0.000074
  C      0.717098    0.780049   -0.000035
  C      2.119862    0.412166   -0.000119
  C      2.461835   -0.941276   -0.000174
  C      0.157460   -1.660577   -0.000321
  H      1.028384    2.896593    0.000115
  H     -3.096461    5.159875    0.000601
  H     -0.704658    4.563603    0.000346
  H     -4.168657    1.021832    0.000376
  H     -4.820474    3.377114    0.000626
  C     -2.694583   -0.983411    0.000071
  C     -3.227394   -1.446954    1.199961
  C     -3.227968   -1.446424   -1.199770
  C     -4.255007   -2.377933    1.199644
  H     -2.826142   -1.080227    2.137580
  C     -4.255570   -2.377415   -1.199373
  H     -2.827174   -1.079273   -2.137419
  C     -4.770098   -2.849713    0.000154
  H     -4.655868   -2.734420    2.140552
  H     -4.656869   -2.733501   -2.140246
  H     -5.572683   -3.576506    0.000186
  O     -0.553760   -2.634204   -0.000452
  O      1.505065   -1.916156   -0.000202
  C      3.183260    1.320075   -0.000127
  C      3.769401   -1.384668   -0.000222
  C      4.801845   -0.453589   -0.000230
  C      4.501326    0.912243   -0.000184
  H      5.289527    1.650756   -0.000190
  H      2.977513    2.382107   -0.000087
  H      3.985450   -2.444229   -0.000266
  O      6.052504   -0.956904   -0.000284
  C      7.134922   -0.037350   -0.000353
  H      7.123576    0.594734    0.890291
  H      8.040050   -0.638180   -0.000426
  H      7.123444    0.594755   -0.890980

 Total Charge           Charge          ....    0
 Multiplicity           Mult            ....    1
 Number of Electrons    NEL             ....  184
 Basis Dimension        Dim             ....  933

ORBITAL ENERGIES
----------------

  NO   OCC          E(Eh)            E(eV)
   0   2.0000     -20.005407      -544.3748
   1   2.0000     -19.973196      -543.4983
   2   2.0000     -19.927709      -542.2605
   3   2.0000     -10.930843      -297.4434
   4   2.0000     -10.858096      -295.4638
   5   2.0000     -10.851843      -295.2937
   6   2.0000     -10.816427      -294.3299
   7   2.0000     -10.815405      -294.3021
   8   2.0000     -10.809416      -294.1392
   9   2.0000     -10.806444      -294.0583
  10   2.0000     -10.798783      -293.8498
  11   2.0000     -10.795835      -293.7696
  12   2.0000     -10.790904      -293.6354
  13   2.0000     -10.789980      -293.6103
  14   2.0000     -10.788709      -293.5757
  15   2.0000     -10.783412      -293.4316
  16   2.0000     -10.782288      -293.4010
  17   2.0000     -10.780856      -293.3620
  18   2.0000     -10.779760      -293.3322
  19   2.0000     -10.778660      -293.3023
  20   2.0000     -10.775354      -293.2123
  21   2.0000     -10.775143      -293.2065
  22   2.0000     -10.774463      -293.1880
  23   2.0000     -10.774278      -293.1830
  24   2.0000     -10.773110      -293.1512
  25   2.0000     -10.773021      -293.1488
  26   2.0000     -10.772271      -293.1284
  27   2.0000      -1.329004       -36.1641
  28   2.0000      -1.272017       -34.6133
  29   2.0000      -1.232669       -33.5426
  30   2.0000      -1.073622       -29.2147
  31   2.0000      -1.042045       -28.3555
  32   2.0000      -1.031725       -28.0747
  33   2.0000      -1.009267       -27.4635
  34   2.0000      -0.966191       -26.2914
  35   2.0000      -0.938187       -25.5294
  36   2.0000      -0.919688       -25.0260
  37   2.0000      -0.911781       -24.8108
  38   2.0000      -0.904223       -24.6052
  39   2.0000      -0.901155       -24.5217
  40   2.0000      -0.873853       -23.7788
  41   2.0000      -0.840054       -22.8590
  42   2.0000      -0.810231       -22.0475
  43   2.0000      -0.777213       -21.1491
  44   2.0000      -0.773357       -21.0441
  45   2.0000      -0.748548       -20.3690
  46   2.0000      -0.739549       -20.1241
  47   2.0000      -0.733178       -19.9508
  48   2.0000      -0.697937       -18.9918
  49   2.0000      -0.687205       -18.6998
  50   2.0000      -0.674568       -18.3559
  51   2.0000      -0.640199       -17.4207
  52   2.0000      -0.639157       -17.3924
  53   2.0000      -0.620072       -16.8730
  54   2.0000      -0.608614       -16.5612
  55   2.0000      -0.600829       -16.3494
  56   2.0000      -0.591043       -16.0831
  57   2.0000      -0.580775       -15.8037
  58   2.0000      -0.575706       -15.6658
  59   2.0000      -0.569659       -15.5012
  60   2.0000      -0.566378       -15.4119
  61   2.0000      -0.559343       -15.2205
  62   2.0000      -0.557540       -15.1714
  63   2.0000      -0.539532       -14.6814
  64   2.0000      -0.536971       -14.6117
  65   2.0000      -0.529660       -14.4128
  66   2.0000      -0.518028       -14.0962
  67   2.0000      -0.515188       -14.0190
  68   2.0000      -0.514639       -14.0040
  69   2.0000      -0.501665       -13.6510
  70   2.0000      -0.490900       -13.3581
  71   2.0000      -0.490434       -13.3454
  72   2.0000      -0.484506       -13.1841
  73   2.0000      -0.473683       -12.8896
  74   2.0000      -0.462667       -12.5898
  75   2.0000      -0.450531       -12.2596
  76   2.0000      -0.447496       -12.1770
  77   2.0000      -0.443292       -12.0626
  78   2.0000      -0.439140       -11.9496
  79   2.0000      -0.433499       -11.7961
  80   2.0000      -0.429418       -11.6851
  81   2.0000      -0.424239       -11.5441
  82   2.0000      -0.413439       -11.2503
  83   2.0000      -0.392745       -10.6871
  84   2.0000      -0.390360       -10.6222
  85   2.0000      -0.357907        -9.7391
  86   2.0000      -0.323894        -8.8136
  87   2.0000      -0.308753        -8.4016
  88   2.0000      -0.304838        -8.2951
  89   2.0000      -0.297642        -8.0992
  90   2.0000      -0.289123        -7.8674
  91   2.0000      -0.249919        -6.8007
  92   0.0000      -0.007963        -0.2167
  93   0.0000       0.011045         0.3006
  94   0.0000       0.054395         1.4802
  95   0.0000       0.061328         1.6688
  96   0.0000       0.065132         1.7723

MULLIKEN ATOMIC CHARGES
-----------------------
   0 C :   -0.116232
   1 C :   -0.278531
   2 C :    0.164997
   3 C :    0.068874
   4 C :   -0.256555
   5 C :   -0.175063
   6 C :   -0.425931
   7 C :    0.346917
   8 C :   -0.168497
   9 C :    0.182156
  10 C :    0.081077
  11 C :    0.270370
  12 C :    0.431190
  13 H :    0.162579
  14 H :    0.166893
  15 H :    0.162694
  16 H :    0.179100
  17 H :    0.164506
  18 C :    0.140010
  19 C :   -0.255358
  20 C :   -0.255442
  21 C :   -0.191378
  22 H :    0.158886
  23 C :   -0.191155
  24 H :    0.158867
  25 C :   -0.144430
  26 H :    0.158366
  27 H :    0.158356
  28 H :    0.160615
  29 O :   -0.426822
  30 O :   -0.273424
  31 C :   -0.232645
  32 C :   -0.426112
  33 C :    0.415272
  34 C :   -0.307026
  35 H :    0.170935
  36 H :    0.169414
  37 H :    0.152075
  38 O :   -0.339767
  39 C :   -0.193093
  40 H :    0.139510
  41 H :    0.154285
  42 H :    0.139517
Sum of atomic charges:   -0.0000000

LOEWDIN ATOMIC CHARGES
----------------------
   0 C :   -0.127335
   1 C :   -0.100443
   2 C :   -0.084735
   3 C :   -0.056543
   4 C :   -0.088901
   5 C :   -0.140566
   6 C :   -0.055367
   7 C :    0.013311
   8 C :   -0.052843
   9 C :   -0.062206
  10 C :   -0.105349
  11 C :   -0.173875
  12 C :   -0.348928
  13 H :    0.163178
  14 H :    0.154343
  15 H :    0.157563
  16 H :    0.162494
  17 H :    0.153175
  18 C :   -0.098374
  19 C :   -0.102135
  20 C :   -0.102140
  21 C :   -0.146068
  22 H :    0.155822
  23 C :   -0.146066
  24 H :    0.155822
  25 C :   -0.150668
  26 H :    0.150749
  27 H :    0.150749
  28 H :    0.149532
  29 O :    0.075601
  30 O :    0.316643
  31 C :   -0.076216
  32 C :   -0.096758
  33 C :   -0.235902
  34 C :   -0.143136
  35 H :    0.159620
  36 H :    0.161142
  37 H :    0.160857
  38 O :    0.207354
  39 C :   -0.293395
  40 H :    0.112106
  41 H :    0.115776
  42 H :    0.112110

  Mayer bond orders larger than 0.100000
B(  0-C ,  1-C ) :   1.5583 B(  0-C ,  5-C ) :   1.2241 B(  0-C , 14-H ) :   0.9791
B(  1-C ,  2-C ) :   1.2152 B(  1-C , 15-H ) :   0.9899 B(  2-C ,  3-C ) :   1.2938
B(  2-C ,  6-C ) :   1.2541 B(  3-C ,  4-C ) :   1.2044 B(  3-C ,  7-C ) :   1.2002
B(  4-C ,  5-C ) :   1.6011 B(  4-C , 16-H ) :   0.9637 B(  5-C , 17-H ) :   0.9832
B(  6-C ,  9-C ) :   1.4980 B(  6-C , 13-H ) :   0.9743 B(  7-C ,  8-C ) :   1.3625
B(  7-C , 18-C ) :   0.6987 B(  8-C ,  9-C ) :   1.2510 B(  8-C , 12-C ) :   0.9995
B(  9-C , 10-C ) :   0.9726 B( 10-C , 11-C ) :   1.3524 B( 10-C , 31-C ) :   1.3271
B( 11-C , 30-O ) :   0.9897 B( 11-C , 32-C ) :   1.4137 B( 12-C , 29-O ) :   2.0522
B( 12-C , 30-O ) :   1.1618 B( 18-C , 19-C ) :   1.4071 B( 18-C , 20-C ) :   1.4070
B( 19-C , 21-C ) :   1.4456 B( 19-C , 22-H ) :   0.9836 B( 20-C , 23-C ) :   1.4459
B( 20-C , 24-H ) :   0.9837 B( 21-C , 25-C ) :   1.3976 B( 21-C , 26-H ) :   0.9825
B( 23-C , 25-C ) :   1.3977 B( 23-C , 27-H ) :   0.9825 B( 25-C , 28-H ) :   0.9778
B( 31-C , 34-C ) :   1.4665 B( 31-C , 36-H ) :   0.9479 B( 32-C , 33-C ) :   1.3357
B( 32-C , 37-H ) :   1.0129 B( 33-C , 34-C ) :   1.2892 B( 33-C , 38-O ) :   1.1283
B( 34-C , 35-H ) :   0.9760 B( 38-O , 39-C ) :   0.8790 B( 39-C , 40-H ) :   0.9732
B( 39-C , 41-H ) :   0.9743 B( 39-C , 42-H ) :   0.9733

MP2 TOTAL ENERGY:    -1149.153374281 Eh

-----------------------------------------------------------------------------
         ABSORPTION SPECTRUM VIA TRANSITION ELECTRIC DIPOLE MOMENTS
-----------------------------------------------------------------------------
State   Energy    Wavelength  fosc         T2        TX        TY        TZ
        (cm-1)      (nm)                 (au**2)    (au)      (au)      (au)
-----------------------------------------------------------------------------
   1   27863.3    358.9   0.078943671   0.93274   0.48695   0.83404   0.00002
   2   31653.1    315.9   0.363519451   3.78083  -1.82877   0.66064   0.00012
   3   35529.7    281.5   0.995491262   9.22406   2.82826  -1.10679  -0.00031
   4   34313.4    291.4   0.000036662   0.00035  -0.00069   0.00048  -0.01874
   5   37310.4    268.0   0.241399133   2.13001   0.88390  -1.16135  -0.00017
   6   38520.8    259.6   0.309070550   2.64142   0.82886   1.39800   0.00008
   7   41234.4    242.5   0.001563407   0.01248   0.00031  -0.00017   0.11172
   8   43092.6    232.1   0.508441007   3.88431  -1.20228   1.56168   0.00026
   9   40372.8    247.7   0.013978050   0.11398  -0.29893   0.15691  -0.00023
  10   41391.9    241.6   0.084720671   0.67383  -0.16911   0.80326  -0.00005
  11   47548.1    210.3   0.027999563   0.19386   0.27173   0.34644  -0.00173
  12   42064.2    237.7   0.000969780   0.00759  -0.00580  -0.00699  -0.08664
  13   42895.9    233.1   0.103576608   0.79492   0.74961  -0.48270  -0.00017
  14   44024.6    227.1   0.221848747   1.65896   0.35283  -1.23874  -0.00021
  15   46669.7    214.3   0.235962527   1.66450   0.77368   1.03243  -0.00001
  16   44498.8    224.7   0.024141958   0.17861  -0.00048  -0.00008  -0.42262
  17   44654.4    223.9   0.014926244   0.11004  -0.00153  -0.00136  -0.33172
  18   46508.1    215.0   0.223104840   1.57927   1.07617   0.64894  -0.00057
  19   47754.7    209.4   0.221066718   1.52399   1.02532   0.68754  -0.00037
  20   47025.9    212.6   0.168167117   1.17728   0.87329   0.64393   0.00054
  21   48195.9    207.5   0.105755083   0.72238  -0.82465   0.20575  -0.00046
  22   48392.0    206.6   0.152382172   1.03666   0.90912   0.45844  -0.00006
  23   52720.5    189.7   0.500283762   3.12401   0.00044  -0.00052   1.76749
  24   49378.1    202.5   0.174221444   1.16156  -1.05930  -0.19858   0.00055
  25   51650.4    193.6   0.124471105   0.79336  -0.15289  -0.87749   0.00011
  26   51165.7    195.4   0.355256075   2.28580  -1.25409  -0.84443  -0.00003
  27   55699.0    179.5   0.000506291   0.00299   0.00115   0.00046   0.05469
  28   51751.4    193.2   0.008387237   0.05335  -0.00015  -0.00012   0.23099
  29   51463.2    194.3   0.002508960   0.01605  -0.00077  -0.00019  -0.12669
  30   52800.7    189.4   0.047085820   0.29358   0.49169   0.22765  -0.00014

FINAL SINGLE POINT ENERGY     -1147.201390213252

DIPOLE MOMENT
-------------
                                X             Y             Z
Electronic contribution:     -1.24282      -4.55758      -0.00077
Nuclear contribution   :      2.30387       7.71586       0.00102
                        -----------------------------------------
Total Dipole Moment    :      1.06105       3.15827       0.00025
                        -----------------------------------------
Magnitude (a.u.)       :      3.33174
Magnitude (Debye)      :      8.46862

Rotational constants in cm-1:     0.011445     0.004004     0.003062
Rotational constants in MHz :   343.117137   120.023996    91.800824

                             ****ORCA TERMINATED NORMALLY****
TOTAL RUN TIME: 0 days 6 hours 39 minutes 49 seconds 525 msec
