                         Program Version 5.0.2 -  RELEASE  -
|  1> %maxcore 12800
|  2> %pal
|  3>  nprocs= 8
|  4> end
|  5> ! RI-DSD-BLYP D3BJ def2-TZVP def2/J def2-TZVP/C RIJCOSX CPCM TightSCF
|  6> %TDDFT DCORR 4
|  7>    NROOTS   30
|  8>
|  9>    TDA      FALSE
| 10> END
| 11>
| 12> %CPCM
| 13>    SMD          TRUE
| 14>    SMDsolvent   "ACETONITRILE"
| 15> END
| 16>
| 17>
| 18> * xyz 0 1
| 19> C                  -2.79293800    4.12055100    0.00048800
| 20> C                  -1.46622100    3.79291700    0.00034500
| 21> C                  -1.05286200    2.44017500    0.00020200
| 22> C                  -2.04168300    1.41007400    0.00019500
| 23> C                  -3.40652800    1.78994200    0.00035800
| 24> C                  -3.77190700    3.10832400    0.00049900
| 25> C                   0.30285200    2.09382800    0.00008900
| 26> C                  -1.62929500    0.05246500    0.00004900
| 27> C                  -0.26938100   -0.25631800   -0.00007400
| 28> C                   0.71709800    0.78004900   -0.00003500
| 29> C                   2.11986200    0.41216600   -0.00011900
| 30> C                   2.46183500   -0.94127600   -0.00017400
| 31> C                   0.15746000   -1.66057700   -0.00032100
| 32> H                   1.02838400    2.89659300    0.00011500
| 33> H                  -3.09646100    5.15987500    0.00060100
| 34> H                  -0.70465800    4.56360300    0.00034600
| 35> H                  -4.16865700    1.02183200    0.00037600
| 36> H                  -4.82047400    3.37711400    0.00062600
| 37> C                  -2.69458300   -0.98341100    0.00007100
| 38> C                  -3.22739400   -1.44695400    1.19996100
| 39> C                  -3.22796800   -1.44642400   -1.19977000
| 40> C                  -4.25500700   -2.37793300    1.19964400
| 41> H                  -2.82614200   -1.08022700    2.13758000
| 42> C                  -4.25557000   -2.37741500   -1.19937300
| 43> H                  -2.82717400   -1.07927300   -2.13741900
| 44> C                  -4.77009800   -2.84971300    0.00015400
| 45> H                  -4.65586800   -2.73442000    2.14055200
| 46> H                  -4.65686900   -2.73350100   -2.14024600
| 47> H                  -5.57268300   -3.57650600    0.00018600
| 48> O                  -0.55376000   -2.63420400   -0.00045200
| 49> O                   1.50506500   -1.91615600   -0.00020200
| 50> C                   3.18326000    1.32007500   -0.00012700
| 51> C                   3.76940100   -1.38466800   -0.00022200
| 52> C                   4.80184500   -0.45358900   -0.00023000
| 53> C                   4.50132600    0.91224300   -0.00018400
| 54> H                   5.28952700    1.65075600   -0.00019000
| 55> H                   2.97751300    2.38210700   -0.00008700
| 56> H                   3.98545000   -2.44422900   -0.00026600
| 57> O                   6.05250400   -0.95690400   -0.00028400
| 58> C                   7.13492200   -0.03735000   -0.00035300
| 59> H                   7.12357600    0.59473400    0.89029100
| 60> H                   8.04005000   -0.63818000   -0.00042600
| 61> H                   7.12344400    0.59475500   -0.89098000
| 62> *
| 63>
| 64>
| 65>                          ****END OF INPUT****

CARTESIAN COORDINATES (ANGSTROEM)
---------------------------------
  C     -2.792938    4.120551    0.000488
  C     -1.466221    3.792917    0.000345
  C     -1.052862    2.440175    0.000202
  C     -2.041683    1.410074    0.000195
  C     -3.406528    1.789942    0.000358
  C     -3.771907    3.108324    0.000499
  C      0.302852    2.093828    0.000089
  C     -1.629295    0.052465    0.000049
  C     -0.269381   -0.256318   -0.000074
  C      0.717098    0.780049   -0.000035
  C      2.119862    0.412166   -0.000119
  C      2.461835   -0.941276   -0.000174
  C      0.157460   -1.660577   -0.000321
  H      1.028384    2.896593    0.000115
  H     -3.096461    5.159875    0.000601
  H     -0.704658    4.563603    0.000346
  H     -4.168657    1.021832    0.000376
  H     -4.820474    3.377114    0.000626
  C     -2.694583   -0.983411    0.000071
  C     -3.227394   -1.446954    1.199961
  C     -3.227968   -1.446424   -1.199770
  C     -4.255007   -2.377933    1.199644
  H     -2.826142   -1.080227    2.137580
  C     -4.255570   -2.377415   -1.199373
  H     -2.827174   -1.079273   -2.137419
  C     -4.770098   -2.849713    0.000154
  H     -4.655868   -2.734420    2.140552
  H     -4.656869   -2.733501   -2.140246
  H     -5.572683   -3.576506    0.000186
  O     -0.553760   -2.634204   -0.000452
  O      1.505065   -1.916156   -0.000202
  C      3.183260    1.320075   -0.000127
  C      3.769401   -1.384668   -0.000222
  C      4.801845   -0.453589   -0.000230
  C      4.501326    0.912243   -0.000184
  H      5.289527    1.650756   -0.000190
  H      2.977513    2.382107   -0.000087
  H      3.985450   -2.444229   -0.000266
  O      6.052504   -0.956904   -0.000284
  C      7.134922   -0.037350   -0.000353
  H      7.123576    0.594734    0.890291
  H      8.040050   -0.638180   -0.000426
  H      7.123444    0.594755   -0.890980

 Total Charge           Charge          ....    0
 Multiplicity           Mult            ....    1
 Number of Electrons    NEL             ....  184
 Basis Dimension        Dim             ....  933

ORBITAL ENERGIES
----------------

  NO   OCC          E(Eh)            E(eV)
   0   2.0000     -20.074827      -546.2638
   1   2.0000     -20.042364      -545.3804
   2   2.0000     -19.996963      -544.1450
   3   2.0000     -10.982867      -298.8590
   4   2.0000     -10.909527      -296.8633
   5   2.0000     -10.903223      -296.6918
   6   2.0000     -10.867806      -295.7280
   7   2.0000     -10.866447      -295.6911
   8   2.0000     -10.860530      -295.5301
   9   2.0000     -10.857206      -295.4396
  10   2.0000     -10.849825      -295.2387
  11   2.0000     -10.846600      -295.1510
  12   2.0000     -10.841966      -295.0249
  13   2.0000     -10.840821      -294.9937
  14   2.0000     -10.839626      -294.9612
  15   2.0000     -10.834481      -294.8212
  16   2.0000     -10.833314      -294.7895
  17   2.0000     -10.831586      -294.7424
  18   2.0000     -10.830604      -294.7157
  19   2.0000     -10.829497      -294.6856
  20   2.0000     -10.826032      -294.5913
  21   2.0000     -10.825847      -294.5863
  22   2.0000     -10.825460      -294.5757
  23   2.0000     -10.825264      -294.5704
  24   2.0000     -10.824038      -294.5370
  25   2.0000     -10.823945      -294.5345
  26   2.0000     -10.823208      -294.5145
  27   2.0000      -1.345296       -36.6074
  28   2.0000      -1.287711       -35.0404
  29   2.0000      -1.248191       -33.9650
  30   2.0000      -1.087407       -29.5899
  31   2.0000      -1.055445       -28.7201
  32   2.0000      -1.045141       -28.4397
  33   2.0000      -1.022281       -27.8177
  34   2.0000      -0.978791       -26.6342
  35   2.0000      -0.950382       -25.8612
  36   2.0000      -0.931624       -25.3508
  37   2.0000      -0.923616       -25.1329
  38   2.0000      -0.916203       -24.9312
  39   2.0000      -0.913172       -24.8487
  40   2.0000      -0.885229       -24.0883
  41   2.0000      -0.850862       -23.1531
  42   2.0000      -0.820627       -22.3304
  43   2.0000      -0.786856       -21.4114
  44   2.0000      -0.783433       -21.3183
  45   2.0000      -0.758222       -20.6323
  46   2.0000      -0.749084       -20.3836
  47   2.0000      -0.742800       -20.2126
  48   2.0000      -0.706950       -19.2371
  49   2.0000      -0.696261       -18.9462
  50   2.0000      -0.682933       -18.5836
  51   2.0000      -0.648146       -17.6370
  52   2.0000      -0.647234       -17.6121
  53   2.0000      -0.628003       -17.0888
  54   2.0000      -0.616206       -16.7678
  55   2.0000      -0.608531       -16.5590
  56   2.0000      -0.598740       -16.2926
  57   2.0000      -0.588728       -16.0201
  58   2.0000      -0.583531       -15.8787
  59   2.0000      -0.577386       -15.7115
  60   2.0000      -0.573914       -15.6170
  61   2.0000      -0.566917       -15.4266
  62   2.0000      -0.564695       -15.3661
  63   2.0000      -0.546704       -14.8766
  64   2.0000      -0.543975       -14.8023
  65   2.0000      -0.536654       -14.6031
  66   2.0000      -0.524909       -14.2835
  67   2.0000      -0.522071       -14.2063
  68   2.0000      -0.521475       -14.1901
  69   2.0000      -0.508450       -13.8356
  70   2.0000      -0.497574       -13.5397
  71   2.0000      -0.496178       -13.5017
  72   2.0000      -0.490364       -13.3435
  73   2.0000      -0.480097       -13.0641
  74   2.0000      -0.469122       -12.7655
  75   2.0000      -0.456186       -12.4135
  76   2.0000      -0.453500       -12.3404
  77   2.0000      -0.449386       -12.2284
  78   2.0000      -0.445492       -12.1224
  79   2.0000      -0.438773       -11.9396
  80   2.0000      -0.435359       -11.8467
  81   2.0000      -0.430479       -11.7139
  82   2.0000      -0.419254       -11.4085
  83   2.0000      -0.397816       -10.8251
  84   2.0000      -0.396976       -10.8023
  85   2.0000      -0.361490        -9.8366
  86   2.0000      -0.326822        -8.8933
  87   2.0000      -0.311544        -8.4775
  88   2.0000      -0.307800        -8.3757
  89   2.0000      -0.300433        -8.1752
  90   2.0000      -0.291530        -7.9329
  91   2.0000      -0.251737        -6.8501
  92   0.0000      -0.000191        -0.0052
  93   0.0000       0.018657         0.5077
  94   0.0000       0.062496         1.7006
  95   0.0000       0.069425         1.8891
  96   0.0000       0.073392         1.9971

MULLIKEN ATOMIC CHARGES
-----------------------
   0 C :   -0.114347
   1 C :   -0.284079
   2 C :    0.172124
   3 C :    0.072546
   4 C :   -0.262595
   5 C :   -0.175182
   6 C :   -0.436930
   7 C :    0.360013
   8 C :   -0.171297
   9 C :    0.187638
  10 C :    0.083006
  11 C :    0.273251
  12 C :    0.437433
  13 H :    0.162846
  14 H :    0.166958
  15 H :    0.162952
  16 H :    0.178699
  17 H :    0.164438
  18 C :    0.152459
  19 C :   -0.260554
  20 C :   -0.260643
  21 C :   -0.191567
  22 H :    0.159006
  23 C :   -0.191324
  24 H :    0.158988
  25 C :   -0.144623
  26 H :    0.158257
  27 H :    0.158248
  28 H :    0.160508
  29 O :   -0.435286
  30 O :   -0.277875
  31 C :   -0.230735
  32 C :   -0.432731
  33 C :    0.421225
  34 C :   -0.310069
  35 H :    0.170801
  36 H :    0.169048
  37 H :    0.151894
  38 O :   -0.344447
  39 C :   -0.187475
  40 H :    0.138096
  41 H :    0.153222
  42 H :    0.138103
Sum of atomic charges:    0.0000000

LOEWDIN ATOMIC CHARGES
----------------------
   0 C :   -0.126642
   1 C :   -0.100553
   2 C :   -0.084243
   3 C :   -0.056841
   4 C :   -0.088478
   5 C :   -0.140634
   6 C :   -0.055816
   7 C :    0.014433
   8 C :   -0.053234
   9 C :   -0.061782
  10 C :   -0.105755
  11 C :   -0.172262
  12 C :   -0.344779
  13 H :    0.162815
  14 H :    0.153994
  15 H :    0.157169
  16 H :    0.162173
  17 H :    0.152762
  18 C :   -0.097673
  19 C :   -0.101769
  20 C :   -0.101774
  21 C :   -0.145683
  22 H :    0.155441
  23 C :   -0.145680
  24 H :    0.155441
  25 C :   -0.150374
  26 H :    0.150375
  27 H :    0.150375
  28 H :    0.149152
  29 O :    0.072552
  30 O :    0.314022
  31 C :   -0.075002
  32 C :   -0.097040
  33 C :   -0.233982
  34 C :   -0.143453
  35 H :    0.159229
  36 H :    0.160897
  37 H :    0.160448
  38 O :    0.204830
  39 C :   -0.290887
  40 H :    0.111538
  41 H :    0.115148
  42 H :    0.111542

  Mayer bond orders larger than 0.100000
B(  0-C ,  1-C ) :   1.5607 B(  0-C ,  5-C ) :   1.2221 B(  0-C , 14-H ) :   0.9800
B(  1-C ,  2-C ) :   1.2158 B(  1-C , 15-H ) :   0.9918 B(  2-C ,  3-C ) :   1.2993
B(  2-C ,  6-C ) :   1.2499 B(  3-C ,  4-C ) :   1.2021 B(  3-C ,  7-C ) :   1.2011
B(  4-C ,  5-C ) :   1.6044 B(  4-C , 16-H ) :   0.9661 B(  5-C , 17-H ) :   0.9844
B(  6-C ,  9-C ) :   1.4990 B(  6-C , 13-H ) :   0.9782 B(  7-C ,  8-C ) :   1.3625
B(  7-C , 18-C ) :   0.6901 B(  8-C ,  9-C ) :   1.2529 B(  8-C , 12-C ) :   1.0008
B(  9-C , 10-C ) :   0.9683 B( 10-C , 11-C ) :   1.3550 B( 10-C , 31-C ) :   1.3285
B( 11-C , 30-O ) :   0.9902 B( 11-C , 32-C ) :   1.4138 B( 12-C , 29-O ) :   2.0488
B( 12-C , 30-O ) :   1.1609 B( 18-C , 19-C ) :   1.4110 B( 18-C , 20-C ) :   1.4109
B( 19-C , 21-C ) :   1.4479 B( 19-C , 22-H ) :   0.9841 B( 20-C , 23-C ) :   1.4482
B( 20-C , 24-H ) :   0.9842 B( 21-C , 25-C ) :   1.3989 B( 21-C , 26-H ) :   0.9835
B( 23-C , 25-C ) :   1.3990 B( 23-C , 27-H ) :   0.9835 B( 25-C , 28-H ) :   0.9789
B( 31-C , 34-C ) :   1.4657 B( 31-C , 36-H ) :   0.9504 B( 32-C , 33-C ) :   1.3348
B( 32-C , 37-H ) :   1.0147 B( 33-C , 34-C ) :   1.2922 B( 33-C , 38-O ) :   1.1256
B( 34-C , 35-H ) :   0.9780 B( 38-O , 39-C ) :   0.8770 B( 39-C , 40-H ) :   0.9744
B( 39-C , 41-H ) :   0.9752 B( 39-C , 42-H ) :   0.9744

MP2 TOTAL ENERGY:    -1148.854284685 Eh

-----------------------------------------------------------------------------
         ABSORPTION SPECTRUM VIA TRANSITION ELECTRIC DIPOLE MOMENTS
-----------------------------------------------------------------------------
State   Energy    Wavelength  fosc         T2        TX        TY        TZ
        (cm-1)      (nm)                 (au**2)    (au)      (au)      (au)
-----------------------------------------------------------------------------
   1   23232.0    430.4   0.064865274   0.91918   0.44348   0.85001   0.00002
   2   28604.4    349.6   0.321664362   3.70208   1.82023  -0.62359  -0.00011
   3   30902.4    323.6   0.872626084   9.29632  -2.83683   1.11745   0.00031
   4   25328.2    394.8   0.000028225   0.00037  -0.00043   0.00037  -0.01915
   5   30084.1    332.4   0.192113744   2.10231   0.89543  -1.14040  -0.00016
   6   31193.8    320.6   0.280492018   2.96025  -0.75830  -1.54442  -0.00009
   7   34658.8    288.5   0.001151393   0.01094   0.00029  -0.00006   0.10458
   8   39303.7    254.4   0.470375635   3.93991   1.28140  -1.51589  -0.00024
   9   42893.9    233.1   0.029388104   0.22555  -0.22716   0.41708  -0.00014
  10   32879.8    304.1   0.042945790   0.43000  -0.13629  -0.64142  -0.00010
  11   34109.7    293.2   0.024247535   0.23403   0.40025  -0.27171   0.00016
  12   32812.6    304.8   0.000859347   0.00862   0.00013  -0.00045   0.09285
  13   38524.4    259.6   0.168331513   1.43848   0.94272  -0.74146  -0.00028
  14   29219.9    342.2   0.041987973   0.47307   0.06473  -0.68475  -0.00011
  15   38851.1    257.4   0.293825780   2.48979   0.69086   1.41863   0.00004
  16   36961.6    270.6   0.173626225   1.54646   1.10757   0.56546  -0.00086
  17   33377.2    299.6   0.032829976   0.32381   0.00314   0.00168   0.56904
  18   33389.1    299.5   0.018688878   0.18427   0.00078   0.00010  -0.42927
  19   40200.4    248.8   0.265275361   2.17241   1.20013   0.85563  -0.00067
  20   38929.7    256.9   0.152222445   1.28728  -1.13371  -0.04457  -0.00102
  21   35847.7    279.0   0.065308468   0.59977   0.38220   0.67357   0.00058
  22   39342.9    254.2   0.147862055   1.23727  -0.93826  -0.59745   0.00079
  23   46388.0    215.6   0.420138415   2.98169  -0.00032   0.00045  -1.72676
  24   37535.8    266.4   0.069009902   0.60526  -0.77633   0.05075   0.00017
  25   40116.3    249.3   0.089008980   0.73045   0.25978   0.81422  -0.00009
  26   51820.6    193.0   0.000107118   0.00068  -0.00175  -0.00136   0.02599
  27   39530.1    253.0   0.246178356   2.05021   1.26650   0.66797   0.00011
  28   40602.0    246.3   0.004405737   0.03572  -0.00019  -0.00008   0.18901
  29   42659.2    234.4   0.001508493   0.01164   0.00098   0.00021   0.10789
  30   50001.4    200.0   0.000238533   0.00157   0.00043   0.00006   0.03963

Dispersion correction           -0.042169380
FINAL SINGLE POINT ENERGY     -1146.620194610927

DIPOLE MOMENT
-------------
                                X             Y             Z
Electronic contribution:     -1.24870      -4.55150      -0.00077
Nuclear contribution   :      2.30387       7.71586       0.00102
                        -----------------------------------------
Total Dipole Moment    :      1.05517       3.16436       0.00025
                        -----------------------------------------
Magnitude (a.u.)       :      3.33565
Magnitude (Debye)      :      8.47856

Rotational constants in cm-1:     0.011445     0.004004     0.003062
Rotational constants in MHz :   343.117137   120.023996    91.800824

                             ****ORCA TERMINATED NORMALLY****
TOTAL RUN TIME: 0 days 1 hours 0 minutes 43 seconds 167 msec
