 Gaussian 09, Revision E.01,

 ----------------------------------------------------------------------
 #p TPSSTPSS/def2TZVP opt freq=noraman nosymm int=ultrafine scrf=(SMD,s
 olvent=Acetonitrile)
 ----------------------------------------------------------------------

 -----
 Title
 -----
 Symbolic Z-matrix:
 Charge =  0 Multiplicity = 1

 SCF Done:  E(RTPSS-TPSS) =  -1150.53003863     A.U. after   15 cycles
 SCF Done:  E(RTPSS-TPSS) =  -1150.53159286     A.U. after   11 cycles
 SCF Done:  E(RTPSS-TPSS) =  -1150.53183585     A.U. after   10 cycles
 SCF Done:  E(RTPSS-TPSS) =  -1150.53187190     A.U. after   10 cycles
 SCF Done:  E(RTPSS-TPSS) =  -1150.53187476     A.U. after    9 cycles
 SCF Done:  E(RTPSS-TPSS) =  -1150.53187783     A.U. after    8 cycles
 SCF Done:  E(RTPSS-TPSS) =  -1150.53187844     A.U. after    7 cycles
 Optimization completed.
    -- Stationary point found.
 Normal termination of Gaussian 09 at Tue Mar 30 18:43:50 2021.

 ----------------------------------------------------------------------
 #P Geom=AllCheck Guess=TCheck SCRF=Check GenChk RTPSSTPSS/def2TZVP Fre
 q
 ----------------------------------------------------------------------

 Structure from the checkpoint file:  "cp.chk"
 -----
 Title
 -----
 Charge =  0 Multiplicity = 1

 SCF Done:  E(RTPSS-TPSS) =  -1150.53187844     A.U. after    1 cycles

  Exact polarizability: 699.271  37.861 523.782  -0.013  -0.015 274.199
 Approx polarizability: 862.763  57.979 710.864  -0.011  -0.025 348.087

                      1                      2                      3
                      A                      A                      A
 Frequencies --     19.5082                43.1295                47.0223
 Red. masses --      5.6373                 4.3177                 4.7454
 Frc consts  --      0.0013                 0.0047                 0.0062
 IR Inten    --      2.8301                 1.3060                 0.0150

                      4                      5                      6
                      A                      A                      A
 Frequencies --     61.6757                61.7695                81.2941
 Red. masses --      5.3992                 4.5436                 4.0376
 Frc consts  --      0.0121                 0.0102                 0.0157
 IR Inten    --      1.0942                 0.0217                 0.2181

                      7                      8                      9
                      A                      A                      A
 Frequencies --    100.3974               117.8182               121.1173
 Red. masses --      5.3456                 4.8914                 5.1877
 Frc consts  --      0.0317                 0.0400                 0.0448
 IR Inten    --      0.7943                 0.9310                 4.2833

                     10                     11                     12
                      A                      A                      A
 Frequencies --    192.6080               193.3168               224.6523
 Red. masses --      3.9088                 5.0920                 1.7389
 Frc consts  --      0.0854                 0.1121                 0.0517
 IR Inten    --      0.6530                 0.1284                 0.5454

                     13                     14                     15
                      A                      A                      A
 Frequencies --    240.2264               249.5664               255.0684
 Red. masses --      5.1556                 6.1619                 5.1622
 Frc consts  --      0.1753                 0.2261                 0.1979
 IR Inten    --      1.9905                 0.4946                 0.6836

                     16                     17                     18
                      A                      A                      A
 Frequencies --    260.1274               294.0263               309.7325
 Red. masses --      2.1080                 6.9657                 5.7329
 Frc consts  --      0.0840                 0.3548                 0.3240
 IR Inten    --      0.0876                 8.4625                12.5039

                     19                     20                     21
                      A                      A                      A
 Frequencies --    313.1388               359.1009               361.9915
 Red. masses --      4.1912                 5.5963                 5.9043
 Frc consts  --      0.2421                 0.4252                 0.4558
 IR Inten    --      0.4425                 4.2389                 0.9320

                     22                     23                     24
                      A                      A                      A
 Frequencies --    402.7404               426.4622               440.8579
 Red. masses --      2.9215                 7.3553                 3.0390
 Frc consts  --      0.2792                 0.7882                 0.3480
 IR Inten    --      0.1497                 5.9831                 1.1577

                     25                     26                     27
                      A                      A                      A
 Frequencies --    457.2903               467.3121               489.3701
 Red. masses --      3.2907                 6.9508                 5.0787
 Frc consts  --      0.4054                 0.8943                 0.7166
 IR Inten    --     21.9605                 1.2222                10.7013

                     28                     29                     30
                      A                      A                      A
 Frequencies --    519.6038               532.6312               569.4205
 Red. masses --      3.5470                 6.3864                 4.4028
 Frc consts  --      0.5642                 1.0675                 0.8411
 IR Inten    --      6.8996                15.8735                79.4784

                     31                     32                     33
                      A                      A                      A
 Frequencies --    593.1276               602.3928               616.0397
 Red. masses --      7.1267                 5.5714                 5.9097
 Frc consts  --      1.4772                 1.1912                 1.3214
 IR Inten    --     38.9232                 5.3661                 9.4539

                     34                     35                     36
                      A                      A                      A
 Frequencies --    616.1193               628.9959               640.0584
 Red. masses --      6.7668                 6.7703                 3.4950
 Frc consts  --      1.5134                 1.5782                 0.8436
 IR Inten    --      3.8708                 3.8221                 0.9617

                     37                     38                     39
                      A                      A                      A
 Frequencies --    662.2694               666.8313               694.9200
 Red. masses --      5.8568                 5.3333                 6.7111
 Frc consts  --      1.5135                 1.3973                 1.9095
 IR Inten    --      1.1393                 0.8668                 1.2912

                     40                     41                     42
                      A                      A                      A
 Frequencies --    705.4537               720.4446               745.5936
 Red. masses --      1.6662                 3.1313                 2.7126
 Frc consts  --      0.4885                 0.9576                 0.8885
 IR Inten    --     78.0060                 0.1408                55.6672

                     43                     44                     45
                      A                      A                      A
 Frequencies --    753.6188               766.0232               781.2596
 Red. masses --      1.6131                 3.3865                 6.4108
 Frc consts  --      0.5398                 1.1708                 2.3054
 IR Inten    --     42.0009                62.4335                38.4804

                     46                     47                     48
                      A                      A                      A
 Frequencies --    798.0365               804.2252               819.7979
 Red. masses --      4.4090                 1.7974                 3.2451
 Frc consts  --      1.6544                 0.6849                 1.2850
 IR Inten    --      9.5943                37.2159                15.5337

                     49                     50                     51
                      A                      A                      A
 Frequencies --    847.6468               848.7833               849.8805
 Red. masses --      5.4276                 1.5618                 1.2505
 Frc consts  --      2.2977                 0.6629                 0.5322
 IR Inten    --      1.2049                58.9466                 0.0007

                     52                     53                     54
                      A                      A                      A
 Frequencies --    860.8941               891.7681               893.4537
 Red. masses --      1.4891                 4.8951                 1.7710
 Frc consts  --      0.6503                 2.2936                 0.8329
 IR Inten    --     12.3578                34.2707                27.0188

                     55                     56                     57
                      A                      A                      A
 Frequencies --    918.7902               935.7971               951.1448
 Red. masses --      1.6282                 1.3073                 5.4331
 Frc consts  --      0.8098                 0.6745                 2.8960
 IR Inten    --      6.3017                 2.6181                14.9451

                     58                     59                     60
                      A                      A                      A
 Frequencies --    961.4633               963.2053               972.3584
 Red. masses --      1.3534                 1.3642                 6.5916
 Frc consts  --      0.7372                 0.7457                 3.6719
 IR Inten    --      2.4188                 0.0066                68.6410

                     61                     62                     63
                      A                      A                      A
 Frequencies --    983.5937               984.4170               998.9536
 Red. masses --      1.2908                 1.2628                 6.3014
 Frc consts  --      0.7358                 0.7210                 3.7049
 IR Inten    --      0.0327                 0.2518                 4.2271

                     64                     65                     66
                      A                      A                      A
 Frequencies --   1020.2797              1027.3481              1034.5213
 Red. masses --      3.1178                 2.5494                 2.2257
 Frc consts  --      1.9122                 1.5854                 1.4035
 IR Inten    --    195.4531                 5.6390                11.8655

                     67                     68                     69
                      A                      A                      A
 Frequencies --   1067.2567              1080.0274              1112.2556
 Red. masses --      5.0598                 1.6037                 3.1901
 Frc consts  --      3.3957                 1.1022                 2.3252
 IR Inten    --    404.6942                14.6444               600.8193

                     70                     71                     72
                      A                      A                      A
 Frequencies --   1131.7957              1152.5610              1155.3638
 Red. masses --      1.9176                 1.2620                 1.0770
 Frc consts  --      1.4473                 0.9877                 0.8471
 IR Inten    --     10.5096                 1.6494                 0.0006

                     73                     74                     75
                      A                      A                      A
 Frequencies --   1156.8022              1161.1348              1177.9611
 Red. masses --      1.1521                 1.8679                 1.1757
 Frc consts  --      0.9084                 1.4838                 0.9612
 IR Inten    --     95.6770               243.5240                 0.4731

                     76                     77                     78
                      A                      A                      A
 Frequencies --   1179.7178              1192.3405              1203.5117
 Red. masses --      1.9760                 1.5879                 1.7187
 Frc consts  --      1.6203                 1.3301                 1.4668
 IR Inten    --     12.4498                44.8729                17.1132

                     79                     80                     81
                      A                      A                      A
 Frequencies --   1227.9655              1247.7998              1261.3312
 Red. masses --      2.0758                 2.8743                 2.6024
 Frc consts  --      1.8442                 2.6368                 2.4394
 IR Inten    --     23.0104               410.4926                 4.3690

                     82                     83                     84
                      A                      A                      A
 Frequencies --   1288.3659              1307.0608              1324.4465
 Red. masses --      2.8475                 3.2924                 3.1327
 Frc consts  --      2.7848                 3.3140                 3.2377
 IR Inten    --    290.8290                 0.0379                48.9461

                     85                     86                     87
                      A                      A                      A
 Frequencies --   1334.6557              1337.1538              1348.3750
 Red. masses --      3.3908                 1.8239                 3.6398
 Frc consts  --      3.5587                 1.9214                 3.8990
 IR Inten    --    136.9236                 0.0172                12.7129

                     88                     89                     90
                      A                      A                      A
 Frequencies --   1380.4491              1388.5369              1406.4726
 Red. masses --      5.4542                 4.0965                 4.5530
 Frc consts  --      6.1238                 4.6535                 5.3066
 IR Inten    --     11.1039                12.4653                 5.7980

                     91                     92                     93
                      A                      A                      A
 Frequencies --   1445.6908              1449.2927              1450.4485
 Red. masses --      2.6857                 2.1199                 2.4814
 Frc consts  --      3.3072                 2.6235                 3.0757
 IR Inten    --     69.8613                 6.7504                69.1820

                     94                     95                     96
                      A                      A                      A
 Frequencies --   1462.6772              1481.7656              1484.0940
 Red. masses --      1.4061                 1.0473                 1.0604
 Frc consts  --      1.7724                 1.3549                 1.3761
 IR Inten    --     23.0566                11.5995                34.0285

                     97                     98                     99
                      A                      A                      A
 Frequencies --   1498.2520              1503.8903              1516.1596
 Red. masses --      2.5049                 2.5989                 2.6981
 Frc consts  --      3.3130                 3.4631                 3.6543
 IR Inten    --     33.6234                 7.9322               163.1365

                    100                    101                    102
                      A                      A                      A
 Frequencies --   1553.6512              1577.6264              1583.9633
 Red. masses --      7.9376                 6.5548                 5.3147
 Frc consts  --     11.2888                 9.6121                 7.8563
 IR Inten    --    178.7255                37.6929                 1.5459

                    103                    104                    105
                      A                      A                      A
 Frequencies --   1590.8988              1606.2284              1614.5771
 Red. masses --      6.0413                 5.5690                 5.7150
 Frc consts  --      9.0087                 8.4654                 8.7778
 IR Inten    --    309.1698                15.3896               382.3732

                    106                    107                    108
                      A                      A                      A
 Frequencies --   1621.6155              1708.1827              2996.3481
 Red. masses --      6.1372                12.7687                 1.0312
 Frc consts  --      9.5086                21.9515                 5.4549
 IR Inten    --    221.1151               849.5770                86.0610

                    109                    110                    111
                      A                      A                      A
 Frequencies --   3064.7750              3115.6469              3126.9840
 Red. masses --      1.1078                 1.1022                 1.0848
 Frc consts  --      6.1309                 6.3039                 6.2496
 IR Inten    --     44.5149                27.1472                 2.7596

                    112                    113                    114
                      A                      A                      A
 Frequencies --   3132.0147              3133.2171              3140.6964
 Red. masses --      1.0868                 1.0861                 1.0909
 Frc consts  --      6.2814                 6.2821                 6.3399
 IR Inten    --      0.0711                 1.0993                17.1832

                    115                    116                    117
                      A                      A                      A
 Frequencies --   3142.7124              3146.6753              3153.8986
 Red. masses --      1.0894                 1.0946                 1.0908
 Frc consts  --      6.3395                 6.3855                 6.3927
 IR Inten    --     14.8465                60.2543                15.7103

                    118                    119                    120
                      A                      A                      A
 Frequencies --   3154.8978              3155.4826              3161.4831
 Red. masses --      1.0935                 1.0978                 1.0873
 Frc consts  --      6.4126                 6.4401                 6.4029
 IR Inten    --     33.8090                19.8533                14.2944

                    121                    122                    123
                      A                      A                      A
 Frequencies --   3167.1155              3168.7355              3181.6054
 Red. masses --      1.0939                 1.0916                 1.0924
 Frc consts  --      6.4650                 6.4581                 6.5152
 IR Inten    --     28.3474                 1.6854                 8.5332

 - Thermochemistry -
 -------------------
 Temperature   298.150 Kelvin.  Pressure   1.00000 Atm.
 Atom     1 has atomic number  6 and mass  12.00000

 Molecular mass:   352.10994 amu.
 Principal axes and moments of inertia in atomic units:
                           1         2         3
     Eigenvalues --  5304.99979********************
           X            0.99999  -0.00450   0.00005
           Y            0.00450   0.99999   0.00007
           Z           -0.00005  -0.00007   1.00000
 This molecule is an asymmetric top.
 Rotational symmetry number  1.
 Warning -- assumption of classical behavior for rotation
           may cause significant error
 Rotational temperatures (Kelvin)      0.01633     0.00567     0.00434
 Rotational constants (GHZ):           0.34020     0.11812     0.09051
 Zero-point vibrational energy     859439.9 (Joules/Mol)
                                  205.41106 (Kcal/Mol)
 Warning -- explicit consideration of  34 degrees of freedom as
           vibrations may cause significant error
 Vibrational temperatures:     28.07    62.05    67.65    88.74    88.87
          (Kelvin)            116.96   144.45   169.51   174.26   277.12
                              278.14   323.22   345.63   359.07   366.99
                              374.26   423.04   445.64   450.54   516.67
                              520.82   579.45   613.58   634.30   657.94
                              672.36   704.09   747.59   766.34   819.27
                              853.38   866.71   886.34   886.46   904.98
                              920.90   952.86   959.42   999.83  1014.99
                             1036.56  1072.74  1084.29  1102.14  1124.06
                             1148.20  1157.10  1179.50  1219.57  1221.21
                             1222.79  1238.63  1283.05  1285.48  1321.93
                             1346.40  1368.48  1383.33  1385.84  1399.01
                             1415.17  1416.35  1437.27  1467.95  1478.12
                             1488.44  1535.54  1553.92  1600.29  1628.40
                             1658.28  1662.31  1664.38  1670.61  1694.82
                             1697.35  1715.51  1731.58  1766.77  1795.30
                             1814.77  1853.67  1880.57  1905.58  1920.27
                             1923.86  1940.01  1986.16  1997.79  2023.60
                             2080.02  2085.21  2086.87  2104.46  2131.93
                             2135.28  2155.65  2163.76  2181.41  2235.35
                             2269.85  2278.97  2288.95  2311.00  2323.01
                             2333.14  2457.69  4311.07  4409.52  4482.72
                             4499.03  4506.26  4507.99  4518.76  4521.66
                             4527.36  4537.75  4539.19  4540.03  4548.66
                             4556.77  4559.10  4577.61

 Zero-point correction=                           0.327343 (Hartree/Particle)
 Thermal correction to Energy=                    0.348414
 Thermal correction to Enthalpy=                  0.349358
 Thermal correction to Gibbs Free Energy=         0.276456
 Sum of electronic and zero-point Energies=          -1150.204535
 Sum of electronic and thermal Energies=             -1150.183464
 Sum of electronic and thermal Enthalpies=           -1150.182520
 Sum of electronic and thermal Free Energies=        -1150.255422

                     E (Thermal)             CV                S
                      KCal/Mol        Cal/Mol-Kelvin    Cal/Mol-Kelvin
 Total                  218.633             84.838            153.436
 Electronic               0.000              0.000              0.000
 Translational            0.889              2.981             43.470
 Rotational               0.889              2.981             35.734
 Vibrational            216.856             78.877             74.232
 Vibration     1          0.593              1.986              6.684
 Vibration     2          0.595              1.980              5.110
 Vibration     3          0.595              1.979              4.939
 Vibration     4          0.597              1.973              4.403
 Vibration     5          0.597              1.973              4.400
 Vibration     6          0.600              1.962              3.859
 Vibration     7          0.604              1.949              3.447
 Vibration     8          0.608              1.935              3.136
 Vibration     9          0.609              1.932              3.082
 Vibration    10          0.635              1.850              2.203
 Vibration    11          0.635              1.849              2.196
 Vibration    12          0.649              1.804              1.921
 Vibration    13          0.657              1.779              1.801
 Vibration    14          0.662              1.763              1.734
 Vibration    15          0.665              1.754              1.695
 Vibration    16          0.668              1.746              1.661
 Vibration    17          0.689              1.685              1.451
 Vibration    18          0.699              1.655              1.364
 Vibration    19          0.701              1.649              1.346
 Vibration    20          0.734              1.557              1.126
 Vibration    21          0.736              1.551              1.114
 Vibration    22          0.768              1.464              0.953
 Vibration    23          0.788              1.413              0.870
 Vibration    24          0.801              1.381              0.824
 Vibration    25          0.815              1.345              0.774
 Vibration    26          0.825              1.323              0.745
 Vibration    27          0.845              1.274              0.685
 Vibration    28          0.875              1.207              0.611
 Vibration    29          0.888              1.178              0.581
 Vibration    30          0.925              1.097              0.505
 Vibration    31          0.951              1.046              0.462
 Vibration    32          0.961              1.027              0.446
 Vibration    33          0.976              0.998              0.423
 Vibration    34          0.976              0.998              0.423

 Optimization completed.
    -- Stationary point found.
 Normal termination of Gaussian 09 at Tue Mar 30 22:08:03 2021.
 Gaussian 09:  ES64L-G09RevE.01 30-Nov-2015

 ----------------------------------------------------------------------
 #p TPSSTPSS chkbasis geom=allcheck Guess=Read int=ultrafine scrf=(SMD,
 solvent=Acetonitrile) td=(NStates=30)
 ----------------------------------------------------------------------

 Structure from the checkpoint file:  "cp.chk"
 -----
 Title
 -----
 Charge =  0 Multiplicity = 1

                         Standard orientation:
 ---------------------------------------------------------------------
 Center     Atomic      Atomic             Coordinates (Angstroms)
 Number     Number       Type             X           Y           Z
 ---------------------------------------------------------------------
      1          6           0       -2.801250    4.144786    0.000511
      2          6           0       -1.466186    3.812800    0.000338
      3          6           0       -1.055287    2.450224    0.000186
      4          6           0       -2.051380    1.415249    0.000196
      5          6           0       -3.423445    1.799279    0.000395
      6          6           0       -3.787833    3.127459    0.000545
      7          6           0        0.308586    2.102190    0.000058
      8          6           0       -1.639683    0.047950    0.000021
      9          6           0       -0.270599   -0.261898   -0.000139
     10          6           0        0.724090    0.779887   -0.000079
     11          6           0        2.137511    0.412057   -0.000151
     12          6           0        2.485059   -0.947386   -0.000239
     13          6           0        0.158778   -1.673709   -0.000452
     14          1           0        1.035694    2.908375    0.000086
     15          1           0       -3.104844    5.188373    0.000630
     16          1           0       -0.700674    4.585177    0.000323
     17          1           0       -4.188912    1.030351    0.000427
     18          1           0       -4.839858    3.399725    0.000695
     19          6           0       -2.717183   -0.991793    0.000082
     20          6           0       -3.259344   -1.452181    1.207824
     21          6           0       -3.260063   -1.451619   -1.207550
     22          6           0       -4.306172   -2.375473    1.207221
     23          1           0       -2.855849   -1.090495    2.150317
     24          6           0       -4.306881   -2.374921   -1.206753
     25          1           0       -2.857128   -1.089500   -2.150115
     26          6           0       -4.831607   -2.843098    0.000282
     27          1           0       -4.712904   -2.727338    2.152175
     28          1           0       -4.714164   -2.726360   -2.151627
     29          1           0       -5.647666   -3.561177    0.000357
     30          8           0       -0.555839   -2.657189   -0.000784
     31          8           0        1.519957   -1.934767   -0.000340
     32          6           0        3.207599    1.326549   -0.000097
     33          6           0        3.799003   -1.396685   -0.000257
     34          6           0        4.836727   -0.458906   -0.000196
     35          6           0        4.534290    0.915051   -0.000121
     36          1           0        5.323525    1.658097   -0.000077
     37          1           0        3.005427    2.392850   -0.000032
     38          1           0        4.014932   -2.460460   -0.000329
     39          8           0        6.098885   -0.967370   -0.000219
     40          6           0        7.199330   -0.033635   -0.000206
     41          1           0        7.178168    0.593079    0.898289
     42          1           0        8.097734   -0.652306   -0.000260
     43          1           0        7.178117    0.593164   -0.898640
 ---------------------------------------------------------------------

 SCF Done:  E(RTPSS-TPSS) =  -1150.53187896     A.U. after    4 cycles

 Excitation energies and oscillator strengths:

 Excited State   1:      Singlet-A      2.6747 eV  463.54 nm  f=0.0285  <S**2>=0.000
      90 -> 93        -0.11242
      92 -> 93         0.68525
 This state for optimization and/or second-order correction.
 Total Energy, E(TD-HF/TD-KS) =  -1150.43358545
 Copying the excited state density for this state as the 1-particle RhoCI density.

 Excited State   2:      Singlet-A      3.2667 eV  379.54 nm  f=0.0000  <S**2>=0.000
      91 -> 93         0.70681

 Excited State   3:      Singlet-A      3.3933 eV  365.38 nm  f=0.1384  <S**2>=0.000
      89 -> 93        -0.42383
      90 -> 93        -0.25557
      92 -> 93        -0.10184
      92 -> 94         0.48112

 Excited State   4:      Singlet-A      3.5298 eV  351.25 nm  f=0.4126  <S**2>=0.000
      87 -> 93         0.10370
      89 -> 93         0.49816
      92 -> 94         0.46228

 Excited State   5:      Singlet-A      3.6122 eV  343.24 nm  f=0.0787  <S**2>=0.000
      87 -> 93         0.13733
      88 -> 93         0.40859
      89 -> 93        -0.22421
      90 -> 93         0.48935

 Excited State   6:      Singlet-A      3.6897 eV  336.03 nm  f=0.0796  <S**2>=0.000
      87 -> 93        -0.13068
      88 -> 93         0.57091
      90 -> 93        -0.34884

 Excited State   7:      Singlet-A      3.8318 eV  323.56 nm  f=0.0004  <S**2>=0.000
      91 -> 94         0.70632

 Excited State   8:      Singlet-A      3.9661 eV  312.61 nm  f=0.1293  <S**2>=0.000
      87 -> 93         0.23469
      90 -> 94         0.57567
      92 -> 95        -0.25016
      92 -> 98        -0.10149

 Excited State   9:      Singlet-A      4.0340 eV  307.35 nm  f=0.0483  <S**2>=0.000
      87 -> 93         0.25673
      89 -> 94        -0.39533
      90 -> 94         0.15520
      92 -> 95         0.48308

 Excited State  10:      Singlet-A      4.0999 eV  302.41 nm  f=0.0000  <S**2>=0.000
      92 -> 96         0.70708

 Excited State  11:      Singlet-A      4.1428 eV  299.27 nm  f=0.0188  <S**2>=0.000
      88 -> 94         0.12717
      89 -> 94         0.40564
      92 -> 95         0.25241
      92 -> 97         0.46977
      92 -> 98        -0.12893

 Excited State  12:      Singlet-A      4.2293 eV  293.15 nm  f=0.0065  <S**2>=0.000
      88 -> 94         0.67117
      92 -> 97        -0.19829

 Excited State  13:      Singlet-A      4.2750 eV  290.02 nm  f=0.0001  <S**2>=0.000
      86 -> 93         0.70588

 Excited State  14:      Singlet-A      4.3312 eV  286.26 nm  f=0.0073  <S**2>=0.000
      87 -> 93         0.26931
      88 -> 94        -0.14655
      89 -> 94         0.37197
      90 -> 95         0.16810
      92 -> 95         0.22911
      92 -> 97        -0.36096
      92 -> 98         0.11249

 Excited State  15:      Singlet-A      4.4988 eV  275.60 nm  f=0.2413  <S**2>=0.000
      85 -> 93        -0.13651
      87 -> 93         0.13920
      90 -> 93        -0.11668
      92 -> 97         0.20081
      92 -> 98         0.60757

 Excited State  16:      Singlet-A      4.5949 eV  269.83 nm  f=0.6057  <S**2>=0.000
      85 -> 93         0.24120
      87 -> 93         0.40634
      90 -> 93        -0.10511
      90 -> 94        -0.25982
      92 -> 95        -0.20212
      92 -> 97         0.19388
      92 -> 98        -0.12657
      92 -> 99         0.18440

 Excited State  17:      Singlet-A      4.7650 eV  260.20 nm  f=0.0012  <S**2>=0.000
      91 -> 95         0.67539
      91 -> 97        -0.17594

 Excited State  18:      Singlet-A      4.7828 eV  259.23 nm  f=0.0206  <S**2>=0.000
      85 -> 93        -0.29725
      87 -> 94         0.37848
      90 -> 95         0.42206
      92 -> 99        -0.15771

 Excited State  19:      Singlet-A      4.8277 eV  256.82 nm  f=0.0000  <S**2>=0.000
      86 -> 94         0.70298

 Excited State  20:      Singlet-A      4.8630 eV  254.95 nm  f=0.0540  <S**2>=0.000
      87 -> 93        -0.11630
      87 -> 94        -0.42342
      90 -> 95         0.44222
      90 -> 97         0.21174
      90 -> 98        -0.12929
      92 -> 99         0.12114

 Excited State  21:      Singlet-A      4.8855 eV  253.78 nm  f=0.0000  <S**2>=0.000
      90 -> 96         0.70071

 Excited State  22:      Singlet-A      4.8988 eV  253.09 nm  f=0.1593  <S**2>=0.000
      85 -> 93         0.47348
      87 -> 94         0.18389
      90 -> 95         0.18745
      90 -> 98        -0.21001
      92 -> 98         0.12129
      92 -> 99        -0.27933
      92 ->100        -0.11687

 Excited State  23:      Singlet-A      4.9948 eV  248.22 nm  f=0.0013  <S**2>=0.000
      87 -> 94         0.15549
      89 -> 95         0.17269
      89 -> 97         0.16436
      90 -> 95        -0.10637
      90 -> 97         0.60700

 Excited State  24:      Singlet-A      5.0317 eV  246.41 nm  f=0.0003  <S**2>=0.000
      89 -> 96         0.60521
      91 -> 97         0.33413
      91 -> 98         0.10112

 Excited State  25:      Singlet-A      5.0597 eV  245.04 nm  f=0.0020  <S**2>=0.000
      88 -> 96         0.24526
      89 -> 96        -0.35324
      91 -> 97         0.46486
      91 -> 98         0.29199

 Excited State  26:      Singlet-A      5.0608 eV  244.99 nm  f=0.0656  <S**2>=0.000
      84 -> 93        -0.12064
      87 -> 94        -0.11378
      89 -> 95         0.43544
      89 -> 97         0.42199
      89 -> 98        -0.12539
      90 -> 95         0.10024
      90 -> 97        -0.15647
      92 -> 99        -0.12090

 Excited State  27:      Singlet-A      5.1197 eV  242.17 nm  f=0.0145  <S**2>=0.000
      84 -> 93         0.58992
      85 -> 94        -0.14416
      89 -> 97         0.18846
      90 -> 99         0.10928
      92 -> 99         0.15310
      92 ->100        -0.11064

 Excited State  28:      Singlet-A      5.1497 eV  240.76 nm  f=0.0004  <S**2>=0.000
      88 -> 96        -0.25941
      91 -> 97        -0.19045
      91 -> 98         0.61648

 Excited State  29:      Singlet-A      5.1702 eV  239.81 nm  f=0.0075  <S**2>=0.000
      88 -> 95         0.62269
      88 -> 97        -0.26335
      89 -> 97        -0.13669

 Excited State  30:      Singlet-A      5.2260 eV  237.24 nm  f=0.0001  <S**2>=0.000
      83 -> 93         0.69939

 The electronic state is 1-A.
 Alpha  occ. eigenvalues --  -18.94267 -18.91795 -18.86989 -10.11583 -10.05909
 Alpha  occ. eigenvalues --  -10.05422 -10.03124 -10.02051 -10.01769 -10.01659
 Alpha  occ. eigenvalues --  -10.00742 -10.00709 -10.00345 -10.00071  -9.99888
 Alpha  occ. eigenvalues --   -9.99415  -9.99383  -9.99330  -9.99266  -9.99174
 Alpha  occ. eigenvalues --   -9.99021  -9.98978  -9.98646  -9.98645  -9.98609
 Alpha  occ. eigenvalues --   -9.98605  -9.98501  -1.04151  -0.99655  -0.95885
 Alpha  occ. eigenvalues --   -0.82949  -0.80402  -0.79451  -0.77671  -0.74077
 Alpha  occ. eigenvalues --   -0.71842  -0.70318  -0.69722  -0.68970  -0.68724
 Alpha  occ. eigenvalues --   -0.66683  -0.64122  -0.61543  -0.58987  -0.58434
 Alpha  occ. eigenvalues --   -0.56614  -0.55838  -0.55335  -0.52548  -0.51477
 Alpha  occ. eigenvalues --   -0.50573  -0.48006  -0.47796  -0.46103  -0.45289
 Alpha  occ. eigenvalues --   -0.44439  -0.43028  -0.42208  -0.41908  -0.41857
 Alpha  occ. eigenvalues --   -0.41392  -0.40634  -0.40342  -0.39389  -0.39307
 Alpha  occ. eigenvalues --   -0.38393  -0.37660  -0.37495  -0.37141  -0.36347
 Alpha  occ. eigenvalues --   -0.36073  -0.35612  -0.35238  -0.33814  -0.33109
 Alpha  occ. eigenvalues --   -0.32291  -0.32034  -0.31674  -0.31441  -0.30382
 Alpha  occ. eigenvalues --   -0.30297  -0.29248  -0.28725  -0.27901  -0.26475
 Alpha  occ. eigenvalues --   -0.25155  -0.24232  -0.22987  -0.22112  -0.21545
 Alpha  occ. eigenvalues --   -0.21528  -0.18669
 Alpha virt. eigenvalues --   -0.09571  -0.07473  -0.04128  -0.03602  -0.03349
 Alpha virt. eigenvalues --   -0.02703  -0.00637   0.00801   0.04386   0.04483
 Alpha virt. eigenvalues --    0.05097   0.05352   0.06564   0.06634   0.06980

 Mulliken charges:
               1
     1  C   -0.100324
     2  C   -0.263129
     3  C    0.193863
     4  C    0.064011
     5  C   -0.200532
     6  C   -0.142032
     7  C   -0.432460
     8  C    0.288402
     9  C   -0.121027
    10  C    0.199610
    11  C    0.054292
    12  C    0.268171
    13  C    0.265362
    14  H    0.131875
    15  H    0.143358
    16  H    0.138326
    17  H    0.155968
    18  H    0.141476
    19  C   -0.002534
    20  C   -0.167764
    21  C   -0.167748
    22  C   -0.179410
    23  H    0.128017
    24  C   -0.179416
    25  H    0.128014
    26  C   -0.111363
    27  H    0.135410
    28  H    0.135409
    29  H    0.139169
    30  O   -0.320595
    31  O   -0.153288
    32  C   -0.241558
    33  C   -0.415612
    34  C    0.369283
    35  C   -0.276512
    36  H    0.151705
    37  H    0.140551
    38  H    0.113578
    39  O   -0.237639
    40  C   -0.235323
    41  H    0.150431
    42  H    0.161552
    43  H    0.150432
 Sum of Mulliken charges =  -0.00000

 Dipole moment (field-independent basis, Debye):
    X=              3.3184    Y=              7.5036    Z=              0.0013  Tot=              8.2047
 Quadrupole moment (field-independent basis, Debye-Ang):
   XX=           -106.2476   YY=           -149.7082   ZZ=           -153.0683
   XY=              8.8766   XZ=             -0.0009   YZ=             -0.0045

 1\1\GINC-CN013\SP\RTPSSTPSS TD-FC\Gen\C24H16O3\PNG4RJV\31-Mar-2021\0\\
 #p TPSSTPSS chkbasis geom=allcheck Guess=Read int=ultrafine scrf=(SMD,
 solvent=Acetonitrile) td=(NStates=30)\\Title\\0,1\C,0,2.8159740046,4.1
 293964538,-0.0006629746\C,0,1.479542466,3.8029569898,-0.0004903685\C,0
 ,1.0629886905,2.4420992105,-0.0003382759\C,0,2.0547752443,1.402996803,
 -0.0003480478\C,0,3.4284229414,1.7813258822,-0.0005468087\C,0,3.798323
 5144,3.1079812274,-0.0006971914\C,0,-0.3023177461,2.0997321274,-0.0002
 10338\C,0,1.6374035033,0.0374190265,-0.0001726914\C,0,0.2670447893,-0.

 Normal termination of Gaussian 09 at Wed Mar 31 00:49:21 2021.
