                         Program Version 5.0.2 -  RELEASE  -
|  1> %maxcore 20000
|  2> %pal
|  3>  nprocs= 4
|  4> end
|  5> ! RI-wPBEPP86   def2-TZVP def2/J def2-TZVP/C RIJCOSX CPCM TightSCF
|  6> %TDDFT
|  7>    NROOTS   30
|  8>    dcorr 1
|  9>    TDA      FALSE
| 10> END
| 11>
| 12> %CPCM
| 13>    SMD          TRUE
| 14>    SMDsolvent   "ACETONITRILE"
| 15> END
| 16>
| 17>
| 18> * xyz 0 1
| 19> C                  -2.79293800    4.12055100    0.00048800
| 20> C                  -1.46622100    3.79291700    0.00034500
| 21> C                  -1.05286200    2.44017500    0.00020200
| 22> C                  -2.04168300    1.41007400    0.00019500
| 23> C                  -3.40652800    1.78994200    0.00035800
| 24> C                  -3.77190700    3.10832400    0.00049900
| 25> C                   0.30285200    2.09382800    0.00008900
| 26> C                  -1.62929500    0.05246500    0.00004900
| 27> C                  -0.26938100   -0.25631800   -0.00007400
| 28> C                   0.71709800    0.78004900   -0.00003500
| 29> C                   2.11986200    0.41216600   -0.00011900
| 30> C                   2.46183500   -0.94127600   -0.00017400
| 31> C                   0.15746000   -1.66057700   -0.00032100
| 32> H                   1.02838400    2.89659300    0.00011500
| 33> H                  -3.09646100    5.15987500    0.00060100
| 34> H                  -0.70465800    4.56360300    0.00034600
| 35> H                  -4.16865700    1.02183200    0.00037600
| 36> H                  -4.82047400    3.37711400    0.00062600
| 37> C                  -2.69458300   -0.98341100    0.00007100
| 38> C                  -3.22739400   -1.44695400    1.19996100
| 39> C                  -3.22796800   -1.44642400   -1.19977000
| 40> C                  -4.25500700   -2.37793300    1.19964400
| 41> H                  -2.82614200   -1.08022700    2.13758000
| 42> C                  -4.25557000   -2.37741500   -1.19937300
| 43> H                  -2.82717400   -1.07927300   -2.13741900
| 44> C                  -4.77009800   -2.84971300    0.00015400
| 45> H                  -4.65586800   -2.73442000    2.14055200
| 46> H                  -4.65686900   -2.73350100   -2.14024600
| 47> H                  -5.57268300   -3.57650600    0.00018600
| 48> O                  -0.55376000   -2.63420400   -0.00045200
| 49> O                   1.50506500   -1.91615600   -0.00020200
| 50> C                   3.18326000    1.32007500   -0.00012700
| 51> C                   3.76940100   -1.38466800   -0.00022200
| 52> C                   4.80184500   -0.45358900   -0.00023000
| 53> C                   4.50132600    0.91224300   -0.00018400
| 54> H                   5.28952700    1.65075600   -0.00019000
| 55> H                   2.97751300    2.38210700   -0.00008700
| 56> H                   3.98545000   -2.44422900   -0.00026600
| 57> O                   6.05250400   -0.95690400   -0.00028400
| 58> C                   7.13492200   -0.03735000   -0.00035300
| 59> H                   7.12357600    0.59473400    0.89029100
| 60> H                   8.04005000   -0.63818000   -0.00042600
| 61> H                   7.12344400    0.59475500   -0.89098000
| 62> *
| 63>
| 64>
| 65>                          ****END OF INPUT****

CARTESIAN COORDINATES (ANGSTROEM)
---------------------------------
  C     -2.792938    4.120551    0.000488
  C     -1.466221    3.792917    0.000345
  C     -1.052862    2.440175    0.000202
  C     -2.041683    1.410074    0.000195
  C     -3.406528    1.789942    0.000358
  C     -3.771907    3.108324    0.000499
  C      0.302852    2.093828    0.000089
  C     -1.629295    0.052465    0.000049
  C     -0.269381   -0.256318   -0.000074
  C      0.717098    0.780049   -0.000035
  C      2.119862    0.412166   -0.000119
  C      2.461835   -0.941276   -0.000174
  C      0.157460   -1.660577   -0.000321
  H      1.028384    2.896593    0.000115
  H     -3.096461    5.159875    0.000601
  H     -0.704658    4.563603    0.000346
  H     -4.168657    1.021832    0.000376
  H     -4.820474    3.377114    0.000626
  C     -2.694583   -0.983411    0.000071
  C     -3.227394   -1.446954    1.199961
  C     -3.227968   -1.446424   -1.199770
  C     -4.255007   -2.377933    1.199644
  H     -2.826142   -1.080227    2.137580
  C     -4.255570   -2.377415   -1.199373
  H     -2.827174   -1.079273   -2.137419
  C     -4.770098   -2.849713    0.000154
  H     -4.655868   -2.734420    2.140552
  H     -4.656869   -2.733501   -2.140246
  H     -5.572683   -3.576506    0.000186
  O     -0.553760   -2.634204   -0.000452
  O      1.505065   -1.916156   -0.000202
  C      3.183260    1.320075   -0.000127
  C      3.769401   -1.384668   -0.000222
  C      4.801845   -0.453589   -0.000230
  C      4.501326    0.912243   -0.000184
  H      5.289527    1.650756   -0.000190
  H      2.977513    2.382107   -0.000087
  H      3.985450   -2.444229   -0.000266
  O      6.052504   -0.956904   -0.000284
  C      7.134922   -0.037350   -0.000353
  H      7.123576    0.594734    0.890291
  H      8.040050   -0.638180   -0.000426
  H      7.123444    0.594755   -0.890980

 Total Charge           Charge          ....    0
 Multiplicity           Mult            ....    1
 Number of Electrons    NEL             ....  184
 Basis Dimension        Dim             ....  933

ORBITAL ENERGIES
----------------

  NO   OCC          E(Eh)            E(eV)
   0   2.0000     -20.126665      -547.6744
   1   2.0000     -20.092953      -546.7571
   2   2.0000     -20.047870      -545.5303
   3   2.0000     -11.023331      -299.9601
   4   2.0000     -10.951205      -297.9974
   5   2.0000     -10.944257      -297.8084
   6   2.0000     -10.910812      -296.8983
   7   2.0000     -10.903246      -296.6924
   8   2.0000     -10.902221      -296.6645
   9   2.0000     -10.899729      -296.5967
  10   2.0000     -10.892050      -296.3877
  11   2.0000     -10.888934      -296.3030
  12   2.0000     -10.883330      -296.1505
  13   2.0000     -10.882334      -296.1234
  14   2.0000     -10.881685      -296.1057
  15   2.0000     -10.874772      -295.9176
  16   2.0000     -10.874086      -295.8989
  17   2.0000     -10.873120      -295.8726
  18   2.0000     -10.871060      -295.8166
  19   2.0000     -10.869890      -295.7847
  20   2.0000     -10.866263      -295.6860
  21   2.0000     -10.866189      -295.6840
  22   2.0000     -10.865654      -295.6695
  23   2.0000     -10.865511      -295.6656
  24   2.0000     -10.864557      -295.6396
  25   2.0000     -10.864423      -295.6360
  26   2.0000     -10.863329      -295.6062
  27   2.0000      -1.398187       -38.0466
  28   2.0000      -1.339032       -36.4369
  29   2.0000      -1.299804       -35.3695
  30   2.0000      -1.139760       -31.0144
  31   2.0000      -1.106971       -30.1222
  32   2.0000      -1.096391       -29.8343
  33   2.0000      -1.073533       -29.2123
  34   2.0000      -1.029416       -28.0118
  35   2.0000      -1.000478       -27.2244
  36   2.0000      -0.981159       -26.6987
  37   2.0000      -0.973115       -26.4798
  38   2.0000      -0.965333       -26.2680
  39   2.0000      -0.961998       -26.1773
  40   2.0000      -0.934084       -25.4177
  41   2.0000      -0.898774       -24.4569
  42   2.0000      -0.869090       -23.6491
  43   2.0000      -0.834953       -22.7202
  44   2.0000      -0.831175       -22.6174
  45   2.0000      -0.805781       -21.9264
  46   2.0000      -0.796179       -21.6651
  47   2.0000      -0.789232       -21.4761
  48   2.0000      -0.753391       -20.5008
  49   2.0000      -0.742437       -20.2027
  50   2.0000      -0.729848       -19.8602
  51   2.0000      -0.694917       -18.9096
  52   2.0000      -0.693130       -18.8610
  53   2.0000      -0.673684       -18.3319
  54   2.0000      -0.661059       -17.9883
  55   2.0000      -0.653237       -17.7755
  56   2.0000      -0.646854       -17.6018
  57   2.0000      -0.634128       -17.2555
  58   2.0000      -0.628613       -17.1054
  59   2.0000      -0.621047       -16.8995
  60   2.0000      -0.618622       -16.8336
  61   2.0000      -0.609785       -16.5931
  62   2.0000      -0.609367       -16.5817
  63   2.0000      -0.589832       -16.0501
  64   2.0000      -0.586331       -15.9549
  65   2.0000      -0.579059       -15.7570
  66   2.0000      -0.567209       -15.4345
  67   2.0000      -0.564406       -15.3583
  68   2.0000      -0.562930       -15.3181
  69   2.0000      -0.550336       -14.9754
  70   2.0000      -0.543990       -14.8027
  71   2.0000      -0.539272       -14.6743
  72   2.0000      -0.536527       -14.5996
  73   2.0000      -0.521152       -14.1813
  74   2.0000      -0.510938       -13.9033
  75   2.0000      -0.501842       -13.6558
  76   2.0000      -0.497440       -13.5360
  77   2.0000      -0.489432       -13.3181
  78   2.0000      -0.486221       -13.2307
  79   2.0000      -0.483536       -13.1577
  80   2.0000      -0.474823       -12.9206
  81   2.0000      -0.470563       -12.8047
  82   2.0000      -0.458962       -12.4890
  83   2.0000      -0.442262       -12.0346
  84   2.0000      -0.440125       -11.9764
  85   2.0000      -0.405417       -11.0320
  86   2.0000      -0.368841       -10.0367
  87   2.0000      -0.353342        -9.6149
  88   2.0000      -0.349408        -9.5079
  89   2.0000      -0.342077        -9.3084
  90   2.0000      -0.332060        -9.0358
  91   2.0000      -0.290895        -7.9156
  92   0.0000       0.008111         0.2207
  93   0.0000       0.026660         0.7255
  94   0.0000       0.072947         1.9850
  95   0.0000       0.080079         2.1791
  96   0.0000       0.084159         2.2901

MULLIKEN ATOMIC CHARGES
-----------------------
   0 C :   -0.136080
   1 C :   -0.300063
   2 C :    0.149508
   3 C :    0.096474
   4 C :   -0.279362
   5 C :   -0.197989
   6 C :   -0.431411
   7 C :    0.312906
   8 C :   -0.134193
   9 C :    0.177628
  10 C :    0.049064
  11 C :    0.266119
  12 C :    0.415105
  13 H :    0.186719
  14 H :    0.190481
  15 H :    0.188169
  16 H :    0.207847
  17 H :    0.188001
  18 C :    0.021857
  19 C :   -0.249075
  20 C :   -0.249121
  21 C :   -0.211969
  22 H :    0.186159
  23 C :   -0.211749
  24 H :    0.186144
  25 C :   -0.164103
  26 H :    0.183187
  27 H :    0.183170
  28 H :    0.185404
  29 O :   -0.424365
  30 O :   -0.248796
  31 C :   -0.252101
  32 C :   -0.454446
  33 C :    0.416976
  34 C :   -0.332678
  35 H :    0.198689
  36 H :    0.192874
  37 H :    0.183520
  38 O :   -0.316964
  39 C :   -0.268437
  40 H :    0.160872
  41 H :    0.175148
  42 H :    0.160882
Sum of atomic charges:    0.0000000

LOEWDIN ATOMIC CHARGES
----------------------
   0 C :   -0.130639
   1 C :   -0.104421
   2 C :   -0.089077
   3 C :   -0.060574
   4 C :   -0.093357
   5 C :   -0.144136
   6 C :   -0.058147
   7 C :    0.010237
   8 C :   -0.054995
   9 C :   -0.065775
  10 C :   -0.110797
  11 C :   -0.177915
  12 C :   -0.350515
  13 H :    0.168809
  14 H :    0.160458
  15 H :    0.163739
  16 H :    0.167787
  17 H :    0.159299
  18 C :   -0.107335
  19 C :   -0.106631
  20 C :   -0.106636
  21 C :   -0.149842
  22 H :    0.162307
  23 C :   -0.149839
  24 H :    0.162308
  25 C :   -0.154485
  26 H :    0.156854
  27 H :    0.156854
  28 H :    0.155560
  29 O :    0.080306
  30 O :    0.320098
  31 C :   -0.078280
  32 C :   -0.099762
  33 C :   -0.240961
  34 C :   -0.148242
  35 H :    0.165238
  36 H :    0.166906
  37 H :    0.167534
  38 O :    0.209745
  39 C :   -0.306555
  40 H :    0.117014
  41 H :    0.120845
  42 H :    0.117019

  Mayer bond orders larger than 0.100000
B(  0-C ,  1-C ) :   1.5565 B(  0-C ,  5-C ) :   1.2178 B(  0-C , 14-H ) :   0.9731
B(  1-C ,  2-C ) :   1.2069 B(  1-C , 15-H ) :   0.9804 B(  2-C ,  3-C ) :   1.2963
B(  2-C ,  6-C ) :   1.2794 B(  3-C ,  4-C ) :   1.1953 B(  3-C ,  7-C ) :   1.2130
B(  4-C ,  5-C ) :   1.6097 B(  4-C , 16-H ) :   0.9486 B(  5-C , 17-H ) :   0.9759
B(  6-C ,  9-C ) :   1.5098 B(  6-C , 13-H ) :   0.9379 B(  7-C ,  8-C ) :   1.3795
B(  7-C , 18-C ) :   0.7263 B(  8-C ,  9-C ) :   1.2513 B(  8-C , 12-C ) :   1.0052
B(  9-C , 10-C ) :   0.9824 B( 10-C , 11-C ) :   1.3655 B( 10-C , 31-C ) :   1.3431
B( 11-C , 30-O ) :   1.0067 B( 11-C , 32-C ) :   1.4190 B( 12-C , 29-O ) :   2.0409
B( 12-C , 30-O ) :   1.1659 B( 18-C , 19-C ) :   1.4136 B( 18-C , 20-C ) :   1.4136
B( 19-C , 21-C ) :   1.4417 B( 19-C , 22-H ) :   0.9758 B( 20-C , 23-C ) :   1.4420
B( 20-C , 24-H ) :   0.9759 B( 21-C , 25-C ) :   1.3940 B( 21-C , 26-H ) :   0.9764
B( 23-C , 25-C ) :   1.3941 B( 23-C , 27-H ) :   0.9764 B( 25-C , 28-H ) :   0.9729
B( 31-C , 34-C ) :   1.4987 B( 31-C , 36-H ) :   0.9336 B( 32-C , 33-C ) :   1.3354
B( 32-C , 37-H ) :   0.9876 B( 33-C , 34-C ) :   1.2827 B( 33-C , 38-O ) :   1.1353
B( 34-C , 35-H ) :   0.9564 B( 38-O , 39-C ) :   0.8858 B( 39-C , 40-H ) :   0.9682
B( 39-C , 41-H ) :   0.9679 B( 39-C , 42-H ) :   0.9682

MP2 TOTAL ENERGY:    -1149.420141328 Eh

-----------------------------------------------------------------------------
         ABSORPTION SPECTRUM VIA TRANSITION ELECTRIC DIPOLE MOMENTS
-----------------------------------------------------------------------------
State   Energy    Wavelength  fosc         T2        TX        TY        TZ
        (cm-1)      (nm)                 (au**2)    (au)      (au)      (au)
-----------------------------------------------------------------------------
   1   29271.5    341.6   0.081232459   0.91361  -0.42668  -0.85531  -0.00002
   2   32331.8    309.3   0.351100481   3.57501  -1.79251   0.60158   0.00011
   3   36563.1    273.5   1.047764267   9.43401   2.85939  -1.12155  -0.00031
   4   35780.5    279.5   0.000030404   0.00028  -0.00015   0.00021  -0.01672
   5   38142.1    262.2   0.255492153   2.20520  -0.94816   1.14289   0.00017
   6   40241.6    248.5   0.458443386   3.75047  -0.64449  -1.82623  -0.00012
   7   41595.9    240.4   0.000925447   0.00732  -0.00024  -0.00016  -0.08558
   8   45361.4    220.5   0.485592660   3.52421   1.36351  -1.29036  -0.00020
   9   49283.3    202.9   0.049122738   0.32814  -0.24727   0.51672  -0.00003
  10   44126.5    226.6   0.056049827   0.41817  -0.28496   0.57641  -0.06865
  11   44291.1    225.8   0.074506125   0.55380   0.32863  -0.66503  -0.05951
  12   44689.6    223.8   0.107342813   0.79076   0.88904   0.01904   0.00011
  13   45397.9    220.3   0.065861305   0.47761  -0.61533   0.31459   0.00048
  14   47492.9    210.6   0.407434801   2.82426  -0.59789  -1.57060  -0.00006
  15   43890.2    227.8   0.099377306   0.74541   0.66480   0.55087  -0.00013
  16   50028.8    199.9   0.688300607   4.52933   1.83490   1.07818   0.00030
  17   47731.8    209.5   0.017563976   0.12114   0.02512  -0.34714  -0.00253
  18   49676.0    201.3   0.309198408   2.04912  -0.00006  -0.00097   1.43147
  19   49016.1    204.0   0.003666760   0.02463  -0.00001  -0.00018   0.15693
  20   50745.6    197.1   0.104379154   0.67716   0.57975  -0.58399   0.00100
  21   52381.6    190.9   0.308836048   1.94100  -1.12291  -0.82466  -0.00077
  22   50329.4    198.7   0.226950720   1.48452   0.00070   0.00048  -1.21841
  23   50725.0    197.1   0.037567527   0.24382   0.41812   0.26267  -0.00059
  24   50859.4    196.6   0.075242979   0.48705  -0.67557   0.17508  -0.00009
  25   52104.6    191.9   0.005130152   0.03241   0.00016  -0.00011   0.18004
  26   58681.0    170.4   0.000161582   0.00091  -0.00074  -0.00027   0.03010
  27   53843.8    185.7   0.220678233   1.34927  -1.12156  -0.30228  -0.00012
  28   52446.6    190.7   0.084569688   0.53085   0.53269   0.49708  -0.00004
  29   54756.9    182.6   0.001784625   0.01073  -0.04264   0.09440  -0.00021
  30   55554.2    180.0   0.001289319   0.00764   0.00008   0.00003  -0.08741

FINAL SINGLE POINT ENERGY     -1147.005630544538

DIPOLE MOMENT
-------------
                                X             Y             Z
Electronic contribution:     -1.26510      -4.55682      -0.00077
Nuclear contribution   :      2.30387       7.71586       0.00102
                        -----------------------------------------
Total Dipole Moment    :      1.03877       3.15903       0.00025
                        -----------------------------------------
Magnitude (a.u.)       :      3.32544
Magnitude (Debye)      :      8.45259

Rotational constants in cm-1:     0.011445     0.004004     0.003062
Rotational constants in MHz :   343.117137   120.023996    91.800824

                             ****ORCA TERMINATED NORMALLY****
TOTAL RUN TIME: 1 days 4 hours 11 minutes 12 seconds 824 msec
