                         Program Version 5.0.2 -  RELEASE  -
|  1> %maxcore 20000
|  2> %pal
|  3>  nprocs= 6
|  4> end
|  5> ! RI-SCS-PBE-QIDH   def2-TZVP def2/J def2-TZVP/C RIJCOSX CPCM TightSCF
|  6> %TDDFT
|  7>    NROOTS   30
|  8>    dcorr 4
|  9>    doscs true
| 10>    TDA      FALSE
| 11> END
| 12>
| 13> %CPCM
| 14>    SMD          TRUE
| 15>    SMDsolvent   "ACETONITRILE"
| 16> END
| 17>
| 18>
| 19> * xyz 0 1
| 20> C                  -2.79293800    4.12055100    0.00048800
| 21> C                  -1.46622100    3.79291700    0.00034500
| 22> C                  -1.05286200    2.44017500    0.00020200
| 23> C                  -2.04168300    1.41007400    0.00019500
| 24> C                  -3.40652800    1.78994200    0.00035800
| 25> C                  -3.77190700    3.10832400    0.00049900
| 26> C                   0.30285200    2.09382800    0.00008900
| 27> C                  -1.62929500    0.05246500    0.00004900
| 28> C                  -0.26938100   -0.25631800   -0.00007400
| 29> C                   0.71709800    0.78004900   -0.00003500
| 30> C                   2.11986200    0.41216600   -0.00011900
| 31> C                   2.46183500   -0.94127600   -0.00017400
| 32> C                   0.15746000   -1.66057700   -0.00032100
| 33> H                   1.02838400    2.89659300    0.00011500
| 34> H                  -3.09646100    5.15987500    0.00060100
| 35> H                  -0.70465800    4.56360300    0.00034600
| 36> H                  -4.16865700    1.02183200    0.00037600
| 37> H                  -4.82047400    3.37711400    0.00062600
| 38> C                  -2.69458300   -0.98341100    0.00007100
| 39> C                  -3.22739400   -1.44695400    1.19996100
| 40> C                  -3.22796800   -1.44642400   -1.19977000
| 41> C                  -4.25500700   -2.37793300    1.19964400
| 42> H                  -2.82614200   -1.08022700    2.13758000
| 43> C                  -4.25557000   -2.37741500   -1.19937300
| 44> H                  -2.82717400   -1.07927300   -2.13741900
| 45> C                  -4.77009800   -2.84971300    0.00015400
| 46> H                  -4.65586800   -2.73442000    2.14055200
| 47> H                  -4.65686900   -2.73350100   -2.14024600
| 48> H                  -5.57268300   -3.57650600    0.00018600
| 49> O                  -0.55376000   -2.63420400   -0.00045200
| 50> O                   1.50506500   -1.91615600   -0.00020200
| 51> C                   3.18326000    1.32007500   -0.00012700
| 52> C                   3.76940100   -1.38466800   -0.00022200
| 53> C                   4.80184500   -0.45358900   -0.00023000
| 54> C                   4.50132600    0.91224300   -0.00018400
| 55> H                   5.28952700    1.65075600   -0.00019000
| 56> H                   2.97751300    2.38210700   -0.00008700
| 57> H                   3.98545000   -2.44422900   -0.00026600
| 58> O                   6.05250400   -0.95690400   -0.00028400
| 59> C                   7.13492200   -0.03735000   -0.00035300
| 60> H                   7.12357600    0.59473400    0.89029100
| 61> H                   8.04005000   -0.63818000   -0.00042600
| 62> H                   7.12344400    0.59475500   -0.89098000
| 63> *
| 64>
| 65>
| 66>                          ****END OF INPUT****

CARTESIAN COORDINATES (ANGSTROEM)
---------------------------------
  C     -2.792938    4.120551    0.000488
  C     -1.466221    3.792917    0.000345
  C     -1.052862    2.440175    0.000202
  C     -2.041683    1.410074    0.000195
  C     -3.406528    1.789942    0.000358
  C     -3.771907    3.108324    0.000499
  C      0.302852    2.093828    0.000089
  C     -1.629295    0.052465    0.000049
  C     -0.269381   -0.256318   -0.000074
  C      0.717098    0.780049   -0.000035
  C      2.119862    0.412166   -0.000119
  C      2.461835   -0.941276   -0.000174
  C      0.157460   -1.660577   -0.000321
  H      1.028384    2.896593    0.000115
  H     -3.096461    5.159875    0.000601
  H     -0.704658    4.563603    0.000346
  H     -4.168657    1.021832    0.000376
  H     -4.820474    3.377114    0.000626
  C     -2.694583   -0.983411    0.000071
  C     -3.227394   -1.446954    1.199961
  C     -3.227968   -1.446424   -1.199770
  C     -4.255007   -2.377933    1.199644
  H     -2.826142   -1.080227    2.137580
  C     -4.255570   -2.377415   -1.199373
  H     -2.827174   -1.079273   -2.137419
  C     -4.770098   -2.849713    0.000154
  H     -4.655868   -2.734420    2.140552
  H     -4.656869   -2.733501   -2.140246
  H     -5.572683   -3.576506    0.000186
  O     -0.553760   -2.634204   -0.000452
  O      1.505065   -1.916156   -0.000202
  C      3.183260    1.320075   -0.000127
  C      3.769401   -1.384668   -0.000222
  C      4.801845   -0.453589   -0.000230
  C      4.501326    0.912243   -0.000184
  H      5.289527    1.650756   -0.000190
  H      2.977513    2.382107   -0.000087
  H      3.985450   -2.444229   -0.000266
  O      6.052504   -0.956904   -0.000284
  C      7.134922   -0.037350   -0.000353
  H      7.123576    0.594734    0.890291
  H      8.040050   -0.638180   -0.000426
  H      7.123444    0.594755   -0.890980

 Total Charge           Charge          ....    0
 Multiplicity           Mult            ....    1
 Number of Electrons    NEL             ....  184
 Basis Dimension        Dim             ....  933

ORBITAL ENERGIES
----------------

  NO   OCC          E(Eh)            E(eV)
   0   2.0000     -20.072052      -546.1883
   1   2.0000     -20.039340      -545.2982
   2   2.0000     -19.992613      -544.0266
   3   2.0000     -10.975254      -298.6519
   4   2.0000     -10.904180      -296.7178
   5   2.0000     -10.897501      -296.5361
   6   2.0000     -10.863828      -295.6198
   7   2.0000     -10.857274      -295.4415
   8   2.0000     -10.856432      -295.4185
   9   2.0000     -10.853157      -295.3294
  10   2.0000     -10.845456      -295.1199
  11   2.0000     -10.842637      -295.0432
  12   2.0000     -10.836933      -294.8879
  13   2.0000     -10.835967      -294.8616
  14   2.0000     -10.835451      -294.8476
  15   2.0000     -10.828790      -294.6664
  16   2.0000     -10.827926      -294.6429
  17   2.0000     -10.826942      -294.6161
  18   2.0000     -10.825184      -294.5682
  19   2.0000     -10.824042      -294.5372
  20   2.0000     -10.820310      -294.4356
  21   2.0000     -10.820208      -294.4328
  22   2.0000     -10.819667      -294.4181
  23   2.0000     -10.819512      -294.4139
  24   2.0000     -10.818559      -294.3880
  25   2.0000     -10.818425      -294.3843
  26   2.0000     -10.817419      -294.3569
  27   2.0000      -1.357515       -36.9399
  28   2.0000      -1.299559       -35.3628
  29   2.0000      -1.259571       -34.2747
  30   2.0000      -1.099830       -29.9279
  31   2.0000      -1.067396       -29.0453
  32   2.0000      -1.056987       -28.7621
  33   2.0000      -1.034125       -28.1400
  34   2.0000      -0.990293       -26.9473
  35   2.0000      -0.961662       -26.1682
  36   2.0000      -0.942521       -25.6473
  37   2.0000      -0.934544       -25.4302
  38   2.0000      -0.926975       -25.2243
  39   2.0000      -0.923737       -25.1361
  40   2.0000      -0.895932       -24.3796
  41   2.0000      -0.861086       -23.4314
  42   2.0000      -0.831218       -22.6186
  43   2.0000      -0.797388       -21.6980
  44   2.0000      -0.793607       -21.5951
  45   2.0000      -0.768449       -20.9106
  46   2.0000      -0.759013       -20.6538
  47   2.0000      -0.752420       -20.4744
  48   2.0000      -0.716632       -19.5006
  49   2.0000      -0.705850       -19.2072
  50   2.0000      -0.692954       -18.8562
  51   2.0000      -0.658115       -17.9082
  52   2.0000      -0.656845       -17.8737
  53   2.0000      -0.637286       -17.3414
  54   2.0000      -0.625264       -17.0143
  55   2.0000      -0.617405       -16.8004
  56   2.0000      -0.609229       -16.5780
  57   2.0000      -0.597855       -16.2685
  58   2.0000      -0.592358       -16.1189
  59   2.0000      -0.585691       -15.9375
  60   2.0000      -0.582818       -15.8593
  61   2.0000      -0.574969       -15.6457
  62   2.0000      -0.573472       -15.6050
  63   2.0000      -0.554816       -15.0973
  64   2.0000      -0.551547       -15.0083
  65   2.0000      -0.544266       -14.8102
  66   2.0000      -0.532664       -14.4945
  67   2.0000      -0.529758       -14.4154
  68   2.0000      -0.528534       -14.3821
  69   2.0000      -0.516069       -14.0430
  70   2.0000      -0.507699       -13.8152
  71   2.0000      -0.504918       -13.7395
  72   2.0000      -0.500723       -13.6254
  73   2.0000      -0.487132       -13.2555
  74   2.0000      -0.476629       -12.9697
  75   2.0000      -0.466366       -12.6905
  76   2.0000      -0.462710       -12.5910
  77   2.0000      -0.456044       -12.4096
  78   2.0000      -0.452384       -12.3100
  79   2.0000      -0.448926       -12.2159
  80   2.0000      -0.441795       -12.0219
  81   2.0000      -0.437102       -11.8941
  82   2.0000      -0.425732       -11.5848
  83   2.0000      -0.407901       -11.0996
  84   2.0000      -0.405020       -11.0212
  85   2.0000      -0.372460       -10.1351
  86   2.0000      -0.337677        -9.1887
  87   2.0000      -0.322088        -8.7645
  88   2.0000      -0.318240        -8.6597
  89   2.0000      -0.311031        -8.4636
  90   2.0000      -0.302178        -8.2227
  91   2.0000      -0.262324        -7.1382
  92   0.0000      -0.010369        -0.2822
  93   0.0000       0.008564         0.2330
  94   0.0000       0.053727         1.4620
  95   0.0000       0.060346         1.6421
  96   0.0000       0.064389         1.7521

MULLIKEN ATOMIC CHARGES
-----------------------
   0 C :   -0.116932
   1 C :   -0.319358
   2 C :    0.209396
   3 C :    0.100380
   4 C :   -0.289151
   5 C :   -0.179513
   6 C :   -0.508010
   7 C :    0.376012
   8 C :   -0.148936
   9 C :    0.215182
  10 C :    0.081650
  11 C :    0.267926
  12 C :    0.399556
  13 H :    0.171292
  14 H :    0.176368
  15 H :    0.174750
  16 H :    0.188036
  17 H :    0.173685
  18 C :    0.113801
  19 C :   -0.260286
  20 C :   -0.260377
  21 C :   -0.203435
  22 H :    0.169313
  23 C :   -0.203198
  24 H :    0.169294
  25 C :   -0.148758
  26 H :    0.167801
  27 H :    0.167793
  28 H :    0.170329
  29 O :   -0.429945
  30 O :   -0.239552
  31 C :   -0.247498
  32 C :   -0.472144
  33 C :    0.423787
  34 C :   -0.324805
  35 H :    0.181886
  36 H :    0.173910
  37 H :    0.160823
  38 O :   -0.312767
  39 C :   -0.232866
  40 H :    0.149609
  41 H :    0.165336
  42 H :    0.149616
Sum of atomic charges:    0.0000000

LOEWDIN ATOMIC CHARGES
----------------------
   0 C :   -0.129010
   1 C :   -0.102248
   2 C :   -0.088346
   3 C :   -0.059493
   4 C :   -0.090982
   5 C :   -0.142126
   6 C :   -0.056171
   7 C :    0.010832
   8 C :   -0.054194
   9 C :   -0.065511
  10 C :   -0.109288
  11 C :   -0.176736
  12 C :   -0.350023
  13 H :    0.166560
  14 H :    0.157651
  15 H :    0.161030
  16 H :    0.165590
  17 H :    0.156547
  18 C :   -0.104329
  19 C :   -0.103944
  20 C :   -0.103949
  21 C :   -0.148176
  22 H :    0.159416
  23 C :   -0.148174
  24 H :    0.159417
  25 C :   -0.152566
  26 H :    0.154053
  27 H :    0.154052
  28 H :    0.152802
  29 O :    0.079050
  30 O :    0.319544
  31 C :   -0.077535
  32 C :   -0.097945
  33 C :   -0.239528
  34 C :   -0.145449
  35 H :    0.162837
  36 H :    0.164328
  37 H :    0.164597
  38 O :    0.210099
  39 C :   -0.300997
  40 H :    0.114952
  41 H :    0.118407
  42 H :    0.114956

  Mayer bond orders larger than 0.100000
B(  0-C ,  1-C ) :   1.5527 B(  0-C ,  5-C ) :   1.2226 B(  0-C , 14-H ) :   0.9755
B(  1-C ,  2-C ) :   1.2049 B(  1-C , 15-H ) :   0.9951 B(  2-C ,  3-C ) :   1.2972
B(  2-C ,  6-C ) :   1.2333 B(  3-C ,  4-C ) :   1.1962 B(  3-C ,  7-C ) :   1.2068
B(  4-C ,  5-C ) :   1.6037 B(  4-C , 16-H ) :   0.9651 B(  5-C , 17-H ) :   0.9797
B(  6-C ,  9-C ) :   1.4711 B(  6-C , 13-H ) :   0.9896 B(  7-C ,  8-C ) :   1.3458
B(  7-C , 18-C ) :   0.6837 B(  8-C ,  9-C ) :   1.2528 B(  8-C , 12-C ) :   1.0100
B(  9-C , 10-C ) :   0.9620 B( 10-C , 11-C ) :   1.3626 B( 10-C , 31-C ) :   1.3295
B( 11-C , 30-O ) :   1.0126 B( 11-C , 32-C ) :   1.3991 B( 12-C , 29-O ) :   2.0491
B( 12-C , 30-O ) :   1.1653 B( 18-C , 19-C ) :   1.4242 B( 18-C , 20-C ) :   1.4241
B( 19-C , 21-C ) :   1.4479 B( 19-C , 22-H ) :   0.9800 B( 20-C , 23-C ) :   1.4482
B( 20-C , 24-H ) :   0.9801 B( 21-C , 25-C ) :   1.3983 B( 21-C , 26-H ) :   0.9798
B( 23-C , 25-C ) :   1.3984 B( 23-C , 27-H ) :   0.9798 B( 25-C , 28-H ) :   0.9756
B( 31-C , 34-C ) :   1.4770 B( 31-C , 36-H ) :   0.9552 B( 32-C , 33-C ) :   1.3172
B( 32-C , 37-H ) :   1.0188 B( 33-C , 34-C ) :   1.2914 B( 33-C , 38-O ) :   1.1390
B( 34-C , 35-H ) :   0.9678 B( 38-O , 39-C ) :   0.8917 B( 39-C , 40-H ) :   0.9704
B( 39-C , 41-H ) :   0.9700 B( 39-C , 42-H ) :   0.9704

MP2 TOTAL ENERGY:    -1148.808990957 Eh

-----------------------------------------------------------------------------
         ABSORPTION SPECTRUM VIA TRANSITION ELECTRIC DIPOLE MOMENTS
-----------------------------------------------------------------------------
State   Energy    Wavelength  fosc         T2        TX        TY        TZ
        (cm-1)      (nm)                 (au**2)    (au)      (au)      (au)
-----------------------------------------------------------------------------
   1   27838.8    359.2   0.078446844   0.92769   0.47193   0.83962   0.00002
   2   31120.2    321.3   0.356035103   3.76639   1.82607  -0.65715  -0.00012
   3   35410.2    282.4   1.015415257   9.44042   2.85611  -1.13272  -0.00031
   4   35216.0    284.0   0.000028438   0.00027  -0.00057   0.00044  -0.01629
   5   36526.3    273.8   0.228445281   2.05898  -0.85894   1.14944   0.00016
   6   38584.3    259.2   0.335887671   2.86589  -0.79945  -1.49224  -0.00009
   7   39754.1    251.5   0.001173146   0.00972  -0.00027   0.00007  -0.09856
   8   43553.2    229.6   0.520191221   3.93205   1.25331  -1.53664  -0.00024
   9   43519.3    229.8   0.010670179   0.08072   0.20550  -0.19618   0.00022
  10   43279.1    231.1   0.089569767   0.68133   0.00104   0.82543  -0.00012
  11   42580.2    234.9   0.000907968   0.00702   0.00098  -0.00130  -0.08377
  12   44892.9    222.8   0.020084422   0.14728   0.37689  -0.07239   0.00040
  13   45102.7    221.7   0.164958590   1.20406  -0.86394   0.67651   0.00025
  14   43747.6    228.6   0.097946229   0.73707   0.12767  -0.84898  -0.00014
  15   46508.3    215.0   0.318682860   2.25582  -0.72583  -1.31491  -0.00003
  16   45444.8    220.0   0.057922693   0.41960  -0.00044  -0.00015   0.64777
  17   46728.2    214.0   0.221931062   1.56356   1.10360   0.58789   0.00075
  18   46893.9    213.2   0.003181074   0.02233  -0.00163  -0.00061   0.14943
  19   48164.9    207.6   0.316369722   2.16242  -1.22585  -0.81222   0.00048
  20   48720.4    205.3   0.169660469   1.14642   1.07018  -0.03369   0.00093
  21   48737.7    205.2   0.107463954   0.72589   0.51384   0.67961   0.00075
  22   49804.2    200.8   0.168697744   1.11511   0.90264   0.54805  -0.00064
  23   52853.8    189.2   0.482003234   3.00226   0.00024  -0.00054   1.73270
  24   49862.9    200.5   0.104915679   0.69269   0.83215  -0.01485  -0.00020
  25   52017.6    192.2   0.149360552   0.94528   0.36162   0.90250  -0.00006
  26   52469.2    190.6   0.010363442   0.06502   0.00023  -0.00001   0.25500
  27   51784.9    193.1   0.294059360   1.86942  -1.22954  -0.59805   0.00003
  28   55400.5    180.5   0.002260405   0.01343   0.00114   0.00028   0.11589
  29   56024.7    178.5   0.000467833   0.00275   0.00048   0.00010   0.05243
  30   53713.7    186.2   0.045060665   0.27618  -0.49116  -0.18691   0.00025

FINAL SINGLE POINT ENERGY     -1147.041478445131

DIPOLE MOMENT
-------------
                                X             Y             Z
Electronic contribution:     -1.24856      -4.57715      -0.00077
Nuclear contribution   :      2.30387       7.71586       0.00102
                        -----------------------------------------
Total Dipole Moment    :      1.05532       3.13870       0.00025
                        -----------------------------------------
Magnitude (a.u.)       :      3.31137
Magnitude (Debye)      :      8.41683

Rotational constants in cm-1:     0.011445     0.004004     0.003062
Rotational constants in MHz :   343.117137   120.023996    91.800824

                             ****ORCA TERMINATED NORMALLY****
TOTAL RUN TIME: 0 days 4 hours 10 minutes 26 seconds 532 msec
