 Gaussian 09, Revision E.01,

 ----------------------------------------------------------------------
 #p PBEPBE/def2TZVP opt freq=noraman nosymm int=ultrafine scrf=(SMD,sol
 vent=Acetonitrile) EmpiricalDispersion=GD3BJ
 ----------------------------------------------------------------------

 -----
 Title
 -----
 Symbolic Z-matrix:
 Charge =  0 Multiplicity = 1

 SCF Done:  E(RPBE-PBE) =  -1148.99456764     A.U. after   15 cycles
 SCF Done:  E(RPBE-PBE) =  -1148.99556764     A.U. after   11 cycles
 SCF Done:  E(RPBE-PBE) =  -1148.99573850     A.U. after   11 cycles
 SCF Done:  E(RPBE-PBE) =  -1148.99576364     A.U. after    9 cycles
 SCF Done:  E(RPBE-PBE) =  -1148.99576455     A.U. after    8 cycles
 SCF Done:  E(RPBE-PBE) =  -1148.99576733     A.U. after    8 cycles
 SCF Done:  E(RPBE-PBE) =  -1148.99576759     A.U. after    7 cycles
 Optimization completed.
    -- Stationary point found.
 Normal termination of Gaussian 09 at Sat Mar 27 09:09:09 2021.

 ---------------------------------------------------------------------
 #P Geom=AllCheck Guess=TCheck SCRF=Check GenChk RPBEPBE/def2TZVP Freq
 ---------------------------------------------------------------------

 Structure from the checkpoint file:  "cp.chk"
 -----
 Title
 -----
 Charge =  0 Multiplicity = 1

 SCF Done:  E(RPBE-PBE) =  -1148.99576759     A.U. after    1 cycles

  Exact polarizability: 712.833  39.477 529.432  -0.016  -0.015 276.891
 Approx polarizability: 903.142  59.792 740.392  -0.015  -0.024 362.596

                      1                      2                      3
                      A                      A                      A
 Frequencies --     20.9517                42.9912                46.7097
 Red. masses --      5.5520                 4.3702                 4.7171
 Frc consts  --      0.0014                 0.0048                 0.0061
 IR Inten    --      2.6931                 1.1606                 0.0440

                      4                      5                      6
                      A                      A                      A
 Frequencies --     59.5749                62.0564                81.4954
 Red. masses --      5.3719                 4.4601                 4.1052
 Frc consts  --      0.0112                 0.0101                 0.0161
 IR Inten    --      1.0462                 0.0228                 0.1645

                      7                      8                      9
                      A                      A                      A
 Frequencies --    100.0515               118.6175               121.1803
 Red. masses --      5.3862                 4.9247                 5.0924
 Frc consts  --      0.0318                 0.0408                 0.0441
 IR Inten    --      0.4828                 0.9567                 4.4555

                     10                     11                     12
                      A                      A                      A
 Frequencies --    190.6054               195.3351               225.7487
 Red. masses --      4.0469                 5.1691                 2.0900
 Frc consts  --      0.0866                 0.1162                 0.0628
 IR Inten    --      0.6096                 0.1480                 0.4917

                     13                     14                     15
                      A                      A                      A
 Frequencies --    239.8072               247.6047               257.9011
 Red. masses --      5.0138                 5.9503                 5.2591
 Frc consts  --      0.1699                 0.2149                 0.2061
 IR Inten    --      1.9235                 0.3580                 0.6151

                     16                     17                     18
                      A                      A                      A
 Frequencies --    262.4807               294.4800               310.4439
 Red. masses --      1.7483                 6.9882                 4.1012
 Frc consts  --      0.0710                 0.3570                 0.2329
 IR Inten    --      0.1140                 8.0857                 0.4620

                     19                     20                     21
                      A                      A                      A
 Frequencies --    314.1371               358.5984               360.5617
 Red. masses --      5.6302                 5.7825                 5.5459
 Frc consts  --      0.3273                 0.4381                 0.4248
 IR Inten    --     11.8445                 0.9349                 4.5749

                     22                     23                     24
                      A                      A                      A
 Frequencies --    396.4939               427.0113               435.5683
 Red. masses --      2.8999                 7.3304                 2.9790
 Frc consts  --      0.2686                 0.7875                 0.3330
 IR Inten    --      0.1456                 6.0162                 1.0647

                     25                     26                     27
                      A                      A                      A
 Frequencies --    452.2370               469.6885               486.9930
 Red. masses --      3.2130                 6.9587                 4.8461
 Frc consts  --      0.3872                 0.9045                 0.6772
 IR Inten    --     23.3990                 1.6511                10.1598

                     28                     29                     30
                      A                      A                      A
 Frequencies --    514.4534               533.0431               568.9642
 Red. masses --      3.4689                 6.3893                 4.3145
 Frc consts  --      0.5409                 1.0696                 0.8229
 IR Inten    --      7.7649                13.6157                83.1521

                     31                     32                     33
                      A                      A                      A
 Frequencies --    592.4498               599.2813               612.6050
 Red. masses --      7.0907                 5.3854                 5.7640
 Frc consts  --      1.4664                 1.1395                 1.2745
 IR Inten    --     37.0016                 6.3857                10.0313

                     34                     35                     36
                      A                      A                      A
 Frequencies --    614.9246               628.4711               633.6821
 Red. masses --      6.7154                 6.7760                 3.2706
 Frc consts  --      1.4961                 1.5769                 0.7738
 IR Inten    --      3.5777                 3.5479                 1.2920

                     37                     38                     39
                      A                      A                      A
 Frequencies --    661.2370               661.6210               691.4187
 Red. masses --      5.6852                 4.9692                 1.5249
 Frc consts  --      1.4646                 1.2816                 0.4295
 IR Inten    --      1.1701                 2.1922                90.8140

                     40                     41                     42
                      A                      A                      A
 Frequencies --    692.9969               713.1344               738.0819
 Red. masses --      6.5942                 2.4777                 1.5192
 Frc consts  --      1.8659                 0.7424                 0.4876
 IR Inten    --      3.0378                 1.7904                62.8469

                     43                     44                     45
                      A                      A                      A
 Frequencies --    738.9817               760.0283               780.0834
 Red. masses --      2.8554                 3.7163                 6.6112
 Frc consts  --      0.9187                 1.2648                 2.3704
 IR Inten    --     47.3667                40.8892                30.7357

                     46                     47                     48
                      A                      A                      A
 Frequencies --    789.8599               795.4165               815.6201
 Red. masses --      1.7590                 4.8381                 3.1488
 Frc consts  --      0.6466                 1.8035                 1.2342
 IR Inten    --     44.5530                10.5390                 9.1670

                     49                     50                     51
                      A                      A                      A
 Frequencies --    827.6866               829.8336               842.8989
 Red. masses --      1.2525                 1.6621                 1.5946
 Frc consts  --      0.5055                 0.6743                 0.6675
 IR Inten    --      0.0192                53.6893                19.0125

                     52                     53                     54
                      A                      A                      A
 Frequencies --    847.0343               879.3311               883.2933
 Red. masses --      5.2076                 2.0985                 2.7085
 Frc consts  --      2.2014                 0.9560                 1.2451
 IR Inten    --      1.0008                21.9132                20.4527

                     55                     56                     57
                      A                      A                      A
 Frequencies --    902.0103               911.1567               935.9741
 Red. masses --      2.2894                 1.3164                 1.3685
 Frc consts  --      1.0975                 0.6439                 0.7064
 IR Inten    --     10.8588                 2.7981                 0.6101

                     58                     59                     60
                      A                      A                      A
 Frequencies --    936.9672               949.2280               957.5430
 Red. masses --      1.3646                 4.8793                 1.2980
 Frc consts  --      0.7058                 2.5903                 0.7012
 IR Inten    --      2.3526                19.6881                 0.0410

                     61                     62                     63
                      A                      A                      A
 Frequencies --    958.7395               969.3931               989.9697
 Red. masses --      1.2876                 5.9119                 6.1800
 Frc consts  --      0.6973                 3.2732                 3.5685
 IR Inten    --      0.5201                67.1735                 1.4256

                     64                     65                     66
                      A                      A                      A
 Frequencies --   1021.7089              1022.3190              1025.9816
 Red. masses --      2.6478                 2.4101                 2.1342
 Frc consts  --      1.6285                 1.4841                 1.3236
 IR Inten    --    113.0189                15.1917                26.7089

                     67                     68                     69
                      A                      A                      A
 Frequencies --   1065.1597              1066.9454              1108.0775
 Red. masses --      5.0104                 1.5131                 2.2444
 Frc consts  --      3.3493                 1.0148                 1.6236
 IR Inten    --    341.5870                17.5342               420.5275

                     70                     71                     72
                      A                      A                      A
 Frequencies --   1118.5495              1129.0677              1131.8056
 Red. masses --      1.7733                 1.2768                 1.0609
 Frc consts  --      1.3072                 0.9590                 0.8007
 IR Inten    --     96.8948                 0.6344                 0.0000

                     73                     74                     75
                      A                      A                      A
 Frequencies --   1135.3177              1149.9147              1153.5472
 Red. masses --      1.1019                 1.8480                 1.1154
 Frc consts  --      0.8368                 1.4398                 0.8745
 IR Inten    --     47.7152               299.6349                 0.1886

                     76                     77                     78
                      A                      A                      A
 Frequencies --   1169.2069              1174.8595              1190.1574
 Red. masses --      2.1166                 1.5506                 1.7721
 Frc consts  --      1.7048                 1.2610                 1.4789
 IR Inten    --     38.8264               106.1555                24.5790

                     79                     80                     81
                      A                      A                      A
 Frequencies --   1215.7530              1240.8352              1253.1366
 Red. masses --      2.0578                 2.2534                 2.7009
 Frc consts  --      1.7920                 2.0441                 2.4989
 IR Inten    --     31.5605               146.7989                99.6899

                     82                     83                     84
                      A                      A                      A
 Frequencies --   1282.7022              1290.1495              1320.3404
 Red. masses --      2.8227                 1.4644                 3.6138
 Frc consts  --      2.7363                 1.4361                 3.7118
 IR Inten    --    375.0768                 0.0299                31.5022

                     85                     86                     87
                      A                      A                      A
 Frequencies --   1325.7958              1332.8667              1346.9804
 Red. masses --      2.8146                 5.5688                 4.7959
 Frc consts  --      2.9149                 5.8289                 5.1268
 IR Inten    --    179.0450                 0.0681                 0.5629

                     88                     89                     90
                      A                      A                      A
 Frequencies --   1381.6135              1385.0889              1404.6862
 Red. masses --      4.5917                 4.2937                 6.0739
 Frc consts  --      5.1642                 4.8533                 7.0612
 IR Inten    --      8.7313                52.1614                11.2457

                     91                     92                     93
                      A                      A                      A
 Frequencies --   1420.3504              1425.3078              1430.4281
 Red. masses --      1.3136                 2.3180                 2.2108
 Frc consts  --      1.5614                 2.7745                 2.6652
 IR Inten    --     76.3690                 7.5014                21.8242

                     94                     95                     96
                      A                      A                      A
 Frequencies --   1431.8695              1437.5445              1442.4536
 Red. masses --      1.0417                 1.3432                 2.7484
 Frc consts  --      1.2584                 1.6354                 3.3693
 IR Inten    --     15.3527                68.2591                26.6104

                     97                     98                     99
                      A                      A                      A
 Frequencies --   1475.6470              1487.3912              1499.9588
 Red. masses --      2.6101                 3.7131                 3.2349
 Frc consts  --      3.3486                 4.8400                 4.2882
 IR Inten    --     41.6549                 1.3431               185.1774

                    100                    101                    102
                      A                      A                      A
 Frequencies --   1547.9830              1567.0091              1571.6725
 Red. masses --      8.6103                 7.3176                 6.0300
 Frc consts  --     12.1563                10.5867                 8.7759
 IR Inten    --    159.7963                39.8677                 1.4067

                    103                    104                    105
                      A                      A                      A
 Frequencies --   1582.8338              1595.4794              1604.7144
 Red. masses --      6.8298                 6.1929                 6.1492
 Frc consts  --     10.0815                 9.2881                 9.3296
 IR Inten    --    338.7216                14.6870               293.1534

                    106                    107                    108
                      A                      A                      A
 Frequencies --   1613.6168              1709.1466              2959.0792
 Red. masses --      7.1102                12.8741                 1.0326
 Frc consts  --     10.9077                22.1577                 5.3270
 IR Inten    --    341.9594               846.5129                89.5225

                    109                    110                    111
                      A                      A                      A
 Frequencies --   3029.2793              3084.2720              3098.6011
 Red. masses --      1.1070                 1.1016                 1.0849
 Frc consts  --      5.9852                 6.1743                 6.1372
 IR Inten    --     35.9773                19.2970                 2.4822

                    112                    113                    114
                      A                      A                      A
 Frequencies --   3103.1367              3104.0378              3111.3302
 Red. masses --      1.0868                 1.0863                 1.0909
 Frc consts  --      6.1661                 6.1664                 6.2220
 IR Inten    --      0.0054                 0.7699                 9.5485

                    115                    116                    117
                      A                      A                      A
 Frequencies --   3113.4859              3117.1898              3123.1841
 Red. masses --      1.0893                 1.0947                 1.0904
 Frc consts  --      6.2212                 6.2674                 6.2664
 IR Inten    --     10.1163                39.7580                 6.7361

                    118                    119                    120
                      A                      A                      A
 Frequencies --   3124.6078              3125.9150              3130.9389
 Red. masses --      1.0937                 1.0983                 1.0874
 Frc consts  --      6.2915                 6.3231                 6.2803
 IR Inten    --     19.9452                17.5577                 8.3347

                    121                    122                    123
                      A                      A                      A
 Frequencies --   3134.9368              3136.2790              3152.6234
 Red. masses --      1.0949                 1.0916                 1.0923
 Frc consts  --      6.3400                 6.3261                 6.3967
 IR Inten    --     20.8499                 1.0799                 3.7023

 - Thermochemistry -
 -------------------
 Temperature   298.150 Kelvin.  Pressure   1.00000 Atm.
 Atom     1 has atomic number  6 and mass  12.00000

 Molecular mass:   352.10994 amu.
 Principal axes and moments of inertia in atomic units:
                           1         2         3
     Eigenvalues --  5296.71348********************
           X            0.99998  -0.00602   0.00005
           Y            0.00602   0.99998   0.00007
           Z           -0.00005  -0.00007   1.00000
 This molecule is an asymmetric top.
 Rotational symmetry number  1.
 Warning -- assumption of classical behavior for rotation
           may cause significant error
 Rotational temperatures (Kelvin)      0.01635     0.00568     0.00435
 Rotational constants (GHZ):           0.34073     0.11834     0.09068
 Zero-point vibrational energy     850973.2 (Joules/Mol)
                                  203.38747 (Kcal/Mol)
 Warning -- explicit consideration of  34 degrees of freedom as
           vibrations may cause significant error
 Vibrational temperatures:     30.14    61.85    67.20    85.71    89.29
          (Kelvin)            117.25   143.95   170.66   174.35   274.24
                              281.04   324.80   345.03   356.25   371.06
                              377.65   423.69   446.66   451.97   515.94
                              518.77   570.47   614.37   626.68   650.67
                              675.78   700.67   740.18   766.93   818.61
                              852.40   862.23   881.40   884.74   904.23
                              911.73   951.37   951.92   994.80   997.07
                             1026.04  1061.93  1063.23  1093.51  1122.36
                             1136.43  1144.43  1173.49  1190.85  1193.94
                             1212.74  1218.69  1265.16  1270.86  1297.79
                             1310.95  1346.66  1348.09  1365.73  1377.69
                             1379.41  1394.74  1424.34  1470.01  1470.89
                             1476.16  1532.53  1535.09  1594.27  1609.34
                             1624.47  1628.41  1633.47  1654.47  1659.70
                             1682.23  1690.36  1712.37  1749.20  1785.28
                             1802.98  1845.52  1856.24  1899.67  1907.52
                             1917.70  1938.00  1987.83  1992.83  2021.03
                             2043.56  2050.70  2058.06  2060.14  2068.30
                             2075.37  2123.12  2140.02  2158.10  2227.20
                             2254.57  2261.28  2277.34  2295.54  2308.82
                             2321.63  2459.08  4257.45  4358.45  4437.57
                             4458.19  4464.72  4466.01  4476.50  4479.61
                             4484.94  4493.56  4495.61  4497.49  4504.72
                             4510.47  4512.40  4535.92

 Zero-point correction=                           0.324119 (Hartree/Particle)
 Thermal correction to Energy=                    0.345311
 Thermal correction to Enthalpy=                  0.346255
 Thermal correction to Gibbs Free Energy=         0.273232
 Sum of electronic and zero-point Energies=          -1148.671649
 Sum of electronic and thermal Energies=             -1148.650457
 Sum of electronic and thermal Enthalpies=           -1148.649512
 Sum of electronic and thermal Free Energies=        -1148.722536

                     E (Thermal)             CV                S
                      KCal/Mol        Cal/Mol-Kelvin    Cal/Mol-Kelvin
 Total                  216.686             85.640            153.690
 Electronic               0.000              0.000              0.000
 Translational            0.889              2.981             43.470
 Rotational               0.889              2.981             35.729
 Vibrational            214.908             79.679             74.491
 Vibration     1          0.593              1.986              6.542
 Vibration     2          0.595              1.980              5.116
 Vibration     3          0.595              1.979              4.952
 Vibration     4          0.597              1.974              4.471
 Vibration     5          0.597              1.972              4.391
 Vibration     6          0.600              1.962              3.855
 Vibration     7          0.604              1.949              3.453
 Vibration     8          0.609              1.934              3.123
 Vibration     9          0.609              1.932              3.081
 Vibration    10          0.634              1.853              2.222
 Vibration    11          0.636              1.846              2.177
 Vibration    12          0.650              1.802              1.913
 Vibration    13          0.657              1.780              1.804
 Vibration    14          0.661              1.767              1.748
 Vibration    15          0.667              1.749              1.676
 Vibration    16          0.670              1.742              1.645
 Vibration    17          0.689              1.684              1.448
 Vibration    18          0.699              1.654              1.360
 Vibration    19          0.702              1.647              1.340
 Vibration    20          0.733              1.558              1.128
 Vibration    21          0.735              1.554              1.120
 Vibration    22          0.763              1.478              0.976
 Vibration    23          0.789              1.411              0.868
 Vibration    24          0.796              1.393              0.841
 Vibration    25          0.811              1.356              0.789
 Vibration    26          0.827              1.317              0.738
 Vibration    27          0.843              1.279              0.691
 Vibration    28          0.870              1.218              0.623
 Vibration    29          0.888              1.177              0.580
 Vibration    30          0.925              1.098              0.506
 Vibration    31          0.950              1.048              0.463
 Vibration    32          0.957              1.033              0.451
 Vibration    33          0.972              1.005              0.428
 Vibration    34          0.974              1.000              0.425

 Optimization completed.
    -- Stationary point found.
 Normal termination of Gaussian 09 at Sat Mar 27 11:53:55 2021.
 Gaussian 09:  ES64L-G09RevE.01 30-Nov-2015

 ----------------------------------------------------------------------
 #p PBEPBE chkbasis geom=allcheck Guess=Read int=ultrafine scrf=(SMD,so
 lvent=Acetonitrile) td=(NStates=30) EmpiricalDispersion=GD3BJ
 ----------------------------------------------------------------------

 Structure from the checkpoint file:  "cp.chk"
 -----
 Title
 -----
 Charge =  0 Multiplicity = 1

                         Standard orientation:
 ---------------------------------------------------------------------
 Center     Atomic      Atomic             Coordinates (Angstroms)
 Number     Number       Type             X           Y           Z
 ---------------------------------------------------------------------
      1          6           0       -2.813370    4.137001    0.000514
      2          6           0       -1.475474    3.809976    0.000346
      3          6           0       -1.059563    2.449383    0.000195
      4          6           0       -2.053464    1.411400    0.000199
      5          6           0       -3.426885    1.788250    0.000390
      6          6           0       -3.796678    3.116330    0.000542
      7          6           0        0.305033    2.104172    0.000070
      8          6           0       -1.636895    0.046907    0.000031
      9          6           0       -0.268132   -0.262206   -0.000111
     10          6           0        0.723684    0.781566   -0.000060
     11          6           0        2.134815    0.414315   -0.000138
     12          6           0        2.480968   -0.947907   -0.000209
     13          6           0        0.159846   -1.674544   -0.000388
     14          1           0        1.032782    2.916227    0.000095
     15          1           0       -3.121497    5.184205    0.000634
     16          1           0       -0.708979    4.588169    0.000335
     17          1           0       -4.191316    1.011362    0.000418
     18          1           0       -4.854319    3.385661    0.000689
     19          6           0       -2.707529   -0.991506    0.000073
     20          6           0       -3.248114   -1.450522    1.208929
     21          6           0       -3.248754   -1.449988   -1.208698
     22          6           0       -4.294029   -2.375550    1.208483
     23          1           0       -2.841188   -1.083054    2.153216
     24          6           0       -4.294661   -2.375026   -1.208106
     25          1           0       -2.842331   -1.082106   -2.153040
     26          6           0       -4.818399   -2.844079    0.000224
     27          1           0       -4.702989   -2.729413    2.157093
     28          1           0       -4.704113   -2.728484   -2.156654
     29          1           0       -5.637094   -3.566245    0.000282
     30          8           0       -0.557856   -2.657008   -0.000668
     31          8           0        1.520376   -1.934258   -0.000277
     32          6           0        3.203931    1.329952   -0.000115
     33          6           0        3.797365   -1.392954   -0.000239
     34          6           0        4.836501   -0.454683   -0.000211
     35          6           0        4.531743    0.920202   -0.000152
     36          1           0        5.323316    1.667474   -0.000134
     37          1           0        2.998729    2.400557   -0.000065
     38          1           0        4.016171   -2.461220   -0.000299
     39          8           0        6.095614   -0.961592   -0.000247
     40          6           0        7.188925   -0.030801   -0.000271
     41          1           0        7.172743    0.602869    0.900271
     42          1           0        8.097157   -0.644191   -0.000330
     43          1           0        7.172660    0.602920   -0.900775
 ---------------------------------------------------------------------

 SCF Done:  E(RPBE-PBE) =  -1148.99576761     A.U. after    4 cycles

 Excitation energies and oscillator strengths:

 Excited State   1:      Singlet-A      2.5763 eV  481.25 nm  f=0.0253  <S**2>=0.000
      90 -> 93        -0.11938
      92 -> 93         0.68367
 This state for optimization and/or second-order correction.
 Total Energy, E(TD-HF/TD-KS) =  -1148.90109141
 Copying the excited state density for this state as the 1-particle RhoCI density.

 Excited State   2:      Singlet-A      3.1371 eV  395.21 nm  f=0.0000  <S**2>=0.000
      91 -> 93         0.70648

 Excited State   3:      Singlet-A      3.2860 eV  377.31 nm  f=0.0950  <S**2>=0.000
      89 -> 93         0.47192
      90 -> 93         0.26849
      92 -> 93         0.10251
      92 -> 94        -0.42656

 Excited State   4:      Singlet-A      3.4211 eV  362.41 nm  f=0.4632  <S**2>=0.000
      87 -> 93         0.10785
      89 -> 93         0.43606
      92 -> 94         0.51682

 Excited State   5:      Singlet-A      3.5095 eV  353.28 nm  f=0.0579  <S**2>=0.000
      87 -> 93         0.13035
      88 -> 93         0.43309
      89 -> 93        -0.23786
      90 -> 93         0.46526

 Excited State   6:      Singlet-A      3.5886 eV  345.50 nm  f=0.0700  <S**2>=0.000
      87 -> 93        -0.13221
      88 -> 93         0.55266
      89 -> 93         0.12583
      90 -> 93        -0.36468

 Excited State   7:      Singlet-A      3.6872 eV  336.26 nm  f=0.0003  <S**2>=0.000
      91 -> 94         0.70563

 Excited State   8:      Singlet-A      3.8449 eV  322.47 nm  f=0.0745  <S**2>=0.000
      87 -> 93         0.17855
      89 -> 94         0.13444
      90 -> 94         0.53313
      92 -> 95        -0.35358
      92 -> 97        -0.10519

 Excited State   9:      Singlet-A      3.9177 eV  316.48 nm  f=0.0868  <S**2>=0.000
      87 -> 93         0.29227
      89 -> 94        -0.32525
      90 -> 94         0.26966
      92 -> 95         0.44550
      92 -> 98        -0.10632

 Excited State  10:      Singlet-A      3.9583 eV  313.23 nm  f=0.0000  <S**2>=0.000
      92 -> 96         0.70708

 Excited State  11:      Singlet-A      4.0018 eV  309.82 nm  f=0.0110  <S**2>=0.000
      89 -> 94         0.44496
      90 -> 94         0.10098
      92 -> 95         0.18517
      92 -> 97         0.46616
      92 -> 98        -0.13198

 Excited State  12:      Singlet-A      4.1113 eV  301.57 nm  f=0.0001  <S**2>=0.000
      86 -> 93         0.70425

 Excited State  13:      Singlet-A      4.1129 eV  301.45 nm  f=0.0058  <S**2>=0.000
      88 -> 94         0.67171
      92 -> 97        -0.18306

 Excited State  14:      Singlet-A      4.2061 eV  294.77 nm  f=0.0023  <S**2>=0.000
      87 -> 93         0.25427
      88 -> 94        -0.16981
      89 -> 94         0.37839
      90 -> 95         0.17570
      92 -> 95         0.23551
      92 -> 97        -0.35847

 Excited State  15:      Singlet-A      4.3533 eV  284.80 nm  f=0.1780  <S**2>=0.000
      85 -> 93        -0.15638
      90 -> 93        -0.10808
      92 -> 97         0.17691
      92 -> 98         0.61763
      92 -> 99        -0.10430

 Excited State  16:      Singlet-A      4.4732 eV  277.17 nm  f=0.6318  <S**2>=0.000
      85 -> 93         0.23935
      87 -> 93         0.41904
      90 -> 93        -0.11623
      90 -> 94        -0.25317
      92 -> 94        -0.10481
      92 -> 95        -0.19220
      92 -> 97         0.21112
      92 -> 99         0.17690

 Excited State  17:      Singlet-A      4.5847 eV  270.43 nm  f=0.0012  <S**2>=0.000
      91 -> 95         0.66721
      91 -> 97        -0.19902

 Excited State  18:      Singlet-A      4.6436 eV  267.00 nm  f=0.0091  <S**2>=0.000
      85 -> 93        -0.25842
      87 -> 94         0.27521
      90 -> 95         0.51953
      90 -> 97         0.12346
      92 -> 99        -0.12958

 Excited State  19:      Singlet-A      4.6506 eV  266.60 nm  f=0.0001  <S**2>=0.000
      86 -> 94         0.69908

 Excited State  20:      Singlet-A      4.7308 eV  262.08 nm  f=0.0697  <S**2>=0.000
      85 -> 93        -0.11489
      87 -> 93         0.13042
      87 -> 94         0.47343
      90 -> 95        -0.31777
      90 -> 97        -0.25158
      90 -> 98         0.16294
      92 -> 99        -0.14891

 Excited State  21:      Singlet-A      4.7345 eV  261.87 nm  f=0.0000  <S**2>=0.000
      90 -> 96         0.70160

 Excited State  22:      Singlet-A      4.7613 eV  260.40 nm  f=0.1599  <S**2>=0.000
      85 -> 93         0.46592
      87 -> 93        -0.10118
      87 -> 94         0.17387
      90 -> 95         0.16002
      90 -> 97        -0.12140
      90 -> 98        -0.22190
      92 -> 98         0.10860
      92 -> 99        -0.29099
      92 ->100        -0.12015

 Excited State  23:      Singlet-A      4.8395 eV  256.19 nm  f=0.0013  <S**2>=0.000
      87 -> 94         0.19146
      89 -> 95         0.27789
      89 -> 97         0.23990
      90 -> 95        -0.10012
      90 -> 97         0.53467

 Excited State  24:      Singlet-A      4.8690 eV  254.64 nm  f=0.0005  <S**2>=0.000
      89 -> 96         0.59076
      91 -> 97         0.33169
      91 -> 98         0.17520

 Excited State  25:      Singlet-A      4.8857 eV  253.77 nm  f=0.0018  <S**2>=0.000
      88 -> 96         0.17219
      89 -> 96        -0.37817
      91 -> 97         0.41399
      91 -> 98         0.37700

 Excited State  26:      Singlet-A      4.8934 eV  253.37 nm  f=0.0694  <S**2>=0.000
      85 -> 93        -0.11093
      87 -> 94        -0.15385
      89 -> 95         0.38524
      89 -> 97         0.39299
      89 -> 98        -0.13229
      90 -> 95         0.13768
      90 -> 97        -0.27154

 Excited State  27:      Singlet-A      4.9619 eV  249.87 nm  f=0.0180  <S**2>=0.000
      84 -> 93         0.60475
      85 -> 94        -0.12064
      89 -> 97         0.15253
      90 -> 99         0.11310
      92 -> 99         0.14615
      92 ->100        -0.10266

 Excited State  28:      Singlet-A      4.9820 eV  248.87 nm  f=0.0014  <S**2>=0.000
      83 -> 93         0.29022
      88 -> 96        -0.24305
      91 -> 97        -0.27345
      91 -> 98         0.51397

 Excited State  29:      Singlet-A      5.0083 eV  247.56 nm  f=0.0001  <S**2>=0.000
      83 -> 93         0.64003
      88 -> 96         0.13839
      91 -> 97         0.13093
      91 -> 98        -0.20663

 Excited State  30:      Singlet-A      5.0219 eV  246.89 nm  f=0.0068  <S**2>=0.000
      88 -> 95         0.61257
      88 -> 97        -0.28712
      89 -> 97        -0.12560

 The electronic state is 1-A.
 Alpha  occ. eigenvalues --  -18.81386 -18.79030 -18.73737 -10.01263  -9.95806
 Alpha  occ. eigenvalues --   -9.95314  -9.92485  -9.91956  -9.91711  -9.91632
 Alpha  occ. eigenvalues --   -9.90744  -9.90717  -9.90330  -9.90026  -9.89681
 Alpha  occ. eigenvalues --   -9.89264  -9.89226  -9.89178  -9.89129  -9.89032
 Alpha  occ. eigenvalues --   -9.88848  -9.88805  -9.88509  -9.88507  -9.88470
 Alpha  occ. eigenvalues --   -9.88467  -9.88366  -1.02529  -0.98292  -0.94248
 Alpha  occ. eigenvalues --   -0.81479  -0.78932  -0.77961  -0.76260  -0.72732
 Alpha  occ. eigenvalues --   -0.70527  -0.69086  -0.68505  -0.67592  -0.67267
 Alpha  occ. eigenvalues --   -0.65468  -0.62896  -0.60606  -0.58286  -0.57433
 Alpha  occ. eigenvalues --   -0.55649  -0.54881  -0.54256  -0.51609  -0.50723
 Alpha  occ. eigenvalues --   -0.49915  -0.47441  -0.47163  -0.45442  -0.44889
 Alpha  occ. eigenvalues --   -0.43829  -0.42850  -0.41823  -0.41382  -0.41028
 Alpha  occ. eigenvalues --   -0.40524  -0.40470  -0.39900  -0.38762  -0.38626
 Alpha  occ. eigenvalues --   -0.37895  -0.37091  -0.36856  -0.36722  -0.36146
 Alpha  occ. eigenvalues --   -0.35601  -0.35311  -0.34657  -0.33387  -0.32860
 Alpha  occ. eigenvalues --   -0.31957  -0.31953  -0.31392  -0.30927  -0.30031
 Alpha  occ. eigenvalues --   -0.29869  -0.28934  -0.28378  -0.27809  -0.26480
 Alpha  occ. eigenvalues --   -0.25001  -0.24297  -0.23098  -0.22156  -0.21630
 Alpha  occ. eigenvalues --   -0.21515  -0.18795
 Alpha virt. eigenvalues --   -0.10078  -0.08011  -0.04805  -0.04253  -0.04033
 Alpha virt. eigenvalues --   -0.03409  -0.01340   0.00010   0.03358   0.03467
 Alpha virt. eigenvalues --    0.04052   0.04337   0.05478   0.05590   0.05994

 Mulliken charges:
               1
     1  C   -0.111425
     2  C   -0.262910
     3  C    0.206486
     4  C    0.058978
     5  C   -0.212554
     6  C   -0.151796
     7  C   -0.468407
     8  C    0.257228
     9  C   -0.124882
    10  C    0.198757
    11  C    0.089271
    12  C    0.225670
    13  C    0.241227
    14  H    0.138926
    15  H    0.147182
    16  H    0.143728
    17  H    0.155671
    18  H    0.146363
    19  C    0.101744
    20  C   -0.205587
    21  C   -0.205578
    22  C   -0.180846
    23  H    0.137062
    24  C   -0.180848
    25  H    0.137060
    26  C   -0.119308
    27  H    0.139959
    28  H    0.139959
    29  H    0.142802
    30  O   -0.288580
    31  O   -0.121433
    32  C   -0.260657
    33  C   -0.406114
    34  C    0.339202
    35  C   -0.274785
    36  H    0.153892
    37  H    0.147879
    38  H    0.119757
    39  O   -0.201307
    40  C   -0.256678
    41  H    0.150811
    42  H    0.163271
    43  H    0.150811
 Sum of Mulliken charges =  -0.00000

 Dipole moment (field-independent basis, Debye):
    X=              3.4019    Y=              7.3347    Z=              0.0011  Tot=              8.0852
 Quadrupole moment (field-independent basis, Debye-Ang):
   XX=           -106.7405   YY=           -150.0355   ZZ=           -153.7745
   XY=              8.6142   XZ=             -0.0015   YZ=             -0.0038

 Normal termination of Gaussian 09 at Sat Mar 27 13:36:15 2021.
