                         Program Version 5.0.2 -  RELEASE  -
|  1> %maxcore 20000
|  2> %pal
|  3>  nprocs= 4
|  4> end
|  5> ! RI-wPBEPP86   def2-TZVP def2/J def2-TZVP/C RIJCOSX CPCM TightSCF
|  6> %TDDFT
|  7>    NROOTS   30
|  8>    dcorr 1
|  9>    TDA      FALSE
| 10> END
| 11>
| 12>  %CPCM
| 13>    SMD          TRUE
| 14>    SMDsolvent   "ETHANOL"
| 15>  END
| 16>
| 17>
| 18> * xyz 1 1
| 19> C                  -3.84267000   -0.92047200    0.05894500
| 20> C                  -2.63140600   -1.64154100    0.02698200
| 21> C                  -1.44451500   -0.98320300   -0.16527300
| 22> C                  -1.35747000    0.41898600   -0.34874900
| 23> C                  -2.58344000    1.12590400   -0.30249800
| 24> C                  -3.77274200    0.49647600   -0.10979100
| 25> C                  -0.10153800    1.01377800   -0.52398600
| 26> C                   1.04141100    0.20174500   -0.51394500
| 27> C                   0.90082300   -1.19349000   -0.31440700
| 28> C                   1.96520000   -2.05709900   -0.27996900
| 29> H                   1.76164300   -3.10760500   -0.13995700
| 30> C                   3.27758200   -1.56937100   -0.44416300
| 31> C                   3.43762900   -0.16648200   -0.65863700
| 32> C                   2.36564200    0.66915700   -0.69356500
| 33> H                  -2.59955700   -2.70986000    0.17692700
| 34> H                  -2.56812100    2.20095000   -0.42639900
| 35> H                  -4.67721800    1.08529100   -0.09723800
| 36> H                   4.42535200    0.24835000   -0.78882700
| 37> H                   2.52930600    1.72568900   -0.86331100
| 38> O                  -0.32598700   -1.74921200   -0.15541900
| 39> C                   0.00981900    2.46809200   -0.77544500
| 40> C                  -0.44694900    2.94685700   -2.00238800
| 41> C                   0.60787100    3.37133300    0.11850100
| 42> C                  -0.31107700    4.28150800   -2.34586700
| 43> H                  -0.89891900    2.25214100   -2.69946600
| 44> C                   0.75239800    4.70851500   -0.24699800
| 45> C                   0.29374200    5.16693100   -1.46704100
| 46> H                  -0.67428000    4.62614800   -3.30558500
| 47> H                   1.21788400    5.38614300    0.45689800
| 48> H                   0.40406600    6.21073100   -1.72991600
| 49> N                  -5.02463500   -1.53894000    0.24539200
| 50> C                  -6.27907000   -0.80390300    0.39621600
| 51> H                  -6.09494400    0.11515600    0.95088300
| 52> H                  -6.92276200   -1.41377600    1.03077700
| 53> C                  -6.95690100   -0.52106400   -0.92532000
| 54> H                  -7.16734100   -1.44515000   -1.46396100
| 55> H                  -7.90276700   -0.00556200   -0.76303300
| 56> H                  -6.33610900    0.10664900   -1.56454100
| 57> C                   1.09695900    2.99900700    1.46614100
| 58> O                   0.45496900    1.95125100    1.99406900
| 59> O                   1.97054600    3.59992600    2.05443100
| 60> C                  -5.13158100   -2.99329900    0.32504900
| 61> H                  -6.12485000   -3.25533400   -0.04034500
| 62> H                  -4.42483600   -3.44287200   -0.37194400
| 63> C                  -4.92918100   -3.52146600    1.72790700
| 64> H                  -5.04218000   -4.60475800    1.74436800
| 65> H                  -3.93553000   -3.28036300    2.10522500
| 66> H                  -5.66160900   -3.09790100    2.41519400
| 67> C                   4.21334300   -3.81278200   -0.09371200
| 68> H                   3.42748000   -3.94672400    0.64904500
| 69> H                   5.14243500   -4.11559600    0.39029200
| 70> C                   5.70542000   -1.92199500   -0.65616200
| 71> H                   5.68810200   -1.16500500   -1.43905300
| 72> H                   6.25482300   -2.76810400   -1.06939200
| 73> C                   6.39023400   -1.40746700    0.58995800
| 74> H                   7.41129100   -1.10327000    0.36274800
| 75> H                   5.86659200   -0.54658500    1.00562500
| 76> H                   6.43395700   -2.17805400    1.35975400
| 77> C                   3.95721900   -4.65970100   -1.32035700
| 78> H                   4.76331500   -4.55172800   -2.04621000
| 79> H                   3.89253500   -5.71207400   -1.04661200
| 80> H                   3.02432800   -4.38115600   -1.81026300
| 81> N                   4.34439700   -2.39113500   -0.40265000
| 82> H                   0.83803600    1.77002800    2.86802500
| 83> *
| 84>
| 85>
| 86>
| 87>
| 88>
| 89>                          ****END OF INPUT****

CARTESIAN COORDINATES (ANGSTROEM)
---------------------------------
  C     -3.842670   -0.920472    0.058945
  C     -2.631406   -1.641541    0.026982
  C     -1.444515   -0.983203   -0.165273
  C     -1.357470    0.418986   -0.348749
  C     -2.583440    1.125904   -0.302498
  C     -3.772742    0.496476   -0.109791
  C     -0.101538    1.013778   -0.523986
  C      1.041411    0.201745   -0.513945
  C      0.900823   -1.193490   -0.314407
  C      1.965200   -2.057099   -0.279969
  H      1.761643   -3.107605   -0.139957
  C      3.277582   -1.569371   -0.444163
  C      3.437629   -0.166482   -0.658637
  C      2.365642    0.669157   -0.693565
  H     -2.599557   -2.709860    0.176927
  H     -2.568121    2.200950   -0.426399
  H     -4.677218    1.085291   -0.097238
  H      4.425352    0.248350   -0.788827
  H      2.529306    1.725689   -0.863311
  O     -0.325987   -1.749212   -0.155419
  C      0.009819    2.468092   -0.775445
  C     -0.446949    2.946857   -2.002388
  C      0.607871    3.371333    0.118501
  C     -0.311077    4.281508   -2.345867
  H     -0.898919    2.252141   -2.699466
  C      0.752398    4.708515   -0.246998
  C      0.293742    5.166931   -1.467041
  H     -0.674280    4.626148   -3.305585
  H      1.217884    5.386143    0.456898
  H      0.404066    6.210731   -1.729916
  N     -5.024635   -1.538940    0.245392
  C     -6.279070   -0.803903    0.396216
  H     -6.094944    0.115156    0.950883
  H     -6.922762   -1.413776    1.030777
  C     -6.956901   -0.521064   -0.925320
  H     -7.167341   -1.445150   -1.463961
  H     -7.902767   -0.005562   -0.763033
  H     -6.336109    0.106649   -1.564541
  C      1.096959    2.999007    1.466141
  O      0.454969    1.951251    1.994069
  O      1.970546    3.599926    2.054431
  C     -5.131581   -2.993299    0.325049
  H     -6.124850   -3.255334   -0.040345
  H     -4.424836   -3.442872   -0.371944
  C     -4.929181   -3.521466    1.727907
  H     -5.042180   -4.604758    1.744368
  H     -3.935530   -3.280363    2.105225
  H     -5.661609   -3.097901    2.415194
  C      4.213343   -3.812782   -0.093712
  H      3.427480   -3.946724    0.649045
  H      5.142435   -4.115596    0.390292
  C      5.705420   -1.921995   -0.656162
  H      5.688102   -1.165005   -1.439053
  H      6.254823   -2.768104   -1.069392
  C      6.390234   -1.407467    0.589958
  H      7.411291   -1.103270    0.362748
  H      5.866592   -0.546585    1.005625
  H      6.433957   -2.178054    1.359754
  C      3.957219   -4.659701   -1.320357
  H      4.763315   -4.551728   -2.046210
  H      3.892535   -5.712074   -1.046612
  H      3.024328   -4.381156   -1.810263
  N      4.344397   -2.391135   -0.402650
  H      0.838036    1.770028    2.868025

 Total Charge           Charge          ....    1
 Multiplicity           Mult            ....    1
 Number of Electrons    NEL             ....  236
 Basis Dimension        Dim             .... 1209

ORBITAL ENERGIES
----------------

  NO   OCC          E(Eh)            E(eV)
   0   2.0000     -20.152540      -548.3785
   1   2.0000     -20.119061      -547.4675
   2   2.0000     -20.063780      -545.9632
   3   2.0000     -15.169884      -412.7935
   4   2.0000     -15.169291      -412.7774
   5   2.0000     -11.032324      -300.2048
   6   2.0000     -10.976494      -298.6856
   7   2.0000     -10.976133      -298.6758
   8   2.0000     -10.953304      -298.0546
   9   2.0000     -10.952561      -298.0343
  10   2.0000     -10.951976      -298.0184
  11   2.0000     -10.916226      -297.0456
  12   2.0000     -10.906879      -296.7913
  13   2.0000     -10.898858      -296.5730
  14   2.0000     -10.898713      -296.5691
  15   2.0000     -10.896390      -296.5059
  16   2.0000     -10.896325      -296.5041
  17   2.0000     -10.893946      -296.4393
  18   2.0000     -10.893669      -296.4318
  19   2.0000     -10.893594      -296.4298
  20   2.0000     -10.893453      -296.4259
  21   2.0000     -10.889970      -296.3311
  22   2.0000     -10.888447      -296.2897
  23   2.0000     -10.887039      -296.2514
  24   2.0000     -10.882000      -296.1143
  25   2.0000     -10.877125      -295.9816
  26   2.0000     -10.877018      -295.9787
  27   2.0000     -10.871554      -295.8300
  28   2.0000     -10.871477      -295.8279
  29   2.0000     -10.844925      -295.1054
  30   2.0000     -10.844865      -295.1038
  31   2.0000     -10.844816      -295.1025
  32   2.0000     -10.844618      -295.0971
  33   2.0000      -1.405849       -38.2551
  34   2.0000      -1.395748       -37.9802
  35   2.0000      -1.295237       -35.2452
  36   2.0000      -1.221719       -33.2447
  37   2.0000      -1.221038       -33.2261
  38   2.0000      -1.145684       -31.1756
  39   2.0000      -1.118411       -30.4335
  40   2.0000      -1.111293       -30.2398
  41   2.0000      -1.057357       -28.7721
  42   2.0000      -1.018920       -27.7262
  43   2.0000      -1.006791       -27.3962
  44   2.0000      -0.998409       -27.1681
  45   2.0000      -0.995283       -27.0830
  46   2.0000      -0.991386       -26.9770
  47   2.0000      -0.987809       -26.8797
  48   2.0000      -0.969356       -26.3775
  49   2.0000      -0.952108       -25.9082
  50   2.0000      -0.930003       -25.3067
  51   2.0000      -0.887898       -24.1609
  52   2.0000      -0.869683       -23.6653
  53   2.0000      -0.866370       -23.5751
  54   2.0000      -0.848463       -23.0879
  55   2.0000      -0.837403       -22.7869
  56   2.0000      -0.830635       -22.6027
  57   2.0000      -0.813644       -22.1404
  58   2.0000      -0.800072       -21.7711
  59   2.0000      -0.792072       -21.5534
  60   2.0000      -0.784069       -21.3356
  61   2.0000      -0.778320       -21.1792
  62   2.0000      -0.726224       -19.7616
  63   2.0000      -0.724621       -19.7179
  64   2.0000      -0.715437       -19.4680
  65   2.0000      -0.698388       -19.0041
  66   2.0000      -0.690673       -18.7942
  67   2.0000      -0.681044       -18.5321
  68   2.0000      -0.673074       -18.3153
  69   2.0000      -0.666543       -18.1376
  70   2.0000      -0.657911       -17.9027
  71   2.0000      -0.655313       -17.8320
  72   2.0000      -0.651290       -17.7225
  73   2.0000      -0.639237       -17.3945
  74   2.0000      -0.632524       -17.2119
  75   2.0000      -0.622644       -16.9430
  76   2.0000      -0.614442       -16.7198
  77   2.0000      -0.611226       -16.6323
  78   2.0000      -0.610629       -16.6161
  79   2.0000      -0.606573       -16.5057
  80   2.0000      -0.593999       -16.1635
  81   2.0000      -0.590361       -16.0645
  82   2.0000      -0.581029       -15.8106
  83   2.0000      -0.579996       -15.7825
  84   2.0000      -0.577543       -15.7157
  85   2.0000      -0.576938       -15.6993
  86   2.0000      -0.576157       -15.6780
  87   2.0000      -0.569383       -15.4937
  88   2.0000      -0.564477       -15.3602
  89   2.0000      -0.545693       -14.8491
  90   2.0000      -0.544347       -14.8124
  91   2.0000      -0.529796       -14.4165
  92   2.0000      -0.529445       -14.4069
  93   2.0000      -0.526357       -14.3229
  94   2.0000      -0.525163       -14.2904
  95   2.0000      -0.520909       -14.1746
  96   2.0000      -0.514566       -14.0020
  97   2.0000      -0.510856       -13.9011
  98   2.0000      -0.508886       -13.8475
  99   2.0000      -0.507194       -13.8014
 100   2.0000      -0.504129       -13.7180
 101   2.0000      -0.495263       -13.4768
 102   2.0000      -0.488406       -13.2902
 103   2.0000      -0.484421       -13.1818
 104   2.0000      -0.482115       -13.1190
 105   2.0000      -0.478414       -13.0183
 106   2.0000      -0.477733       -12.9998
 107   2.0000      -0.468411       -12.7461
 108   2.0000      -0.465642       -12.6708
 109   2.0000      -0.457093       -12.4381
 110   2.0000      -0.454513       -12.3679
 111   2.0000      -0.426605       -11.6085
 112   2.0000      -0.390470       -10.6252
 113   2.0000      -0.376913       -10.2563
 114   2.0000      -0.372992       -10.1496
 115   2.0000      -0.356387        -9.6978
 116   2.0000      -0.337343        -9.1796
 117   2.0000      -0.288458        -7.8493
 118   0.0000      -0.032218        -0.8767
 119   0.0000       0.024385         0.6636
 120   0.0000       0.054617         1.4862
 121   0.0000       0.066816         1.8182
 122   0.0000       0.080941         2.2025

MULLIKEN ATOMIC CHARGES
-----------------------
   0 C :    0.391319
   1 C :   -0.464565
   2 C :    0.293163
   3 C :    0.050682
   4 C :   -0.272654
   5 C :   -0.336460
   6 C :    0.355928
   7 C :    0.100067
   8 C :    0.259742
   9 C :   -0.440221
  10 H :    0.198342
  11 C :    0.368285
  12 C :   -0.320296
  13 C :   -0.317022
  14 H :    0.198310
  15 H :    0.217629
  16 H :    0.200523
  17 H :    0.200593
  18 H :    0.223158
  19 O :   -0.253995
  20 C :   -0.035672
  21 C :   -0.340296
  22 C :   -0.084699
  23 C :   -0.115697
  24 H :    0.201354
  25 C :   -0.131120
  26 C :   -0.194743
  27 H :    0.196658
  28 H :    0.199808
  29 H :    0.195276
  30 N :   -0.048104
  31 C :   -0.206516
  32 H :    0.163806
  33 H :    0.179489
  34 C :   -0.425955
  35 H :    0.147442
  36 H :    0.154960
  37 H :    0.154299
  38 C :    0.425877
  39 O :   -0.464630
  40 O :   -0.498812
  41 C :   -0.202037
  42 H :    0.179602
  43 H :    0.163142
  44 C :   -0.429982
  45 H :    0.155758
  46 H :    0.155302
  47 H :    0.148138
  48 C :   -0.199456
  49 H :    0.161998
  50 H :    0.179021
  51 C :   -0.204870
  52 H :    0.164249
  53 H :    0.178509
  54 C :   -0.426611
  55 H :    0.154920
  56 H :    0.154292
  57 H :    0.147205
  58 C :   -0.429518
  59 H :    0.147674
  60 H :    0.155318
  61 H :    0.154908
  62 N :   -0.048196
  63 H :    0.415381
Sum of atomic charges:    1.0000000

LOEWDIN ATOMIC CHARGES
----------------------
   0 C :   -0.141450
   1 C :   -0.113289
   2 C :   -0.137667
   3 C :   -0.104011
   4 C :   -0.058364
   5 C :   -0.120314
   6 C :    0.045966
   7 C :   -0.104922
   8 C :   -0.138679
   9 C :   -0.112594
  10 H :    0.170930
  11 C :   -0.142420
  12 C :   -0.119679
  13 C :   -0.059985
  14 H :    0.170923
  15 H :    0.176160
  16 H :    0.167436
  17 H :    0.167570
  18 H :    0.177779
  19 O :    0.367410
  20 C :   -0.054491
  21 C :   -0.081526
  22 C :   -0.093683
  23 C :   -0.107887
  24 H :    0.172464
  25 C :   -0.071250
  26 C :   -0.122798
  27 H :    0.165026
  28 H :    0.169773
  29 H :    0.163479
  30 N :    0.218271
  31 C :   -0.268549
  32 H :    0.142787
  33 H :    0.148119
  34 C :   -0.306077
  35 H :    0.125280
  36 H :    0.128761
  37 H :    0.124464
  38 C :   -0.412705
  39 O :    0.114031
  40 O :    0.017952
  41 C :   -0.268026
  42 H :    0.147931
  43 H :    0.143075
  44 C :   -0.305893
  45 H :    0.128836
  46 H :    0.124565
  47 H :    0.125259
  48 C :   -0.267951
  49 H :    0.142958
  50 H :    0.147823
  51 C :   -0.268587
  52 H :    0.142678
  53 H :    0.147938
  54 C :   -0.306015
  55 H :    0.128666
  56 H :    0.124468
  57 H :    0.125181
  58 C :   -0.305970
  59 H :    0.125198
  60 H :    0.128737
  61 H :    0.124534
  62 N :    0.217666
  63 H :    0.234688

  Mayer bond orders larger than 0.100000
B(  0-C ,  1-C ) :   1.2081 B(  0-C ,  5-C ) :   1.1110 B(  0-C , 30-N ) :   1.4173
B(  1-C ,  2-C ) :   1.5684 B(  1-C , 14-H ) :   0.9279 B(  2-C ,  3-C ) :   1.2695
B(  2-C , 19-O ) :   1.0931 B(  3-C ,  4-C ) :   1.1426 B(  3-C ,  6-C ) :   1.2298
B(  4-C ,  5-C ) :   1.7310 B(  4-C , 15-H ) :   0.9421 B(  5-C , 16-H ) :   0.9511
B(  6-C ,  7-C ) :   1.1846 B(  6-C , 20-C ) :   0.6446 B(  6-C , 21-C ) :  -0.1354
B(  7-C ,  8-C ) :   1.3035 B(  7-C , 13-C ) :   1.1145 B(  8-C ,  9-C ) :   1.5735
B(  8-C , 19-O ) :   1.0905 B(  9-C , 10-H ) :   0.9258 B(  9-C , 11-C ) :   1.2178
B( 11-C , 12-C ) :   1.1202 B( 11-C , 62-N ) :   1.4171 B( 12-C , 13-C ) :   1.7403
B( 12-C , 17-H ) :   0.9516 B( 13-C , 18-H ) :   0.9408 B( 20-C , 21-C ) :   1.4725
B( 20-C , 22-C ) :   1.3159 B( 21-C , 23-C ) :   1.4183 B( 21-C , 24-H ) :   0.9705
B( 22-C , 25-C ) :   1.4080 B( 22-C , 38-C ) :   1.0120 B( 23-C , 26-C ) :   1.3831
B( 23-C , 27-H ) :   0.9696 B( 25-C , 26-C ) :   1.3978 B( 25-C , 28-H ) :   0.9608
B( 26-C , 29-H ) :   0.9716 B( 30-N , 31-C ) :   0.8629 B( 30-N , 41-C ) :   0.8664
B( 31-C , 32-H ) :   0.9633 B( 31-C , 33-H ) :   0.9577 B( 31-C , 34-C ) :   0.9742
B( 34-C , 35-H ) :   0.9679 B( 34-C , 36-H ) :   0.9754 B( 34-C , 37-H ) :   0.9762
B( 38-C , 39-O ) :   1.2702 B( 38-C , 40-O ) :   1.9301 B( 39-O , 63-H ) :   0.8030
B( 41-C , 42-H ) :   0.9575 B( 41-C , 43-H ) :   0.9619 B( 41-C , 44-C ) :   0.9719
B( 44-C , 45-H ) :   0.9753 B( 44-C , 46-H ) :   0.9767 B( 44-C , 47-H ) :   0.9680
B( 48-C , 49-H ) :   0.9607 B( 48-C , 50-H ) :   0.9578 B( 48-C , 58-C ) :   0.9728
B( 48-C , 62-N ) :   0.8667 B( 51-C , 52-H ) :   0.9625 B( 51-C , 53-H ) :   0.9586
B( 51-C , 54-C ) :   0.9735 B( 51-C , 62-N ) :   0.8644 B( 54-C , 55-H ) :   0.9756
B( 54-C , 56-H ) :   0.9752 B( 54-C , 57-H ) :   0.9686 B( 58-C , 59-H ) :   0.9686
B( 58-C , 60-H ) :   0.9751 B( 58-C , 61-H ) :   0.9764

MP2 TOTAL ENERGY:    -1420.139515863 Eh

-----------------------------------------------------------------------------
         ABSORPTION SPECTRUM VIA TRANSITION ELECTRIC DIPOLE MOMENTS
-----------------------------------------------------------------------------
State   Energy    Wavelength  fosc         T2        TX        TY        TZ
        (cm-1)      (nm)                 (au**2)    (au)      (au)      (au)
-----------------------------------------------------------------------------
   1   19426.7    514.8   1.088453161  18.44536  -4.26251   0.41599   0.32146
   2   26905.6    371.7   0.008561921   0.10476   0.05179   0.31549  -0.05049
   3   32772.9    305.1   0.481795203   4.83975  -0.34478  -2.15875   0.24631
   4   35723.0    279.9   0.004435784   0.04088  -0.12255   0.13847  -0.08178
   5   36249.1    275.9   0.130464927   1.18487  -0.36313  -0.99874   0.23563
   6   38463.6    260.0   0.060741341   0.51989   0.15589   0.60620   0.35792
   7   38298.3    261.1   0.194077098   1.66828  -0.12593  -1.19696   0.46874
   8   37576.8    266.1   0.088404845   0.77452   0.47341  -0.72143   0.17305
   9   42947.4    232.8   0.082010755   0.62865  -0.26242  -0.00669  -0.74816
  10   40027.0    249.8   0.022276524   0.18322  -0.12789  -0.40253  -0.06954
  11   40578.9    246.4   0.083237003   0.67529   0.57003  -0.59084   0.03560
  12   40146.2    249.1   0.014823907   0.12156  -0.10066   0.31979  -0.09571
  13   44790.0    223.3   0.003406325   0.02504   0.12007  -0.09744   0.03355
  14   44159.3    226.5   1.015352534   7.56956  -2.74088   0.20538   0.12230
  15   48131.4    207.8   0.278833135   1.90718  -1.32483   0.35856  -0.15313
  16   46790.1    213.7   0.157628125   1.10906  -0.11649   0.00707  -1.04663
  17   49983.4    200.1   0.571353211   3.76318  -0.19912   1.45336  -1.26936
  18   49578.6    201.7   0.590851312   3.92337  -0.71395  -1.78417  -0.47997
  19   49807.0    200.8   0.011342217   0.07497   0.19754   0.16130  -0.09964
  20   47925.3    208.7   0.039020035   0.26804  -0.16855  -0.07834  -0.48321
  21   45712.4    218.8   0.098350224   0.70830   0.81807  -0.06048   0.18814
  22   49739.3    201.0   0.024619770   0.16295   0.00783   0.40256   0.02889
  23   51966.3    192.4   0.006696345   0.04242  -0.02412   0.18230   0.09277
  24   49258.7    203.0   0.002748372   0.01837   0.10181   0.03328   0.08305
  25   50755.8    197.0   0.018021931   0.11689   0.28206   0.06680   0.18131
  26   51219.7    195.2   0.017502016   0.11249  -0.01634   0.33498  -0.00352
  27   56509.6    177.0   0.069066643   0.40237  -0.14366   0.11053   0.60788
  28   53118.4    188.3   0.000444474   0.00275  -0.00806  -0.03956  -0.03353
  29   52495.5    190.5   0.032282043   0.20245   0.10018  -0.43758   0.03060
  30   57403.1    174.2   0.014425914   0.08273   0.05530   0.28009  -0.03500

FINAL SINGLE POINT ENERGY     -1417.179078341018

DIPOLE MOMENT
-------------
                                X             Y             Z
Electronic contribution:      4.32923      26.93595       0.85701
Nuclear contribution   :     -5.50816     -28.80400      -1.77419
                        -----------------------------------------
Total Dipole Moment    :     -1.17894      -1.86805      -0.91718
                        -----------------------------------------
Magnitude (a.u.)       :      2.39180
Magnitude (Debye)      :      6.07948

Rotational constants in cm-1:     0.004956     0.002893     0.002031
Rotational constants in MHz :   148.564582    86.741091    60.886448

                             ****ORCA TERMINATED NORMALLY****
TOTAL RUN TIME: 0 days 14 hours 11 minutes 6 seconds 153 msec
