                         Program Version 5.0.2 -  RELEASE  -
|  1> %maxcore 19200
|  2> %pal
|  3>  nprocs= 8
|  4> end
|  5> ! RI-wB2PLYP def2-TZVP def2/J def2-TZVP/C RIJCOSX CPCM TightSCF
|  6> %TDDFT DCORR 1
|  7>    NROOTS   30
|  8>   TDA      FALSE
|  9> END
| 10>
| 11>  %CPCM
| 12>    SMD          TRUE
| 13>    SMDsolvent   "ETHANOL"
| 14>  END
| 15>
| 16>
| 17> * xyz 1 1
| 18> C                  -3.84267000   -0.92047200    0.05894500
| 19> C                  -2.63140600   -1.64154100    0.02698200
| 20> C                  -1.44451500   -0.98320300   -0.16527300
| 21> C                  -1.35747000    0.41898600   -0.34874900
| 22> C                  -2.58344000    1.12590400   -0.30249800
| 23> C                  -3.77274200    0.49647600   -0.10979100
| 24> C                  -0.10153800    1.01377800   -0.52398600
| 25> C                   1.04141100    0.20174500   -0.51394500
| 26> C                   0.90082300   -1.19349000   -0.31440700
| 27> C                   1.96520000   -2.05709900   -0.27996900
| 28> H                   1.76164300   -3.10760500   -0.13995700
| 29> C                   3.27758200   -1.56937100   -0.44416300
| 30> C                   3.43762900   -0.16648200   -0.65863700
| 31> C                   2.36564200    0.66915700   -0.69356500
| 32> H                  -2.59955700   -2.70986000    0.17692700
| 33> H                  -2.56812100    2.20095000   -0.42639900
| 34> H                  -4.67721800    1.08529100   -0.09723800
| 35> H                   4.42535200    0.24835000   -0.78882700
| 36> H                   2.52930600    1.72568900   -0.86331100
| 37> O                  -0.32598700   -1.74921200   -0.15541900
| 38> C                   0.00981900    2.46809200   -0.77544500
| 39> C                  -0.44694900    2.94685700   -2.00238800
| 40> C                   0.60787100    3.37133300    0.11850100
| 41> C                  -0.31107700    4.28150800   -2.34586700
| 42> H                  -0.89891900    2.25214100   -2.69946600
| 43> C                   0.75239800    4.70851500   -0.24699800
| 44> C                   0.29374200    5.16693100   -1.46704100
| 45> H                  -0.67428000    4.62614800   -3.30558500
| 46> H                   1.21788400    5.38614300    0.45689800
| 47> H                   0.40406600    6.21073100   -1.72991600
| 48> N                  -5.02463500   -1.53894000    0.24539200
| 49> C                  -6.27907000   -0.80390300    0.39621600
| 50> H                  -6.09494400    0.11515600    0.95088300
| 51> H                  -6.92276200   -1.41377600    1.03077700
| 52> C                  -6.95690100   -0.52106400   -0.92532000
| 53> H                  -7.16734100   -1.44515000   -1.46396100
| 54> H                  -7.90276700   -0.00556200   -0.76303300
| 55> H                  -6.33610900    0.10664900   -1.56454100
| 56> C                   1.09695900    2.99900700    1.46614100
| 57> O                   0.45496900    1.95125100    1.99406900
| 58> O                   1.97054600    3.59992600    2.05443100
| 59> C                  -5.13158100   -2.99329900    0.32504900
| 60> H                  -6.12485000   -3.25533400   -0.04034500
| 61> H                  -4.42483600   -3.44287200   -0.37194400
| 62> C                  -4.92918100   -3.52146600    1.72790700
| 63> H                  -5.04218000   -4.60475800    1.74436800
| 64> H                  -3.93553000   -3.28036300    2.10522500
| 65> H                  -5.66160900   -3.09790100    2.41519400
| 66> C                   4.21334300   -3.81278200   -0.09371200
| 67> H                   3.42748000   -3.94672400    0.64904500
| 68> H                   5.14243500   -4.11559600    0.39029200
| 69> C                   5.70542000   -1.92199500   -0.65616200
| 70> H                   5.68810200   -1.16500500   -1.43905300
| 71> H                   6.25482300   -2.76810400   -1.06939200
| 72> C                   6.39023400   -1.40746700    0.58995800
| 73> H                   7.41129100   -1.10327000    0.36274800
| 74> H                   5.86659200   -0.54658500    1.00562500
| 75> H                   6.43395700   -2.17805400    1.35975400
| 76> C                   3.95721900   -4.65970100   -1.32035700
| 77> H                   4.76331500   -4.55172800   -2.04621000
| 78> H                   3.89253500   -5.71207400   -1.04661200
| 79> H                   3.02432800   -4.38115600   -1.81026300
| 80> N                   4.34439700   -2.39113500   -0.40265000
| 81> H                   0.83803600    1.77002800    2.86802500
| 82> *
| 83>
| 84>
| 85>
| 86>
| 87>
| 88>                          ****END OF INPUT****

CARTESIAN COORDINATES (ANGSTROEM)
---------------------------------
  C     -3.842670   -0.920472    0.058945
  C     -2.631406   -1.641541    0.026982
  C     -1.444515   -0.983203   -0.165273
  C     -1.357470    0.418986   -0.348749
  C     -2.583440    1.125904   -0.302498
  C     -3.772742    0.496476   -0.109791
  C     -0.101538    1.013778   -0.523986
  C      1.041411    0.201745   -0.513945
  C      0.900823   -1.193490   -0.314407
  C      1.965200   -2.057099   -0.279969
  H      1.761643   -3.107605   -0.139957
  C      3.277582   -1.569371   -0.444163
  C      3.437629   -0.166482   -0.658637
  C      2.365642    0.669157   -0.693565
  H     -2.599557   -2.709860    0.176927
  H     -2.568121    2.200950   -0.426399
  H     -4.677218    1.085291   -0.097238
  H      4.425352    0.248350   -0.788827
  H      2.529306    1.725689   -0.863311
  O     -0.325987   -1.749212   -0.155419
  C      0.009819    2.468092   -0.775445
  C     -0.446949    2.946857   -2.002388
  C      0.607871    3.371333    0.118501
  C     -0.311077    4.281508   -2.345867
  H     -0.898919    2.252141   -2.699466
  C      0.752398    4.708515   -0.246998
  C      0.293742    5.166931   -1.467041
  H     -0.674280    4.626148   -3.305585
  H      1.217884    5.386143    0.456898
  H      0.404066    6.210731   -1.729916
  N     -5.024635   -1.538940    0.245392
  C     -6.279070   -0.803903    0.396216
  H     -6.094944    0.115156    0.950883
  H     -6.922762   -1.413776    1.030777
  C     -6.956901   -0.521064   -0.925320
  H     -7.167341   -1.445150   -1.463961
  H     -7.902767   -0.005562   -0.763033
  H     -6.336109    0.106649   -1.564541
  C      1.096959    2.999007    1.466141
  O      0.454969    1.951251    1.994069
  O      1.970546    3.599926    2.054431
  C     -5.131581   -2.993299    0.325049
  H     -6.124850   -3.255334   -0.040345
  H     -4.424836   -3.442872   -0.371944
  C     -4.929181   -3.521466    1.727907
  H     -5.042180   -4.604758    1.744368
  H     -3.935530   -3.280363    2.105225
  H     -5.661609   -3.097901    2.415194
  C      4.213343   -3.812782   -0.093712
  H      3.427480   -3.946724    0.649045
  H      5.142435   -4.115596    0.390292
  C      5.705420   -1.921995   -0.656162
  H      5.688102   -1.165005   -1.439053
  H      6.254823   -2.768104   -1.069392
  C      6.390234   -1.407467    0.589958
  H      7.411291   -1.103270    0.362748
  H      5.866592   -0.546585    1.005625
  H      6.433957   -2.178054    1.359754
  C      3.957219   -4.659701   -1.320357
  H      4.763315   -4.551728   -2.046210
  H      3.892535   -5.712074   -1.046612
  H      3.024328   -4.381156   -1.810263
  N      4.344397   -2.391135   -0.402650
  H      0.838036    1.770028    2.868025

 Total Charge           Charge          ....    1
 Multiplicity           Mult            ....    1
 Number of Electrons    NEL             ....  236
 Basis Dimension        Dim             .... 1209

ORBITAL ENERGIES
----------------

  NO   OCC          E(Eh)            E(eV)
   0   2.0000     -19.889249      -541.2140
   1   2.0000     -19.858077      -540.3657
   2   2.0000     -19.803807      -538.8890
   3   2.0000     -14.945803      -406.6960
   4   2.0000     -14.945218      -406.6801
   5   2.0000     -10.852790      -295.3194
   6   2.0000     -10.794997      -293.7468
   7   2.0000     -10.794636      -293.7370
   8   2.0000     -10.771195      -293.0991
   9   2.0000     -10.771089      -293.0962
  10   2.0000     -10.770623      -293.0836
  11   2.0000     -10.734696      -292.1059
  12   2.0000     -10.726275      -291.8768
  13   2.0000     -10.717963      -291.6506
  14   2.0000     -10.717816      -291.6466
  15   2.0000     -10.715619      -291.5868
  16   2.0000     -10.715544      -291.5848
  17   2.0000     -10.715259      -291.5770
  18   2.0000     -10.714993      -291.5698
  19   2.0000     -10.714908      -291.5675
  20   2.0000     -10.714774      -291.5638
  21   2.0000     -10.709532      -291.4212
  22   2.0000     -10.708017      -291.3800
  23   2.0000     -10.706807      -291.3470
  24   2.0000     -10.702021      -291.2168
  25   2.0000     -10.697091      -291.0826
  26   2.0000     -10.697000      -291.0802
  27   2.0000     -10.691383      -290.9273
  28   2.0000     -10.691308      -290.9253
  29   2.0000     -10.667546      -290.2787
  30   2.0000     -10.667489      -290.2771
  31   2.0000     -10.667443      -290.2759
  32   2.0000     -10.667240      -290.2704
  33   2.0000      -1.365014       -37.1439
  34   2.0000      -1.356090       -36.9011
  35   2.0000      -1.257269       -34.2120
  36   2.0000      -1.189619       -32.3712
  37   2.0000      -1.188947       -32.3529
  38   2.0000      -1.117288       -30.4030
  39   2.0000      -1.091080       -29.6898
  40   2.0000      -1.083766       -29.4908
  41   2.0000      -1.032283       -28.0899
  42   2.0000      -0.995331       -27.0843
  43   2.0000      -0.983343       -26.7581
  44   2.0000      -0.975516       -26.5451
  45   2.0000      -0.973326       -26.4855
  46   2.0000      -0.968242       -26.3472
  47   2.0000      -0.966012       -26.2865
  48   2.0000      -0.946627       -25.7590
  49   2.0000      -0.930949       -25.3324
  50   2.0000      -0.909505       -24.7489
  51   2.0000      -0.868803       -23.6413
  52   2.0000      -0.851991       -23.1839
  53   2.0000      -0.848920       -23.1003
  54   2.0000      -0.831677       -22.6311
  55   2.0000      -0.821129       -22.3441
  56   2.0000      -0.814790       -22.1716
  57   2.0000      -0.798081       -21.7169
  58   2.0000      -0.784373       -21.3439
  59   2.0000      -0.776864       -21.1395
  60   2.0000      -0.769501       -20.9392
  61   2.0000      -0.763588       -20.7783
  62   2.0000      -0.713114       -19.4048
  63   2.0000      -0.712188       -19.3796
  64   2.0000      -0.704015       -19.1572
  65   2.0000      -0.686349       -18.6765
  66   2.0000      -0.675627       -18.3847
  67   2.0000      -0.670984       -18.2584
  68   2.0000      -0.662955       -18.0399
  69   2.0000      -0.656020       -17.8512
  70   2.0000      -0.646662       -17.5966
  71   2.0000      -0.645212       -17.5571
  72   2.0000      -0.641541       -17.4572
  73   2.0000      -0.630134       -17.1468
  74   2.0000      -0.623433       -16.9645
  75   2.0000      -0.612506       -16.6671
  76   2.0000      -0.605243       -16.4695
  77   2.0000      -0.603081       -16.4107
  78   2.0000      -0.602364       -16.3912
  79   2.0000      -0.598405       -16.2834
  80   2.0000      -0.585386       -15.9292
  81   2.0000      -0.581765       -15.8306
  82   2.0000      -0.573426       -15.6037
  83   2.0000      -0.572827       -15.5874
  84   2.0000      -0.569835       -15.5060
  85   2.0000      -0.568825       -15.4785
  86   2.0000      -0.566777       -15.4228
  87   2.0000      -0.562295       -15.3008
  88   2.0000      -0.557755       -15.1773
  89   2.0000      -0.538053       -14.6412
  90   2.0000      -0.537207       -14.6181
  91   2.0000      -0.524154       -14.2629
  92   2.0000      -0.523675       -14.2499
  93   2.0000      -0.520271       -14.1573
  94   2.0000      -0.520168       -14.1545
  95   2.0000      -0.515281       -14.0215
  96   2.0000      -0.508246       -13.8301
  97   2.0000      -0.505241       -13.7483
  98   2.0000      -0.503641       -13.7048
  99   2.0000      -0.501818       -13.6552
 100   2.0000      -0.497758       -13.5447
 101   2.0000      -0.489449       -13.3186
 102   2.0000      -0.482955       -13.1419
 103   2.0000      -0.477035       -12.9808
 104   2.0000      -0.476189       -12.9578
 105   2.0000      -0.473520       -12.8851
 106   2.0000      -0.472559       -12.8590
 107   2.0000      -0.463434       -12.6107
 108   2.0000      -0.460451       -12.5295
 109   2.0000      -0.452718       -12.3191
 110   2.0000      -0.445562       -12.1244
 111   2.0000      -0.422426       -11.4948
 112   2.0000      -0.388066       -10.5598
 113   2.0000      -0.373887       -10.1740
 114   2.0000      -0.370376       -10.0784
 115   2.0000      -0.353071        -9.6076
 116   2.0000      -0.333088        -9.0638
 117   2.0000      -0.284514        -7.7420
 118   0.0000      -0.025445        -0.6924
 119   0.0000       0.031098         0.8462
 120   0.0000       0.061006         1.6601
 121   0.0000       0.072614         1.9759
 122   0.0000       0.086804         2.3620

MULLIKEN ATOMIC CHARGES
-----------------------
   0 C :    0.346907
   1 C :   -0.384268
   2 C :    0.250698
   3 C :    0.035102
   4 C :   -0.262319
   5 C :   -0.292472
   6 C :    0.311652
   7 C :    0.083181
   8 C :    0.221379
   9 C :   -0.363644
  10 H :    0.188324
  11 C :    0.327507
  12 C :   -0.278838
  13 C :   -0.302758
  14 H :    0.188540
  15 H :    0.211306
  16 H :    0.193732
  17 H :    0.193988
  18 H :    0.218581
  19 O :   -0.245931
  20 C :   -0.033954
  21 C :   -0.300784
  22 C :   -0.074327
  23 C :   -0.121585
  24 H :    0.193676
  25 C :   -0.134798
  26 C :   -0.183512
  27 H :    0.191923
  28 H :    0.190803
  29 H :    0.190108
  30 N :   -0.058733
  31 C :   -0.189823
  32 H :    0.156688
  33 H :    0.169386
  34 C :   -0.402114
  35 H :    0.140364
  36 H :    0.146102
  37 H :    0.144981
  38 C :    0.390669
  39 O :   -0.444503
  40 O :   -0.454427
  41 C :   -0.186474
  42 H :    0.169547
  43 H :    0.156008
  44 C :   -0.405655
  45 H :    0.146800
  46 H :    0.145975
  47 H :    0.141043
  48 C :   -0.183920
  49 H :    0.154802
  50 H :    0.168932
  51 C :   -0.188490
  52 H :    0.157099
  53 H :    0.168464
  54 C :   -0.402893
  55 H :    0.146112
  56 H :    0.145050
  57 H :    0.140246
  58 C :   -0.405209
  59 H :    0.140634
  60 H :    0.146420
  61 H :    0.145649
  62 N :   -0.059422
  63 H :    0.402470
Sum of atomic charges:    1.0000000

LOEWDIN ATOMIC CHARGES
----------------------
   0 C :   -0.139882
   1 C :   -0.113109
   2 C :   -0.139616
   3 C :   -0.101258
   4 C :   -0.058786
   5 C :   -0.118760
   6 C :    0.046784
   7 C :   -0.102257
   8 C :   -0.140613
   9 C :   -0.112446
  10 H :    0.168762
  11 C :   -0.140834
  12 C :   -0.118225
  13 C :   -0.060210
  14 H :    0.168762
  15 H :    0.174385
  16 H :    0.165630
  17 H :    0.165768
  18 H :    0.176062
  19 O :    0.373345
  20 C :   -0.051633
  21 C :   -0.080660
  22 C :   -0.091815
  23 C :   -0.108314
  24 H :    0.170314
  25 C :   -0.072004
  26 C :   -0.122430
  27 H :    0.162983
  28 H :    0.167547
  29 H :    0.161464
  30 N :    0.221634
  31 C :   -0.266523
  32 H :    0.141647
  33 H :    0.146770
  34 C :   -0.304497
  35 H :    0.124147
  36 H :    0.127502
  37 H :    0.123460
  38 C :   -0.420298
  39 O :    0.120293
  40 O :    0.025925
  41 C :   -0.265962
  42 H :    0.146583
  43 H :    0.141917
  44 C :   -0.304311
  45 H :    0.127581
  46 H :    0.123572
  47 H :    0.124128
  48 C :   -0.265885
  49 H :    0.141804
  50 H :    0.146474
  51 C :   -0.266568
  52 H :    0.141537
  53 H :    0.146596
  54 C :   -0.304472
  55 H :    0.127422
  56 H :    0.123482
  57 H :    0.124071
  58 C :   -0.304392
  59 H :    0.124070
  60 H :    0.127483
  61 H :    0.123530
  62 N :    0.221026
  63 H :    0.231296

  Mayer bond orders larger than 0.100000
B(  0-C ,  1-C ) :   1.2367 B(  0-C ,  5-C ) :   1.1188 B(  0-C , 30-N ) :   1.3945
B(  1-C ,  2-C ) :   1.5924 B(  1-C , 14-H ) :   0.9231 B(  2-C ,  3-C ) :   1.2421
B(  2-C , 19-O ) :   1.0858 B(  3-C ,  4-C ) :   1.1442 B(  3-C ,  6-C ) :   1.2237
B(  4-C ,  5-C ) :   1.7379 B(  4-C , 15-H ) :   0.9408 B(  5-C , 16-H ) :   0.9505
B(  6-C ,  7-C ) :   1.1763 B(  6-C , 20-C ) :   0.6930 B(  7-C ,  8-C ) :   1.2698
B(  7-C , 13-C ) :   1.1186 B(  8-C ,  9-C ) :   1.5954 B(  8-C , 19-O ) :   1.0840
B(  9-C , 10-H ) :   0.9215 B(  9-C , 11-C ) :   1.2435 B( 11-C , 12-C ) :   1.1271
B( 11-C , 62-N ) :   1.3942 B( 12-C , 13-C ) :   1.7407 B( 12-C , 17-H ) :   0.9510
B( 13-C , 18-H ) :   0.9411 B( 20-C , 21-C ) :   1.4445 B( 20-C , 22-C ) :   1.3090
B( 21-C , 23-C ) :   1.4207 B( 21-C , 24-H ) :   0.9721 B( 22-C , 25-C ) :   1.3946
B( 22-C , 38-C ) :   0.9876 B( 23-C , 26-C ) :   1.3885 B( 23-C , 27-H ) :   0.9687
B( 25-C , 26-C ) :   1.4058 B( 25-C , 28-H ) :   0.9623 B( 26-C , 29-H ) :   0.9701
B( 30-N , 31-C ) :   0.8601 B( 30-N , 41-C ) :   0.8633 B( 31-C , 32-H ) :   0.9727
B( 31-C , 33-H ) :   0.9665 B( 31-C , 34-C ) :   0.9498 B( 34-C , 35-H ) :   0.9730
B( 34-C , 36-H ) :   0.9802 B( 34-C , 37-H ) :   0.9797 B( 38-C , 39-O ) :   1.2845
B( 38-C , 40-O ) :   1.9901 B( 39-O , 63-H ) :   0.8130 B( 41-C , 42-H ) :   0.9662
B( 41-C , 43-H ) :   0.9715 B( 41-C , 44-C ) :   0.9481 B( 44-C , 45-H ) :   0.9801
B( 44-C , 46-H ) :   0.9803 B( 44-C , 47-H ) :   0.9731 B( 48-C , 49-H ) :   0.9705
B( 48-C , 50-H ) :   0.9665 B( 48-C , 58-C ) :   0.9490 B( 48-C , 62-N ) :   0.8634
B( 51-C , 52-H ) :   0.9720 B( 51-C , 53-H ) :   0.9674 B( 51-C , 54-C ) :   0.9490
B( 51-C , 62-N ) :   0.8615 B( 54-C , 55-H ) :   0.9803 B( 54-C , 56-H ) :   0.9789
B( 54-C , 57-H ) :   0.9736 B( 58-C , 59-H ) :   0.9736 B( 58-C , 60-H ) :   0.9800
B( 58-C , 61-H ) :   0.9799

MP2 TOTAL ENERGY:    -1418.479474105 Eh

-----------------------------------------------------------------------------
         ABSORPTION SPECTRUM VIA TRANSITION ELECTRIC DIPOLE MOMENTS
-----------------------------------------------------------------------------
State   Energy    Wavelength  fosc         T2        TX        TY        TZ
        (cm-1)      (nm)                 (au**2)    (au)      (au)      (au)
-----------------------------------------------------------------------------
   1   21299.0    469.5   1.191291309  18.41344   4.25889  -0.41425  -0.32204
   2   29836.1    335.2   0.009802329   0.10816  -0.05023  -0.32098   0.05106
   3   35070.4    285.1   0.505649993   4.74663   0.33758   2.13861  -0.24293
   4   37645.3    265.6   0.006580936   0.05755  -0.17757   0.14586  -0.06887
   5   38655.3    258.7   0.159270600   1.35645   0.35663   1.08265  -0.23904
   6   40029.6    249.8   0.098293441   0.80839  -0.15463  -0.84869  -0.25338
   7   40976.9    244.0   0.190886545   1.53360  -0.03621  -1.11389   0.53994
   8   40678.4    245.8   0.068033904   0.55060   0.52380  -0.51227   0.11751
   9   44149.1    226.5   0.090866987   0.67758  -0.27326   0.06279  -0.77393
  10   43131.3    231.9   0.028789146   0.21974  -0.24209  -0.39573  -0.06735
  11   43681.6    228.9   0.100557213   0.75786  -0.59441   0.63163   0.07468
  12   43781.2    228.4   0.013443655   0.10109  -0.09085   0.23956  -0.18828
  13   46267.9    216.1   0.029217094   0.20789   0.38548  -0.23142   0.07573
  14   46650.9    214.4   0.995028743   7.02184   2.64356  -0.15379  -0.09893
  15   50185.5    199.3   0.352813674   2.31442   1.48316  -0.33535   0.04672
  16   50552.4    197.8   0.289125323   1.88287   0.29415  -0.20167   1.32502
  17   51558.1    194.0   0.535476332   3.41915  -0.03886   1.64403  -0.84547
  18   50733.8    197.1   0.225494513   1.46324  -0.36601  -1.14708  -0.11610
  19   51528.7    194.1   0.291862175   1.86468   0.58778   1.00206   0.71768
  20   52267.6    191.3   0.056218448   0.35410  -0.10779  -0.47153   0.34660
  21   54825.9    182.4   0.006914212   0.04152  -0.11067   0.12498  -0.11684
  22   51170.8    195.4   0.085712527   0.55144   0.71908  -0.05518   0.17697
  23   52255.9    191.4   0.013070225   0.08234   0.06066   0.28009   0.01452
  24   56630.9    176.6   0.064188526   0.37315   0.19337  -0.10764  -0.56936
  25   53546.0    186.8   0.000823262   0.00506   0.04001  -0.00487   0.05863
  26   54655.2    183.0   0.027290308   0.16438  -0.26210  -0.24834  -0.18442
  27   55378.5    180.6   0.008571813   0.05096  -0.08574   0.20879   0.00363
  28   56253.5    177.8   0.000865538   0.00507  -0.02162  -0.05097  -0.04472
  29   58229.5    171.7   0.004071504   0.02302   0.07217   0.13327  -0.00711
  30   56181.3    178.0   0.044579796   0.26123   0.10213  -0.49877   0.04505

FINAL SINGLE POINT ENERGY     -1416.739292146663

DIPOLE MOMENT
-------------
                                X             Y             Z
Electronic contribution:      4.34044      26.93160       0.87585
Nuclear contribution   :     -5.50816     -28.80400      -1.77419
                        -----------------------------------------
Total Dipole Moment    :     -1.16772      -1.87240      -0.89834
                        -----------------------------------------
Magnitude (a.u.)       :      2.38253
Magnitude (Debye)      :      6.05592

Rotational constants in cm-1:     0.004956     0.002893     0.002031
Rotational constants in MHz :   148.564582    86.741091    60.886448

                             ****ORCA TERMINATED NORMALLY****
TOTAL RUN TIME: 0 days 3 hours 8 minutes 26 seconds 495 msec
