                         Program Version 5.0.2 -  RELEASE  -
|  1> %maxcore 20000
|  2> %pal
|  3>  nprocs= 4
|  4> end
|  5> ! RI-DSD-BLYP D3BJ def2-TZVP def2/J def2-TZVP/C RIJCOSX CPCM TightSCF
|  6> %TDDFT
|  7>    NROOTS   30
|  8>    dcorr 4
|  9>    doscs true
| 10>    scspar 0.333, 1.2, 0.43, 1.24
| 11>    TDA      FALSE
| 12> END
| 13>
| 14>  %CPCM
| 15>    SMD          TRUE
| 16>    SMDsolvent   "ETHANOL"
| 17>  END
| 18>
| 19>
| 20> * xyz 1 1
| 21> C                  -3.84267000   -0.92047200    0.05894500
| 22> C                  -2.63140600   -1.64154100    0.02698200
| 23> C                  -1.44451500   -0.98320300   -0.16527300
| 24> C                  -1.35747000    0.41898600   -0.34874900
| 25> C                  -2.58344000    1.12590400   -0.30249800
| 26> C                  -3.77274200    0.49647600   -0.10979100
| 27> C                  -0.10153800    1.01377800   -0.52398600
| 28> C                   1.04141100    0.20174500   -0.51394500
| 29> C                   0.90082300   -1.19349000   -0.31440700
| 30> C                   1.96520000   -2.05709900   -0.27996900
| 31> H                   1.76164300   -3.10760500   -0.13995700
| 32> C                   3.27758200   -1.56937100   -0.44416300
| 33> C                   3.43762900   -0.16648200   -0.65863700
| 34> C                   2.36564200    0.66915700   -0.69356500
| 35> H                  -2.59955700   -2.70986000    0.17692700
| 36> H                  -2.56812100    2.20095000   -0.42639900
| 37> H                  -4.67721800    1.08529100   -0.09723800
| 38> H                   4.42535200    0.24835000   -0.78882700
| 39> H                   2.52930600    1.72568900   -0.86331100
| 40> O                  -0.32598700   -1.74921200   -0.15541900
| 41> C                   0.00981900    2.46809200   -0.77544500
| 42> C                  -0.44694900    2.94685700   -2.00238800
| 43> C                   0.60787100    3.37133300    0.11850100
| 44> C                  -0.31107700    4.28150800   -2.34586700
| 45> H                  -0.89891900    2.25214100   -2.69946600
| 46> C                   0.75239800    4.70851500   -0.24699800
| 47> C                   0.29374200    5.16693100   -1.46704100
| 48> H                  -0.67428000    4.62614800   -3.30558500
| 49> H                   1.21788400    5.38614300    0.45689800
| 50> H                   0.40406600    6.21073100   -1.72991600
| 51> N                  -5.02463500   -1.53894000    0.24539200
| 52> C                  -6.27907000   -0.80390300    0.39621600
| 53> H                  -6.09494400    0.11515600    0.95088300
| 54> H                  -6.92276200   -1.41377600    1.03077700
| 55> C                  -6.95690100   -0.52106400   -0.92532000
| 56> H                  -7.16734100   -1.44515000   -1.46396100
| 57> H                  -7.90276700   -0.00556200   -0.76303300
| 58> H                  -6.33610900    0.10664900   -1.56454100
| 59> C                   1.09695900    2.99900700    1.46614100
| 60> O                   0.45496900    1.95125100    1.99406900
| 61> O                   1.97054600    3.59992600    2.05443100
| 62> C                  -5.13158100   -2.99329900    0.32504900
| 63> H                  -6.12485000   -3.25533400   -0.04034500
| 64> H                  -4.42483600   -3.44287200   -0.37194400
| 65> C                  -4.92918100   -3.52146600    1.72790700
| 66> H                  -5.04218000   -4.60475800    1.74436800
| 67> H                  -3.93553000   -3.28036300    2.10522500
| 68> H                  -5.66160900   -3.09790100    2.41519400
| 69> C                   4.21334300   -3.81278200   -0.09371200
| 70> H                   3.42748000   -3.94672400    0.64904500
| 71> H                   5.14243500   -4.11559600    0.39029200
| 72> C                   5.70542000   -1.92199500   -0.65616200
| 73> H                   5.68810200   -1.16500500   -1.43905300
| 74> H                   6.25482300   -2.76810400   -1.06939200
| 75> C                   6.39023400   -1.40746700    0.58995800
| 76> H                   7.41129100   -1.10327000    0.36274800
| 77> H                   5.86659200   -0.54658500    1.00562500
| 78> H                   6.43395700   -2.17805400    1.35975400
| 79> C                   3.95721900   -4.65970100   -1.32035700
| 80> H                   4.76331500   -4.55172800   -2.04621000
| 81> H                   3.89253500   -5.71207400   -1.04661200
| 82> H                   3.02432800   -4.38115600   -1.81026300
| 83> N                   4.34439700   -2.39113500   -0.40265000
| 84> H                   0.83803600    1.77002800    2.86802500
| 85> *
| 86>
| 87>
| 88>
| 89>
| 90>
| 91>                          ****END OF INPUT****

CARTESIAN COORDINATES (ANGSTROEM)
---------------------------------
  C     -3.842670   -0.920472    0.058945
  C     -2.631406   -1.641541    0.026982
  C     -1.444515   -0.983203   -0.165273
  C     -1.357470    0.418986   -0.348749
  C     -2.583440    1.125904   -0.302498
  C     -3.772742    0.496476   -0.109791
  C     -0.101538    1.013778   -0.523986
  C      1.041411    0.201745   -0.513945
  C      0.900823   -1.193490   -0.314407
  C      1.965200   -2.057099   -0.279969
  H      1.761643   -3.107605   -0.139957
  C      3.277582   -1.569371   -0.444163
  C      3.437629   -0.166482   -0.658637
  C      2.365642    0.669157   -0.693565
  H     -2.599557   -2.709860    0.176927
  H     -2.568121    2.200950   -0.426399
  H     -4.677218    1.085291   -0.097238
  H      4.425352    0.248350   -0.788827
  H      2.529306    1.725689   -0.863311
  O     -0.325987   -1.749212   -0.155419
  C      0.009819    2.468092   -0.775445
  C     -0.446949    2.946857   -2.002388
  C      0.607871    3.371333    0.118501
  C     -0.311077    4.281508   -2.345867
  H     -0.898919    2.252141   -2.699466
  C      0.752398    4.708515   -0.246998
  C      0.293742    5.166931   -1.467041
  H     -0.674280    4.626148   -3.305585
  H      1.217884    5.386143    0.456898
  H      0.404066    6.210731   -1.729916
  N     -5.024635   -1.538940    0.245392
  C     -6.279070   -0.803903    0.396216
  H     -6.094944    0.115156    0.950883
  H     -6.922762   -1.413776    1.030777
  C     -6.956901   -0.521064   -0.925320
  H     -7.167341   -1.445150   -1.463961
  H     -7.902767   -0.005562   -0.763033
  H     -6.336109    0.106649   -1.564541
  C      1.096959    2.999007    1.466141
  O      0.454969    1.951251    1.994069
  O      1.970546    3.599926    2.054431
  C     -5.131581   -2.993299    0.325049
  H     -6.124850   -3.255334   -0.040345
  H     -4.424836   -3.442872   -0.371944
  C     -4.929181   -3.521466    1.727907
  H     -5.042180   -4.604758    1.744368
  H     -3.935530   -3.280363    2.105225
  H     -5.661609   -3.097901    2.415194
  C      4.213343   -3.812782   -0.093712
  H      3.427480   -3.946724    0.649045
  H      5.142435   -4.115596    0.390292
  C      5.705420   -1.921995   -0.656162
  H      5.688102   -1.165005   -1.439053
  H      6.254823   -2.768104   -1.069392
  C      6.390234   -1.407467    0.589958
  H      7.411291   -1.103270    0.362748
  H      5.866592   -0.546585    1.005625
  H      6.433957   -2.178054    1.359754
  C      3.957219   -4.659701   -1.320357
  H      4.763315   -4.551728   -2.046210
  H      3.892535   -5.712074   -1.046612
  H      3.024328   -4.381156   -1.810263
  N      4.344397   -2.391135   -0.402650
  H      0.838036    1.770028    2.868025

 Total Charge           Charge          ....    1
 Multiplicity           Mult            ....    1
 Number of Electrons    NEL             ....  236
 Basis Dimension        Dim             .... 1209

ORBITAL ENERGIES
----------------

  NO   OCC          E(Eh)            E(eV)
   0   2.0000     -20.099715      -546.9411
   1   2.0000     -20.069974      -546.1318
   2   2.0000     -20.014319      -544.6173
   3   2.0000     -15.121256      -411.4703
   4   2.0000     -15.120720      -411.4557
   5   2.0000     -10.993449      -299.1470
   6   2.0000     -10.933818      -297.5243
   7   2.0000     -10.933491      -297.5154
   8   2.0000     -10.910210      -296.8819
   9   2.0000     -10.909667      -296.8671
  10   2.0000     -10.908528      -296.8361
  11   2.0000     -10.873636      -295.8867
  12   2.0000     -10.864957      -295.6505
  13   2.0000     -10.856905      -295.4314
  14   2.0000     -10.856792      -295.4283
  15   2.0000     -10.855699      -295.3986
  16   2.0000     -10.855421      -295.3910
  17   2.0000     -10.855359      -295.3893
  18   2.0000     -10.855213      -295.3854
  19   2.0000     -10.854677      -295.3708
  20   2.0000     -10.854644      -295.3699
  21   2.0000     -10.849347      -295.2257
  22   2.0000     -10.847645      -295.1794
  23   2.0000     -10.846589      -295.1507
  24   2.0000     -10.841722      -295.0182
  25   2.0000     -10.836292      -294.8705
  26   2.0000     -10.836208      -294.8682
  27   2.0000     -10.830840      -294.7221
  28   2.0000     -10.830772      -294.7203
  29   2.0000     -10.808117      -294.1038
  30   2.0000     -10.808071      -294.1026
  31   2.0000     -10.808025      -294.1013
  32   2.0000     -10.807830      -294.0960
  33   2.0000      -1.352400       -36.8007
  34   2.0000      -1.344567       -36.5875
  35   2.0000      -1.245257       -33.8852
  36   2.0000      -1.169881       -31.8341
  37   2.0000      -1.169238       -31.8166
  38   2.0000      -1.093414       -29.7533
  39   2.0000      -1.066416       -29.0187
  40   2.0000      -1.059721       -28.8365
  41   2.0000      -1.006280       -27.3823
  42   2.0000      -0.968398       -26.3514
  43   2.0000      -0.957176       -26.0461
  44   2.0000      -0.948757       -25.8170
  45   2.0000      -0.946160       -25.7463
  46   2.0000      -0.941870       -25.6296
  47   2.0000      -0.939019       -25.5520
  48   2.0000      -0.920322       -25.0432
  49   2.0000      -0.903531       -24.5863
  50   2.0000      -0.881970       -23.9996
  51   2.0000      -0.839998       -22.8575
  52   2.0000      -0.821914       -22.3654
  53   2.0000      -0.817945       -22.2574
  54   2.0000      -0.800285       -21.7769
  55   2.0000      -0.790450       -21.5092
  56   2.0000      -0.783946       -21.3322
  57   2.0000      -0.766946       -20.8697
  58   2.0000      -0.753460       -20.5027
  59   2.0000      -0.745213       -20.2783
  60   2.0000      -0.737237       -20.0612
  61   2.0000      -0.732067       -19.9206
  62   2.0000      -0.680650       -18.5214
  63   2.0000      -0.678462       -18.4619
  64   2.0000      -0.668679       -18.1957
  65   2.0000      -0.652072       -17.7438
  66   2.0000      -0.644278       -17.5317
  67   2.0000      -0.635697       -17.2982
  68   2.0000      -0.627664       -17.0796
  69   2.0000      -0.621880       -16.9222
  70   2.0000      -0.613180       -16.6855
  71   2.0000      -0.607804       -16.5392
  72   2.0000      -0.605610       -16.4795
  73   2.0000      -0.593376       -16.1466
  74   2.0000      -0.587483       -15.9862
  75   2.0000      -0.578484       -15.7414
  76   2.0000      -0.569571       -15.4988
  77   2.0000      -0.567327       -15.4377
  78   2.0000      -0.566383       -15.4121
  79   2.0000      -0.563216       -15.3259
  80   2.0000      -0.550694       -14.9851
  81   2.0000      -0.547403       -14.8956
  82   2.0000      -0.538800       -14.6615
  83   2.0000      -0.537534       -14.6270
  84   2.0000      -0.535143       -14.5620
  85   2.0000      -0.534061       -14.5325
  86   2.0000      -0.533195       -14.5090
  87   2.0000      -0.527546       -14.3553
  88   2.0000      -0.521762       -14.1979
  89   2.0000      -0.503209       -13.6930
  90   2.0000      -0.502623       -13.6771
  91   2.0000      -0.488618       -13.2960
  92   2.0000      -0.485557       -13.2127
  93   2.0000      -0.485127       -13.2010
  94   2.0000      -0.480601       -13.0778
  95   2.0000      -0.477767       -13.0007
  96   2.0000      -0.472939       -12.8693
  97   2.0000      -0.469237       -12.7686
  98   2.0000      -0.468619       -12.7518
  99   2.0000      -0.466339       -12.6897
 100   2.0000      -0.462213       -12.5775
 101   2.0000      -0.455835       -12.4039
 102   2.0000      -0.448967       -12.2170
 103   2.0000      -0.443097       -12.0573
 104   2.0000      -0.440975       -11.9996
 105   2.0000      -0.440140       -11.9768
 106   2.0000      -0.439117       -11.9490
 107   2.0000      -0.429370       -11.6837
 108   2.0000      -0.427150       -11.6234
 109   2.0000      -0.414310       -11.2740
 110   2.0000      -0.412007       -11.2113
 111   2.0000      -0.384035       -10.4501
 112   2.0000      -0.347134        -9.4460
 113   2.0000      -0.334945        -9.1143
 114   2.0000      -0.331076        -9.0090
 115   2.0000      -0.314922        -8.5695
 116   2.0000      -0.296606        -8.0711
 117   2.0000      -0.250605        -6.8193
 118   0.0000      -0.038599        -1.0503
 119   0.0000       0.014422         0.3924
 120   0.0000       0.044979         1.2239
 121   0.0000       0.057051         1.5524
 122   0.0000       0.070068         1.9066

MULLIKEN ATOMIC CHARGES
-----------------------
   0 C :    0.356648
   1 C :   -0.444090
   2 C :    0.317920
   3 C :    0.065063
   4 C :   -0.257592
   5 C :   -0.304881
   6 C :    0.452394
   7 C :    0.095782
   8 C :    0.273236
   9 C :   -0.415791
  10 H :    0.163640
  11 C :    0.330622
  12 C :   -0.283621
  13 C :   -0.298726
  14 H :    0.163468
  15 H :    0.189445
  16 H :    0.172103
  17 H :    0.172273
  18 H :    0.193222
  19 O :   -0.284394
  20 C :    0.012834
  21 C :   -0.339022
  22 C :   -0.088741
  23 C :   -0.097705
  24 H :    0.172810
  25 C :   -0.119452
  26 C :   -0.167465
  27 H :    0.173715
  28 H :    0.176664
  29 H :    0.172053
  30 N :   -0.053730
  31 C :   -0.114967
  32 H :    0.132604
  33 H :    0.147906
  34 C :   -0.375131
  35 H :    0.124706
  36 H :    0.128368
  37 H :    0.130457
  38 C :    0.438477
  39 O :   -0.477334
  40 O :   -0.506009
  41 C :   -0.112012
  42 H :    0.147831
  43 H :    0.131990
  44 C :   -0.378706
  45 H :    0.129123
  46 H :    0.131532
  47 H :    0.125365
  48 C :   -0.110221
  49 H :    0.131255
  50 H :    0.147252
  51 C :   -0.113254
  52 H :    0.133088
  53 H :    0.146890
  54 C :   -0.376002
  55 H :    0.128352
  56 H :    0.130437
  57 H :    0.124519
  58 C :   -0.378188
  59 H :    0.124936
  60 H :    0.128731
  61 H :    0.131180
  62 N :   -0.053668
  63 H :    0.401814
Sum of atomic charges:    1.0000000

LOEWDIN ATOMIC CHARGES
----------------------
   0 C :   -0.136190
   1 C :   -0.108610
   2 C :   -0.133682
   3 C :   -0.098491
   4 C :   -0.056032
   5 C :   -0.115386
   6 C :    0.048715
   7 C :   -0.099461
   8 C :   -0.134632
   9 C :   -0.107945
  10 H :    0.164706
  11 C :   -0.137096
  12 C :   -0.114841
  13 C :   -0.057338
  14 H :    0.164697
  15 H :    0.169882
  16 H :    0.161569
  17 H :    0.161703
  18 H :    0.171561
  19 O :    0.360315
  20 C :   -0.047731
  21 C :   -0.077290
  22 C :   -0.089255
  23 C :   -0.104100
  24 H :    0.165719
  25 C :   -0.067794
  26 C :   -0.119117
  27 H :    0.158637
  28 H :    0.163590
  29 H :    0.157096
  30 N :    0.217657
  31 C :   -0.254362
  32 H :    0.136871
  33 H :    0.141937
  34 C :   -0.291778
  35 H :    0.119295
  36 H :    0.122100
  37 H :    0.118754
  38 C :   -0.402203
  39 O :    0.110815
  40 O :    0.011305
  41 C :   -0.253911
  42 H :    0.141733
  43 H :    0.137129
  44 C :   -0.291623
  45 H :    0.122173
  46 H :    0.118883
  47 H :    0.119279
  48 C :   -0.253834
  49 H :    0.137057
  50 H :    0.141628
  51 C :   -0.254380
  52 H :    0.136778
  53 H :    0.141764
  54 C :   -0.291736
  55 H :    0.122014
  56 H :    0.118772
  57 H :    0.119210
  58 C :   -0.291677
  59 H :    0.119225
  60 H :    0.122080
  61 H :    0.118828
  62 N :    0.217128
  63 H :    0.229889

  Mayer bond orders larger than 0.100000
B(  0-C ,  1-C ) :   1.2091 B(  0-C ,  5-C ) :   1.1276 B(  0-C , 30-N ) :   1.4123
B(  1-C ,  2-C ) :   1.5291 B(  1-C , 14-H ) :   0.9721 B(  2-C ,  3-C ) :   1.2579
B(  2-C , 19-O ) :   1.0819 B(  3-C ,  4-C ) :   1.1397 B(  3-C ,  6-C ) :   1.1992
B(  4-C ,  5-C ) :   1.6870 B(  4-C , 15-H ) :   0.9631 B(  5-C , 16-H ) :   0.9733
B(  6-C ,  7-C ) :   1.1602 B(  6-C , 20-C ) :   0.6006 B(  6-C , 21-C ) :  -0.1300
B(  6-C , 22-C ) :  -0.1098 B(  7-C ,  8-C ) :   1.2968 B(  7-C , 13-C ) :   1.1256
B(  8-C ,  9-C ) :   1.5367 B(  8-C , 19-O ) :   1.0794 B(  9-C , 10-H ) :   0.9698
B(  9-C , 11-C ) :   1.2198 B( 11-C , 12-C ) :   1.1372 B( 11-C , 62-N ) :   1.4123
B( 12-C , 13-C ) :   1.6915 B( 12-C , 17-H ) :   0.9736 B( 13-C , 18-H ) :   0.9608
B( 20-C , 21-C ) :   1.4520 B( 20-C , 22-C ) :   1.3274 B( 21-C , 23-C ) :   1.4242
B( 21-C , 24-H ) :   0.9873 B( 22-C , 25-C ) :   1.4053 B( 22-C , 38-C ) :   1.0128
B( 23-C , 26-C ) :   1.3851 B( 23-C , 27-H ) :   0.9767 B( 25-C , 26-C ) :   1.3973
B( 25-C , 28-H ) :   0.9724 B( 26-C , 29-H ) :   0.9784 B( 30-N , 31-C ) :   0.8627
B( 30-N , 41-C ) :   0.8656 B( 31-C , 32-H ) :   0.9698 B( 31-C , 33-H ) :   0.9689
B( 31-C , 34-C ) :   0.9635 B( 34-C , 35-H ) :   0.9768 B( 34-C , 36-H ) :   0.9813
B( 34-C , 37-H ) :   0.9836 B( 38-C , 39-O ) :   1.2572 B( 38-C , 40-O ) :   1.9392
B( 39-O , 63-H ) :   0.8136 B( 41-C , 42-H ) :   0.9689 B( 41-C , 43-H ) :   0.9689
B( 41-C , 44-C ) :   0.9615 B( 44-C , 45-H ) :   0.9813 B( 44-C , 46-H ) :   0.9839
B( 44-C , 47-H ) :   0.9769 B( 48-C , 49-H ) :   0.9679 B( 48-C , 50-H ) :   0.9691
B( 48-C , 58-C ) :   0.9619 B( 48-C , 62-N ) :   0.8658 B( 51-C , 52-H ) :   0.9694
B( 51-C , 53-H ) :   0.9697 B( 51-C , 54-C ) :   0.9623 B( 51-C , 62-N ) :   0.8635
B( 54-C , 55-H ) :   0.9814 B( 54-C , 56-H ) :   0.9829 B( 54-C , 57-H ) :   0.9774
B( 58-C , 59-H ) :   0.9775 B( 58-C , 60-H ) :   0.9811 B( 58-C , 61-H ) :   0.9838

MP2 TOTAL ENERGY:    -1419.388541791 Eh

-----------------------------------------------------------------------------
         ABSORPTION SPECTRUM VIA TRANSITION ELECTRIC DIPOLE MOMENTS
-----------------------------------------------------------------------------
State   Energy    Wavelength  fosc         T2        TX        TY        TZ
        (cm-1)      (nm)                 (au**2)    (au)      (au)      (au)
-----------------------------------------------------------------------------
   1    8675.5   1152.7   0.480645809  18.23927  -4.23822   0.41761   0.31989
   2   13149.5    760.5   0.004985408   0.12482   0.05993   0.34409  -0.05318
   3   21245.4    470.7   0.285300032   4.42091  -0.33462  -2.06239   0.23556
   4   23305.2    429.1   0.008540234   0.12064  -0.08013  -0.31130   0.13159
   5   23115.0    432.6   0.081273506   1.15752   0.46274   0.95417  -0.18155
   6   23570.1    424.3   0.019066569   0.26631   0.21208   0.43724  -0.17365
   7   27529.1    363.3   0.018906592   0.22610  -0.07045  -0.21007  -0.42072
   8   25515.1    391.9   0.180390761   2.32752   0.20484  -1.48279   0.29476
   9   33217.6    301.0   0.052980622   0.52508  -0.20409  -0.14121  -0.68080
  10   26255.4    380.9   0.002632323   0.03301  -0.03856  -0.11316  -0.13680
  11   29548.9    338.4   0.060827133   0.67769  -0.47764   0.56815  -0.35602
  12   27819.5    359.5   0.003169718   0.03751   0.13560  -0.01206   0.13776
  13   34704.6    288.1   0.003409935   0.03235   0.17543  -0.01530  -0.03655
  14   29307.5    341.2   0.519667631   5.83745   2.39703  -0.19006  -0.23575
  15   29040.0    344.4   0.214861656   2.43578   1.51384  -0.31991   0.20427
  16   35549.4    281.3   0.086652728   0.80246  -0.68353   0.57240   0.08723
  17   31333.5    319.1   0.302823242   3.18168   0.87645   1.50540  -0.38378
  18   42543.5    235.1   0.385843932   2.98575   0.54613  -0.36521   1.59816
  19   36271.4    275.7   0.060667980   0.55064  -0.38714   0.54323  -0.32506
  20   28625.5    349.3   0.143655518   1.65213   0.78204   0.96848   0.32030
  21   29858.2    334.9   0.162254142   1.78899  -0.44117   1.26068  -0.07092
  22   36109.2    276.9   0.049584791   0.45207   0.27028   0.47221   0.39501
  23   44570.4    224.4   0.001508298   0.01114   0.00185   0.04578  -0.09509
  24   37421.3    267.2   0.035747566   0.31449   0.39255  -0.29993   0.26539
  25   33548.0    298.1   0.009468081   0.09291   0.11224   0.28096   0.03710
  26   45482.7    219.9   0.045469076   0.32911  -0.24222   0.07263   0.51495
  27   34639.3    288.7   0.010059272   0.09560   0.02273   0.29157   0.10038
  28   45988.9    217.4   0.005205439   0.03726   0.08616   0.16823  -0.03921
  29   38010.6    263.1   0.005400228   0.04677   0.01768  -0.21304   0.03273
  30   33178.3    301.4   0.025242301   0.25047   0.26335   0.21732  -0.36591

Dispersion correction           -0.055276852
FINAL SINGLE POINT ENERGY     -1416.670937627797

DIPOLE MOMENT
-------------
                                X             Y             Z
Electronic contribution:      4.32842      26.91923       0.85443
Nuclear contribution   :     -5.50816     -28.80400      -1.77419
                        -----------------------------------------
Total Dipole Moment    :     -1.17975      -1.88477      -0.91976
                        -----------------------------------------
Magnitude (a.u.)       :      2.40626
Magnitude (Debye)      :      6.11624

Rotational constants in cm-1:     0.004956     0.002893     0.002031
Rotational constants in MHz :   148.564582    86.741091    60.886448

                             ****ORCA TERMINATED NORMALLY****
TOTAL RUN TIME: 0 days 8 hours 36 minutes 11 seconds 433 msec
