                         Program Version 5.0.2 -  RELEASE  -
|  1> %maxcore 20000
|  2> %pal
|  3>  nprocs= 6
|  4> end
|  5> ! RI-SCS-PBE-QIDH   def2-TZVP def2/J def2-TZVP/C RIJCOSX CPCM TightSCF
|  6> %TDDFT
|  7>    NROOTS   30
|  8>    dcorr 4
|  9>    doscs true
| 10>    TDA      FALSE
| 11> END
| 12>
| 13>  %CPCM
| 14>    SMD          TRUE
| 15>    SMDsolvent   "ETHANOL"
| 16>  END
| 17>
| 18>
| 19> * xyz 1 1
| 20> C                  -3.84267000   -0.92047200    0.05894500
| 21> C                  -2.63140600   -1.64154100    0.02698200
| 22> C                  -1.44451500   -0.98320300   -0.16527300
| 23> C                  -1.35747000    0.41898600   -0.34874900
| 24> C                  -2.58344000    1.12590400   -0.30249800
| 25> C                  -3.77274200    0.49647600   -0.10979100
| 26> C                  -0.10153800    1.01377800   -0.52398600
| 27> C                   1.04141100    0.20174500   -0.51394500
| 28> C                   0.90082300   -1.19349000   -0.31440700
| 29> C                   1.96520000   -2.05709900   -0.27996900
| 30> H                   1.76164300   -3.10760500   -0.13995700
| 31> C                   3.27758200   -1.56937100   -0.44416300
| 32> C                   3.43762900   -0.16648200   -0.65863700
| 33> C                   2.36564200    0.66915700   -0.69356500
| 34> H                  -2.59955700   -2.70986000    0.17692700
| 35> H                  -2.56812100    2.20095000   -0.42639900
| 36> H                  -4.67721800    1.08529100   -0.09723800
| 37> H                   4.42535200    0.24835000   -0.78882700
| 38> H                   2.52930600    1.72568900   -0.86331100
| 39> O                  -0.32598700   -1.74921200   -0.15541900
| 40> C                   0.00981900    2.46809200   -0.77544500
| 41> C                  -0.44694900    2.94685700   -2.00238800
| 42> C                   0.60787100    3.37133300    0.11850100
| 43> C                  -0.31107700    4.28150800   -2.34586700
| 44> H                  -0.89891900    2.25214100   -2.69946600
| 45> C                   0.75239800    4.70851500   -0.24699800
| 46> C                   0.29374200    5.16693100   -1.46704100
| 47> H                  -0.67428000    4.62614800   -3.30558500
| 48> H                   1.21788400    5.38614300    0.45689800
| 49> H                   0.40406600    6.21073100   -1.72991600
| 50> N                  -5.02463500   -1.53894000    0.24539200
| 51> C                  -6.27907000   -0.80390300    0.39621600
| 52> H                  -6.09494400    0.11515600    0.95088300
| 53> H                  -6.92276200   -1.41377600    1.03077700
| 54> C                  -6.95690100   -0.52106400   -0.92532000
| 55> H                  -7.16734100   -1.44515000   -1.46396100
| 56> H                  -7.90276700   -0.00556200   -0.76303300
| 57> H                  -6.33610900    0.10664900   -1.56454100
| 58> C                   1.09695900    2.99900700    1.46614100
| 59> O                   0.45496900    1.95125100    1.99406900
| 60> O                   1.97054600    3.59992600    2.05443100
| 61> C                  -5.13158100   -2.99329900    0.32504900
| 62> H                  -6.12485000   -3.25533400   -0.04034500
| 63> H                  -4.42483600   -3.44287200   -0.37194400
| 64> C                  -4.92918100   -3.52146600    1.72790700
| 65> H                  -5.04218000   -4.60475800    1.74436800
| 66> H                  -3.93553000   -3.28036300    2.10522500
| 67> H                  -5.66160900   -3.09790100    2.41519400
| 68> C                   4.21334300   -3.81278200   -0.09371200
| 69> H                   3.42748000   -3.94672400    0.64904500
| 70> H                   5.14243500   -4.11559600    0.39029200
| 71> C                   5.70542000   -1.92199500   -0.65616200
| 72> H                   5.68810200   -1.16500500   -1.43905300
| 73> H                   6.25482300   -2.76810400   -1.06939200
| 74> C                   6.39023400   -1.40746700    0.58995800
| 75> H                   7.41129100   -1.10327000    0.36274800
| 76> H                   5.86659200   -0.54658500    1.00562500
| 77> H                   6.43395700   -2.17805400    1.35975400
| 78> C                   3.95721900   -4.65970100   -1.32035700
| 79> H                   4.76331500   -4.55172800   -2.04621000
| 80> H                   3.89253500   -5.71207400   -1.04661200
| 81> H                   3.02432800   -4.38115600   -1.81026300
| 82> N                   4.34439700   -2.39113500   -0.40265000
| 83> H                   0.83803600    1.77002800    2.86802500
| 84> *
| 85>
| 86>
| 87>
| 88>
| 89>
| 90>                          ****END OF INPUT****

CARTESIAN COORDINATES (ANGSTROEM)
---------------------------------
  C     -3.842670   -0.920472    0.058945
  C     -2.631406   -1.641541    0.026982
  C     -1.444515   -0.983203   -0.165273
  C     -1.357470    0.418986   -0.348749
  C     -2.583440    1.125904   -0.302498
  C     -3.772742    0.496476   -0.109791
  C     -0.101538    1.013778   -0.523986
  C      1.041411    0.201745   -0.513945
  C      0.900823   -1.193490   -0.314407
  C      1.965200   -2.057099   -0.279969
  H      1.761643   -3.107605   -0.139957
  C      3.277582   -1.569371   -0.444163
  C      3.437629   -0.166482   -0.658637
  C      2.365642    0.669157   -0.693565
  H     -2.599557   -2.709860    0.176927
  H     -2.568121    2.200950   -0.426399
  H     -4.677218    1.085291   -0.097238
  H      4.425352    0.248350   -0.788827
  H      2.529306    1.725689   -0.863311
  O     -0.325987   -1.749212   -0.155419
  C      0.009819    2.468092   -0.775445
  C     -0.446949    2.946857   -2.002388
  C      0.607871    3.371333    0.118501
  C     -0.311077    4.281508   -2.345867
  H     -0.898919    2.252141   -2.699466
  C      0.752398    4.708515   -0.246998
  C      0.293742    5.166931   -1.467041
  H     -0.674280    4.626148   -3.305585
  H      1.217884    5.386143    0.456898
  H      0.404066    6.210731   -1.729916
  N     -5.024635   -1.538940    0.245392
  C     -6.279070   -0.803903    0.396216
  H     -6.094944    0.115156    0.950883
  H     -6.922762   -1.413776    1.030777
  C     -6.956901   -0.521064   -0.925320
  H     -7.167341   -1.445150   -1.463961
  H     -7.902767   -0.005562   -0.763033
  H     -6.336109    0.106649   -1.564541
  C      1.096959    2.999007    1.466141
  O      0.454969    1.951251    1.994069
  O      1.970546    3.599926    2.054431
  C     -5.131581   -2.993299    0.325049
  H     -6.124850   -3.255334   -0.040345
  H     -4.424836   -3.442872   -0.371944
  C     -4.929181   -3.521466    1.727907
  H     -5.042180   -4.604758    1.744368
  H     -3.935530   -3.280363    2.105225
  H     -5.661609   -3.097901    2.415194
  C      4.213343   -3.812782   -0.093712
  H      3.427480   -3.946724    0.649045
  H      5.142435   -4.115596    0.390292
  C      5.705420   -1.921995   -0.656162
  H      5.688102   -1.165005   -1.439053
  H      6.254823   -2.768104   -1.069392
  C      6.390234   -1.407467    0.589958
  H      7.411291   -1.103270    0.362748
  H      5.866592   -0.546585    1.005625
  H      6.433957   -2.178054    1.359754
  C      3.957219   -4.659701   -1.320357
  H      4.763315   -4.551728   -2.046210
  H      3.892535   -5.712074   -1.046612
  H      3.024328   -4.381156   -1.810263
  N      4.344397   -2.391135   -0.402650
  H      0.838036    1.770028    2.868025

 Total Charge           Charge          ....    1
 Multiplicity           Mult            ....    1
 Number of Electrons    NEL             ....  236
 Basis Dimension        Dim             .... 1209

ORBITAL ENERGIES
----------------

  NO   OCC          E(Eh)            E(eV)
   0   2.0000     -20.097534      -546.8817
   1   2.0000     -20.064523      -545.9834
   2   2.0000     -20.008716      -544.4648
   3   2.0000     -15.121022      -411.4639
   4   2.0000     -15.120468      -411.4489
   5   2.0000     -10.984668      -298.9080
   6   2.0000     -10.928544      -297.3808
   7   2.0000     -10.928221      -297.3720
   8   2.0000     -10.905040      -296.7412
   9   2.0000     -10.904487      -296.7262
  10   2.0000     -10.904324      -296.7217
  11   2.0000     -10.869368      -295.7705
  12   2.0000     -10.860199      -295.5210
  13   2.0000     -10.851645      -295.2883
  14   2.0000     -10.851540      -295.2854
  15   2.0000     -10.850412      -295.2547
  16   2.0000     -10.850394      -295.2542
  17   2.0000     -10.848868      -295.2127
  18   2.0000     -10.848594      -295.2052
  19   2.0000     -10.848526      -295.2034
  20   2.0000     -10.848382      -295.1995
  21   2.0000     -10.843657      -295.0709
  22   2.0000     -10.842133      -295.0294
  23   2.0000     -10.840856      -294.9947
  24   2.0000     -10.835956      -294.8614
  25   2.0000     -10.831215      -294.7323
  26   2.0000     -10.831140      -294.7303
  27   2.0000     -10.825755      -294.5838
  28   2.0000     -10.825676      -294.5816
  29   2.0000     -10.800149      -293.8870
  30   2.0000     -10.800086      -293.8853
  31   2.0000     -10.800046      -293.8842
  32   2.0000     -10.799845      -293.8787
  33   2.0000      -1.365036       -37.1445
  34   2.0000      -1.355413       -36.8827
  35   2.0000      -1.255424       -34.1618
  36   2.0000      -1.182444       -32.1759
  37   2.0000      -1.181788       -32.1581
  38   2.0000      -1.105444       -30.0807
  39   2.0000      -1.078617       -29.3506
  40   2.0000      -1.071612       -29.1600
  41   2.0000      -1.017931       -27.6993
  42   2.0000      -0.979827       -26.6625
  43   2.0000      -0.967918       -26.3384
  44   2.0000      -0.959859       -26.1191
  45   2.0000      -0.957045       -26.0425
  46   2.0000      -0.952728       -25.9251
  47   2.0000      -0.949830       -25.8462
  48   2.0000      -0.931024       -25.3345
  49   2.0000      -0.914072       -24.8732
  50   2.0000      -0.892160       -24.2769
  51   2.0000      -0.850138       -23.1334
  52   2.0000      -0.832053       -22.6413
  53   2.0000      -0.828630       -22.5482
  54   2.0000      -0.810609       -22.0578
  55   2.0000      -0.800389       -21.7797
  56   2.0000      -0.793748       -21.5990
  57   2.0000      -0.776895       -21.1404
  58   2.0000      -0.763176       -20.7671
  59   2.0000      -0.754913       -20.5422
  60   2.0000      -0.746998       -20.3269
  61   2.0000      -0.741491       -20.1770
  62   2.0000      -0.689853       -18.7719
  63   2.0000      -0.687978       -18.7208
  64   2.0000      -0.678510       -18.4632
  65   2.0000      -0.661641       -18.0042
  66   2.0000      -0.653483       -17.7822
  67   2.0000      -0.645032       -17.5522
  68   2.0000      -0.637056       -17.3352
  69   2.0000      -0.630702       -17.1623
  70   2.0000      -0.621805       -16.9202
  71   2.0000      -0.617960       -16.8156
  72   2.0000      -0.615352       -16.7446
  73   2.0000      -0.602587       -16.3972
  74   2.0000      -0.596801       -16.2398
  75   2.0000      -0.586795       -15.9675
  76   2.0000      -0.578122       -15.7315
  77   2.0000      -0.575646       -15.6641
  78   2.0000      -0.575073       -15.6485
  79   2.0000      -0.571200       -15.5431
  80   2.0000      -0.559105       -15.2140
  81   2.0000      -0.555360       -15.1121
  82   2.0000      -0.546635       -14.8747
  83   2.0000      -0.545527       -14.8445
  84   2.0000      -0.543145       -14.7797
  85   2.0000      -0.542074       -14.7506
  86   2.0000      -0.541094       -14.7239
  87   2.0000      -0.535185       -14.5631
  88   2.0000      -0.530134       -14.4257
  89   2.0000      -0.511313       -13.9135
  90   2.0000      -0.509895       -13.8750
  91   2.0000      -0.496069       -13.4987
  92   2.0000      -0.494495       -13.4559
  93   2.0000      -0.492651       -13.4057
  94   2.0000      -0.489993       -13.3334
  95   2.0000      -0.486412       -13.2359
  96   2.0000      -0.480704       -13.0806
  97   2.0000      -0.476921       -12.9777
  98   2.0000      -0.475721       -12.9450
  99   2.0000      -0.473903       -12.8956
 100   2.0000      -0.470129       -12.7929
 101   2.0000      -0.462499       -12.5852
 102   2.0000      -0.455683       -12.3998
 103   2.0000      -0.449611       -12.2345
 104   2.0000      -0.448989       -12.2176
 105   2.0000      -0.446175       -12.1410
 106   2.0000      -0.445225       -12.1152
 107   2.0000      -0.435953       -11.8629
 108   2.0000      -0.433298       -11.7907
 109   2.0000      -0.423825       -11.5329
 110   2.0000      -0.419249       -11.4084
 111   2.0000      -0.393714       -10.7135
 112   2.0000      -0.358058        -9.7432
 113   2.0000      -0.345550        -9.4029
 114   2.0000      -0.341707        -9.2983
 115   2.0000      -0.325369        -8.8537
 116   2.0000      -0.306313        -8.3352
 117   2.0000      -0.260295        -7.0830
 118   0.0000      -0.049338        -1.3425
 119   0.0000       0.005007         0.1362
 120   0.0000       0.035724         0.9721
 121   0.0000       0.047346         1.2883
 122   0.0000       0.060936         1.6581

MULLIKEN ATOMIC CHARGES
-----------------------
   0 C :    0.369013
   1 C :   -0.490899
   2 C :    0.312847
   3 C :    0.074666
   4 C :   -0.275761
   5 C :   -0.329798
   6 C :    0.445076
   7 C :    0.107366
   8 C :    0.270811
   9 C :   -0.463717
  10 H :    0.172993
  11 C :    0.343913
  12 C :   -0.311646
  13 C :   -0.311133
  14 H :    0.173018
  15 H :    0.195910
  16 H :    0.181116
  17 H :    0.181072
  18 H :    0.197714
  19 O :   -0.243594
  20 C :    0.009557
  21 C :   -0.354078
  22 C :   -0.080186
  23 C :   -0.101596
  24 H :    0.182570
  25 C :   -0.129586
  26 C :   -0.178769
  27 H :    0.181758
  28 H :    0.187378
  29 H :    0.180648
  30 N :   -0.012722
  31 C :   -0.157801
  32 H :    0.146805
  33 H :    0.163184
  34 C :   -0.410504
  35 H :    0.137911
  36 H :    0.143715
  37 H :    0.144603
  38 C :    0.413665
  39 O :   -0.464838
  40 O :   -0.503841
  41 C :   -0.153709
  42 H :    0.163195
  43 H :    0.146031
  44 C :   -0.414427
  45 H :    0.144499
  46 H :    0.145670
  47 H :    0.138532
  48 C :   -0.151280
  49 H :    0.145204
  50 H :    0.162612
  51 C :   -0.156068
  52 H :    0.147285
  53 H :    0.162159
  54 C :   -0.411256
  55 H :    0.143703
  56 H :    0.144555
  57 H :    0.137650
  58 C :   -0.414171
  59 H :    0.138085
  60 H :    0.144105
  61 H :    0.145286
  62 N :   -0.012302
  63 H :    0.407804
Sum of atomic charges:    1.0000000

LOEWDIN ATOMIC CHARGES
----------------------
   0 C :   -0.142231
   1 C :   -0.109572
   2 C :   -0.138316
   3 C :   -0.101132
   4 C :   -0.058698
   5 C :   -0.116717
   6 C :    0.043639
   7 C :   -0.102036
   8 C :   -0.139247
   9 C :   -0.108927
  10 H :    0.168650
  11 C :   -0.143143
  12 C :   -0.116168
  13 C :   -0.060018
  14 H :    0.168650
  15 H :    0.173387
  16 H :    0.165214
  17 H :    0.165331
  18 H :    0.175019
  19 O :    0.366304
  20 C :   -0.052653
  21 C :   -0.079490
  22 C :   -0.092142
  23 C :   -0.106639
  24 H :    0.169565
  25 C :   -0.070013
  26 C :   -0.121238
  27 H :    0.162154
  28 H :    0.167168
  29 H :    0.160662
  30 N :    0.220291
  31 C :   -0.263322
  32 H :    0.140858
  33 H :    0.146052
  34 C :   -0.300805
  35 H :    0.123177
  36 H :    0.126260
  37 H :    0.122557
  38 C :   -0.410067
  39 O :    0.113867
  40 O :    0.016540
  41 C :   -0.262842
  42 H :    0.145846
  43 H :    0.141140
  44 C :   -0.300625
  45 H :    0.126330
  46 H :    0.122673
  47 H :    0.123156
  48 C :   -0.262751
  49 H :    0.141043
  50 H :    0.145746
  51 C :   -0.263347
  52 H :    0.140755
  53 H :    0.145873
  54 C :   -0.300740
  55 H :    0.126168
  56 H :    0.122560
  57 H :    0.123081
  58 C :   -0.300686
  59 H :    0.123098
  60 H :    0.126235
  61 H :    0.122620
  62 N :    0.219742
  63 H :    0.232156

  Mayer bond orders larger than 0.100000
B(  0-C ,  1-C ) :   1.1884 B(  0-C ,  5-C ) :   1.1253 B(  0-C , 30-N ) :   1.4278
B(  1-C ,  2-C ) :   1.5131 B(  1-C , 14-H ) :   0.9713 B(  2-C ,  3-C ) :   1.2788
B(  2-C , 19-O ) :   1.1004 B(  3-C ,  4-C ) :   1.1348 B(  3-C ,  6-C ) :   1.2065
B(  4-C ,  5-C ) :   1.6889 B(  4-C , 15-H ) :   0.9637 B(  5-C , 16-H ) :   0.9677
B(  6-C ,  7-C ) :   1.1697 B(  6-C , 20-C ) :   0.6065 B(  6-C , 21-C ) :  -0.1439
B(  6-C , 22-C ) :  -0.1149 B(  7-C ,  8-C ) :   1.3182 B(  7-C , 13-C ) :   1.1222
B(  8-C ,  9-C ) :   1.5209 B(  8-C , 19-O ) :   1.0975 B(  9-C , 10-H ) :   0.9694
B(  9-C , 11-C ) :   1.2001 B( 11-C , 12-C ) :   1.1343 B( 11-C , 62-N ) :   1.4277
B( 12-C , 13-C ) :   1.6993 B( 12-C , 17-H ) :   0.9680 B( 13-C , 18-H ) :   0.9588
B( 20-C , 21-C ) :   1.4726 B( 20-C , 22-C ) :   1.3177 B( 21-C , 23-C ) :   1.4220
B( 21-C , 24-H ) :   0.9821 B( 22-C , 25-C ) :   1.4121 B( 22-C , 38-C ) :   1.0214
B( 23-C , 26-C ) :   1.3847 B( 23-C , 27-H ) :   0.9729 B( 25-C , 26-C ) :   1.3961
B( 25-C , 28-H ) :   0.9666 B( 26-C , 29-H ) :   0.9749 B( 30-N , 31-C ) :   0.8766
B( 30-N , 41-C ) :   0.8798 B( 31-C , 32-H ) :   0.9585 B( 31-C , 33-H ) :   0.9574
B( 31-C , 34-C ) :   0.9945 B( 34-C , 35-H ) :   0.9704 B( 34-C , 36-H ) :   0.9747
B( 34-C , 37-H ) :   0.9776 B( 38-C , 39-O ) :   1.2702 B( 38-C , 40-O ) :   1.9343
B( 39-O , 63-H ) :   0.8084 B( 41-C , 42-H ) :   0.9573 B( 41-C , 43-H ) :   0.9571
B( 41-C , 44-C ) :   0.9922 B( 44-C , 45-H ) :   0.9747 B( 44-C , 46-H ) :   0.9779
B( 44-C , 47-H ) :   0.9705 B( 48-C , 49-H ) :   0.9560 B( 48-C , 50-H ) :   0.9576
B( 48-C , 58-C ) :   0.9927 B( 48-C , 62-N ) :   0.8800 B( 51-C , 52-H ) :   0.9580
B( 51-C , 53-H ) :   0.9582 B( 51-C , 54-C ) :   0.9934 B( 51-C , 62-N ) :   0.8776
B( 54-C , 55-H ) :   0.9748 B( 54-C , 56-H ) :   0.9768 B( 54-C , 57-H ) :   0.9710
B( 58-C , 59-H ) :   0.9710 B( 58-C , 60-H ) :   0.9745 B( 58-C , 61-H ) :   0.9778

MP2 TOTAL ENERGY:    -1419.367112050 Eh

-----------------------------------------------------------------------------
         ABSORPTION SPECTRUM VIA TRANSITION ELECTRIC DIPOLE MOMENTS
-----------------------------------------------------------------------------
State   Energy    Wavelength  fosc         T2        TX        TY        TZ
        (cm-1)      (nm)                 (au**2)    (au)      (au)      (au)
-----------------------------------------------------------------------------
   1   18465.5    541.5   1.032366054  18.40549  -4.25764   0.41843   0.32074
   2   25787.5    387.8   0.011659044   0.14884   0.06358   0.37613  -0.05772
   3   31505.3    317.4   0.421403870   4.40342   0.32821   2.05870  -0.23973
   4   33852.0    295.4   0.014686244   0.14282  -0.09033  -0.34181   0.13353
   5   34714.1    288.1   0.122742750   1.16403  -0.45445  -0.96307   0.17322
   6   35431.0    282.2   0.031597825   0.29360  -0.22500  -0.46522   0.16293
   7   37020.4    270.1   0.025363605   0.22555  -0.04101  -0.23014  -0.41341
   8   36814.6    271.6   0.252306459   2.25623  -0.20568   1.45989  -0.28751
   9   40826.5    244.9   0.058897514   0.47493  -0.16520  -0.18069  -0.64420
  10   38765.6    258.0   0.003426098   0.02910   0.07288   0.06287   0.14082
  11   40683.9    245.8   0.089662445   0.72554  -0.51606   0.53639  -0.41414
  12   39890.3    250.7   0.007528967   0.06214   0.13725  -0.03331   0.20540
  13   44169.5    226.4   0.005762181   0.04295   0.18719  -0.05343   0.07110
  14   42271.2    236.6   0.753515685   5.86844  -2.40281   0.19046   0.24224
  15   42682.4    234.3   0.263259507   2.03054   1.38140  -0.28105   0.20801
  16   46336.6    215.8   0.148538430   1.05533   0.81831  -0.61698  -0.07098
  17   45261.2    220.9   0.404627542   2.94310  -0.92680  -1.40438   0.33446
  18   49532.9    201.9   0.353623991   2.35030  -0.36357   0.36212  -1.44464
  19   48169.1    207.6   0.124188994   0.84877   0.56113  -0.46095   0.56694
  20   47266.0    211.6   0.062153219   0.43290  -0.18968  -0.54849   0.30997
  21   44198.1    226.3   0.147409844   1.09799  -0.88156   0.21858  -0.52256
  22   49167.5    203.4   0.433682403   2.90382   0.26200   1.63984   0.38222
  23   50214.4    199.1   0.045346662   0.29730  -0.40599   0.27850  -0.23431
  24   48679.6    205.4   0.016798004   0.11360   0.12865   0.30207  -0.07621
  25   54117.8    184.8   0.002687322   0.01635   0.02444   0.11550  -0.04909
  26   49887.8    200.4   0.016007217   0.10563  -0.01222  -0.30858  -0.10129
  27   55959.3    178.7   0.056107075   0.33008  -0.17683   0.08691   0.53968
  28   52696.2    189.8   0.001962236   0.01226   0.06950   0.01173  -0.08539
  29   52450.7    190.7   0.001646895   0.01034   0.03429  -0.09409   0.01753
  30   50634.8    197.5   0.043998984   0.28607   0.27780   0.25802  -0.37726

FINAL SINGLE POINT ENERGY     -1417.219875132737

DIPOLE MOMENT
-------------
                                X             Y             Z
Electronic contribution:      4.32876      26.87165       0.86883
Nuclear contribution   :     -5.50816     -28.80400      -1.77419
                        -----------------------------------------
Total Dipole Moment    :     -1.17941      -1.93235      -0.90536
                        -----------------------------------------
Magnitude (a.u.)       :      2.43817
Magnitude (Debye)      :      6.19733

Rotational constants in cm-1:     0.004956     0.002893     0.002031
Rotational constants in MHz :   148.564582    86.741091    60.886448

                             ****ORCA TERMINATED NORMALLY****
TOTAL RUN TIME: 1 days 7 hours 45 minutes 44 seconds 133 msec
