                         Program Version 5.0.2 -  RELEASE  -
|  1> %maxcore 20000
|  2> %pal
|  3>  nprocs= 4
|  4> end
|  5> ! RI-B2GP-PLYP   def2-TZVP def2/J def2-TZVP/C RIJCOSX CPCM TightSCF
|  6> %TDDFT
|  7>    NROOTS   30
|  8>    dcorr 4
|  9>    TDA      FALSE
| 10> END
| 11>
| 12>  %CPCM
| 13>    SMD          TRUE
| 14>    SMDsolvent   "ETHANOL"
| 15>  END
| 16>
| 17>
| 18> * xyz 1 1
| 19> C                  -3.84267000   -0.92047200    0.05894500
| 20> C                  -2.63140600   -1.64154100    0.02698200
| 21> C                  -1.44451500   -0.98320300   -0.16527300
| 22> C                  -1.35747000    0.41898600   -0.34874900
| 23> C                  -2.58344000    1.12590400   -0.30249800
| 24> C                  -3.77274200    0.49647600   -0.10979100
| 25> C                  -0.10153800    1.01377800   -0.52398600
| 26> C                   1.04141100    0.20174500   -0.51394500
| 27> C                   0.90082300   -1.19349000   -0.31440700
| 28> C                   1.96520000   -2.05709900   -0.27996900
| 29> H                   1.76164300   -3.10760500   -0.13995700
| 30> C                   3.27758200   -1.56937100   -0.44416300
| 31> C                   3.43762900   -0.16648200   -0.65863700
| 32> C                   2.36564200    0.66915700   -0.69356500
| 33> H                  -2.59955700   -2.70986000    0.17692700
| 34> H                  -2.56812100    2.20095000   -0.42639900
| 35> H                  -4.67721800    1.08529100   -0.09723800
| 36> H                   4.42535200    0.24835000   -0.78882700
| 37> H                   2.52930600    1.72568900   -0.86331100
| 38> O                  -0.32598700   -1.74921200   -0.15541900
| 39> C                   0.00981900    2.46809200   -0.77544500
| 40> C                  -0.44694900    2.94685700   -2.00238800
| 41> C                   0.60787100    3.37133300    0.11850100
| 42> C                  -0.31107700    4.28150800   -2.34586700
| 43> H                  -0.89891900    2.25214100   -2.69946600
| 44> C                   0.75239800    4.70851500   -0.24699800
| 45> C                   0.29374200    5.16693100   -1.46704100
| 46> H                  -0.67428000    4.62614800   -3.30558500
| 47> H                   1.21788400    5.38614300    0.45689800
| 48> H                   0.40406600    6.21073100   -1.72991600
| 49> N                  -5.02463500   -1.53894000    0.24539200
| 50> C                  -6.27907000   -0.80390300    0.39621600
| 51> H                  -6.09494400    0.11515600    0.95088300
| 52> H                  -6.92276200   -1.41377600    1.03077700
| 53> C                  -6.95690100   -0.52106400   -0.92532000
| 54> H                  -7.16734100   -1.44515000   -1.46396100
| 55> H                  -7.90276700   -0.00556200   -0.76303300
| 56> H                  -6.33610900    0.10664900   -1.56454100
| 57> C                   1.09695900    2.99900700    1.46614100
| 58> O                   0.45496900    1.95125100    1.99406900
| 59> O                   1.97054600    3.59992600    2.05443100
| 60> C                  -5.13158100   -2.99329900    0.32504900
| 61> H                  -6.12485000   -3.25533400   -0.04034500
| 62> H                  -4.42483600   -3.44287200   -0.37194400
| 63> C                  -4.92918100   -3.52146600    1.72790700
| 64> H                  -5.04218000   -4.60475800    1.74436800
| 65> H                  -3.93553000   -3.28036300    2.10522500
| 66> H                  -5.66160900   -3.09790100    2.41519400
| 67> C                   4.21334300   -3.81278200   -0.09371200
| 68> H                   3.42748000   -3.94672400    0.64904500
| 69> H                   5.14243500   -4.11559600    0.39029200
| 70> C                   5.70542000   -1.92199500   -0.65616200
| 71> H                   5.68810200   -1.16500500   -1.43905300
| 72> H                   6.25482300   -2.76810400   -1.06939200
| 73> C                   6.39023400   -1.40746700    0.58995800
| 74> H                   7.41129100   -1.10327000    0.36274800
| 75> H                   5.86659200   -0.54658500    1.00562500
| 76> H                   6.43395700   -2.17805400    1.35975400
| 77> C                   3.95721900   -4.65970100   -1.32035700
| 78> H                   4.76331500   -4.55172800   -2.04621000
| 79> H                   3.89253500   -5.71207400   -1.04661200
| 80> H                   3.02432800   -4.38115600   -1.81026300
| 81> N                   4.34439700   -2.39113500   -0.40265000
| 82> H                   0.83803600    1.77002800    2.86802500
| 83> *
| 84>
| 85>
| 86>
| 87>
| 88>
| 89>                          ****END OF INPUT****

CARTESIAN COORDINATES (ANGSTROEM)
---------------------------------
  C     -3.842670   -0.920472    0.058945
  C     -2.631406   -1.641541    0.026982
  C     -1.444515   -0.983203   -0.165273
  C     -1.357470    0.418986   -0.348749
  C     -2.583440    1.125904   -0.302498
  C     -3.772742    0.496476   -0.109791
  C     -0.101538    1.013778   -0.523986
  C      1.041411    0.201745   -0.513945
  C      0.900823   -1.193490   -0.314407
  C      1.965200   -2.057099   -0.279969
  H      1.761643   -3.107605   -0.139957
  C      3.277582   -1.569371   -0.444163
  C      3.437629   -0.166482   -0.658637
  C      2.365642    0.669157   -0.693565
  H     -2.599557   -2.709860    0.176927
  H     -2.568121    2.200950   -0.426399
  H     -4.677218    1.085291   -0.097238
  H      4.425352    0.248350   -0.788827
  H      2.529306    1.725689   -0.863311
  O     -0.325987   -1.749212   -0.155419
  C      0.009819    2.468092   -0.775445
  C     -0.446949    2.946857   -2.002388
  C      0.607871    3.371333    0.118501
  C     -0.311077    4.281508   -2.345867
  H     -0.898919    2.252141   -2.699466
  C      0.752398    4.708515   -0.246998
  C      0.293742    5.166931   -1.467041
  H     -0.674280    4.626148   -3.305585
  H      1.217884    5.386143    0.456898
  H      0.404066    6.210731   -1.729916
  N     -5.024635   -1.538940    0.245392
  C     -6.279070   -0.803903    0.396216
  H     -6.094944    0.115156    0.950883
  H     -6.922762   -1.413776    1.030777
  C     -6.956901   -0.521064   -0.925320
  H     -7.167341   -1.445150   -1.463961
  H     -7.902767   -0.005562   -0.763033
  H     -6.336109    0.106649   -1.564541
  C      1.096959    2.999007    1.466141
  O      0.454969    1.951251    1.994069
  O      1.970546    3.599926    2.054431
  C     -5.131581   -2.993299    0.325049
  H     -6.124850   -3.255334   -0.040345
  H     -4.424836   -3.442872   -0.371944
  C     -4.929181   -3.521466    1.727907
  H     -5.042180   -4.604758    1.744368
  H     -3.935530   -3.280363    2.105225
  H     -5.661609   -3.097901    2.415194
  C      4.213343   -3.812782   -0.093712
  H      3.427480   -3.946724    0.649045
  H      5.142435   -4.115596    0.390292
  C      5.705420   -1.921995   -0.656162
  H      5.688102   -1.165005   -1.439053
  H      6.254823   -2.768104   -1.069392
  C      6.390234   -1.407467    0.589958
  H      7.411291   -1.103270    0.362748
  H      5.866592   -0.546585    1.005625
  H      6.433957   -2.178054    1.359754
  C      3.957219   -4.659701   -1.320357
  H      4.763315   -4.551728   -2.046210
  H      3.892535   -5.712074   -1.046612
  H      3.024328   -4.381156   -1.810263
  N      4.344397   -2.391135   -0.402650
  H      0.838036    1.770028    2.868025

 Total Charge           Charge          ....    1
 Multiplicity           Mult            ....    1
 Number of Electrons    NEL             ....  236
 Basis Dimension        Dim             .... 1209

ORBITAL ENERGIES
----------------

  NO   OCC          E(Eh)            E(eV)
   0   2.0000     -20.030208      -545.0497
   1   2.0000     -20.000390      -544.2383
   2   2.0000     -19.944967      -542.7301
   3   2.0000     -15.061680      -409.8492
   4   2.0000     -15.061153      -409.8348
   5   2.0000     -10.941448      -297.7319
   6   2.0000     -10.882023      -296.1149
   7   2.0000     -10.881708      -296.1063
   8   2.0000     -10.858485      -295.4744
   9   2.0000     -10.857954      -295.4600
  10   2.0000     -10.856314      -295.4153
  11   2.0000     -10.822396      -294.4924
  12   2.0000     -10.813979      -294.2633
  13   2.0000     -10.805499      -294.0326
  14   2.0000     -10.805392      -294.0297
  15   2.0000     -10.804951      -294.0177
  16   2.0000     -10.804680      -294.0103
  17   2.0000     -10.804615      -294.0085
  18   2.0000     -10.804474      -294.0047
  19   2.0000     -10.804183      -293.9968
  20   2.0000     -10.804162      -293.9962
  21   2.0000     -10.798206      -293.8341
  22   2.0000     -10.796566      -293.7895
  23   2.0000     -10.795511      -293.7608
  24   2.0000     -10.790758      -293.6315
  25   2.0000     -10.785774      -293.4958
  26   2.0000     -10.785694      -293.4936
  27   2.0000     -10.780406      -293.3498
  28   2.0000     -10.780334      -293.3478
  29   2.0000     -10.757389      -292.7234
  30   2.0000     -10.757334      -292.7219
  31   2.0000     -10.757295      -292.7209
  32   2.0000     -10.757094      -292.7154
  33   2.0000      -1.336220       -36.3604
  34   2.0000      -1.328349       -36.1462
  35   2.0000      -1.229728       -33.4626
  36   2.0000      -1.155751       -31.4496
  37   2.0000      -1.155117       -31.4323
  38   2.0000      -1.079562       -29.3764
  39   2.0000      -1.053150       -28.6577
  40   2.0000      -1.046312       -28.4716
  41   2.0000      -0.993595       -27.0371
  42   2.0000      -0.956292       -26.0220
  43   2.0000      -0.944922       -25.7126
  44   2.0000      -0.936825       -25.4923
  45   2.0000      -0.934289       -25.4233
  46   2.0000      -0.929783       -25.3007
  47   2.0000      -0.927221       -25.2310
  48   2.0000      -0.908466       -24.7206
  49   2.0000      -0.892089       -24.2750
  50   2.0000      -0.870689       -23.6927
  51   2.0000      -0.829349       -22.5677
  52   2.0000      -0.811726       -22.0882
  53   2.0000      -0.807999       -21.9868
  54   2.0000      -0.790310       -21.5054
  55   2.0000      -0.780565       -21.2403
  56   2.0000      -0.774120       -21.0649
  57   2.0000      -0.757509       -20.6129
  58   2.0000      -0.743936       -20.2435
  59   2.0000      -0.735857       -20.0237
  60   2.0000      -0.728094       -19.8124
  61   2.0000      -0.722975       -19.6731
  62   2.0000      -0.672152       -18.2902
  63   2.0000      -0.670193       -18.2369
  64   2.0000      -0.660600       -17.9758
  65   2.0000      -0.643909       -17.5216
  66   2.0000      -0.635188       -17.2844
  67   2.0000      -0.628179       -17.0936
  68   2.0000      -0.620175       -16.8758
  69   2.0000      -0.614336       -16.7169
  70   2.0000      -0.605085       -16.4652
  71   2.0000      -0.600331       -16.3358
  72   2.0000      -0.598052       -16.2738
  73   2.0000      -0.585946       -15.9444
  74   2.0000      -0.580265       -15.7898
  75   2.0000      -0.570838       -15.5333
  76   2.0000      -0.562206       -15.2984
  77   2.0000      -0.560210       -15.2441
  78   2.0000      -0.559367       -15.2212
  79   2.0000      -0.556151       -15.1336
  80   2.0000      -0.543773       -14.7968
  81   2.0000      -0.540385       -14.7046
  82   2.0000      -0.532039       -14.4775
  83   2.0000      -0.530945       -14.4477
  84   2.0000      -0.528438       -14.3795
  85   2.0000      -0.527135       -14.3441
  86   2.0000      -0.526237       -14.3196
  87   2.0000      -0.520912       -14.1747
  88   2.0000      -0.515382       -14.0243
  89   2.0000      -0.496707       -13.5161
  90   2.0000      -0.496196       -13.5022
  91   2.0000      -0.482534       -13.1304
  92   2.0000      -0.479497       -13.0478
  93   2.0000      -0.478978       -13.0337
  94   2.0000      -0.474778       -12.9194
  95   2.0000      -0.471996       -12.8437
  96   2.0000      -0.466940       -12.7061
  97   2.0000      -0.463336       -12.6080
  98   2.0000      -0.462686       -12.5903
  99   2.0000      -0.460505       -12.5310
 100   2.0000      -0.456312       -12.4169
 101   2.0000      -0.449934       -12.2433
 102   2.0000      -0.443176       -12.0594
 103   2.0000      -0.437146       -11.8953
 104   2.0000      -0.434686       -11.8284
 105   2.0000      -0.434359       -11.8195
 106   2.0000      -0.433240       -11.7891
 107   2.0000      -0.423853       -11.5336
 108   2.0000      -0.421530       -11.4704
 109   2.0000      -0.409587       -11.1454
 110   2.0000      -0.404979       -11.0200
 111   2.0000      -0.379755       -10.3336
 112   2.0000      -0.343952        -9.3594
 113   2.0000      -0.331953        -9.0329
 114   2.0000      -0.328208        -8.9310
 115   2.0000      -0.311933        -8.4881
 116   2.0000      -0.293185        -7.9780
 117   2.0000      -0.248392        -6.7591
 118   0.0000      -0.046023        -1.2524
 119   0.0000       0.006269         0.1706
 120   0.0000       0.036881         1.0036
 121   0.0000       0.048649         1.3238
 122   0.0000       0.061603         1.6763

MULLIKEN ATOMIC CHARGES
-----------------------
   0 C :    0.350701
   1 C :   -0.432058
   2 C :    0.306686
   3 C :    0.064574
   4 C :   -0.259153
   5 C :   -0.298170
   6 C :    0.434925
   7 C :    0.096096
   8 C :    0.263884
   9 C :   -0.404889
  10 H :    0.164125
  11 C :    0.325610
  12 C :   -0.277764
  13 C :   -0.299437
  14 H :    0.164043
  15 H :    0.189745
  16 H :    0.172549
  17 H :    0.172723
  18 H :    0.193802
  19 O :   -0.280133
  20 C :    0.007495
  21 C :   -0.332197
  22 C :   -0.086492
  23 C :   -0.099210
  24 H :    0.172825
  25 C :   -0.121744
  26 C :   -0.166489
  27 H :    0.173784
  28 H :    0.175930
  29 H :    0.172151
  30 N :   -0.051014
  31 C :   -0.120823
  32 H :    0.134318
  33 H :    0.149215
  34 C :   -0.376445
  35 H :    0.125904
  36 H :    0.129538
  37 H :    0.131561
  38 C :    0.431597
  39 O :   -0.471615
  40 O :   -0.497399
  41 C :   -0.117952
  42 H :    0.149178
  43 H :    0.133668
  44 C :   -0.379909
  45 H :    0.130274
  46 H :    0.132640
  47 H :    0.126546
  48 C :   -0.116129
  49 H :    0.132914
  50 H :    0.148593
  51 C :   -0.119211
  52 H :    0.134791
  53 H :    0.148228
  54 C :   -0.377293
  55 H :    0.129526
  56 H :    0.131579
  57 H :    0.125730
  58 C :   -0.379426
  59 H :    0.126140
  60 H :    0.129900
  61 H :    0.132289
  62 N :   -0.050997
  63 H :    0.400172
Sum of atomic charges:    1.0000000

LOEWDIN ATOMIC CHARGES
----------------------
   0 C :   -0.138477
   1 C :   -0.107632
   2 C :   -0.136040
   3 C :   -0.097408
   4 C :   -0.057666
   5 C :   -0.114474
   6 C :    0.045967
   7 C :   -0.098364
   8 C :   -0.136966
   9 C :   -0.106987
  10 H :    0.165127
  11 C :   -0.139357
  12 C :   -0.113946
  13 C :   -0.058902
  14 H :    0.165122
  15 H :    0.170109
  16 H :    0.161997
  17 H :    0.162129
  18 H :    0.171789
  19 O :    0.362843
  20 C :   -0.048358
  21 C :   -0.077526
  22 C :   -0.089397
  23 C :   -0.104834
  24 H :    0.166067
  25 C :   -0.068527
  26 C :   -0.119384
  27 H :    0.158965
  28 H :    0.163826
  29 H :    0.157467
  30 N :    0.219441
  31 C :   -0.255762
  32 H :    0.137528
  33 H :    0.142620
  34 C :   -0.293271
  35 H :    0.119937
  36 H :    0.122814
  37 H :    0.119383
  38 C :   -0.406511
  39 O :    0.112929
  40 O :    0.014443
  41 C :   -0.255300
  42 H :    0.142418
  43 H :    0.137788
  44 C :   -0.293106
  45 H :    0.122890
  46 H :    0.119512
  47 H :    0.119922
  48 C :   -0.255218
  49 H :    0.137712
  50 H :    0.142315
  51 C :   -0.255778
  52 H :    0.137434
  53 H :    0.142449
  54 C :   -0.293232
  55 H :    0.122731
  56 H :    0.119406
  57 H :    0.119855
  58 C :   -0.293165
  59 H :    0.119869
  60 H :    0.122798
  61 H :    0.119459
  62 N :    0.218919
  63 H :    0.229606

  Mayer bond orders larger than 0.100000
B(  0-C ,  1-C ) :   1.2120 B(  0-C ,  5-C ) :   1.1274 B(  0-C , 30-N ) :   1.4096
B(  1-C ,  2-C ) :   1.5344 B(  1-C , 14-H ) :   0.9680 B(  2-C ,  3-C ) :   1.2551
B(  2-C , 19-O ) :   1.0810 B(  3-C ,  4-C ) :   1.1420 B(  3-C ,  6-C ) :   1.1979
B(  4-C ,  5-C ) :   1.6882 B(  4-C , 15-H ) :   0.9609 B(  5-C , 16-H ) :   0.9706
B(  6-C ,  7-C ) :   1.1593 B(  6-C , 20-C ) :   0.6123 B(  6-C , 21-C ) :  -0.1246
B(  6-C , 22-C ) :  -0.1047 B(  7-C ,  8-C ) :   1.2924 B(  7-C , 13-C ) :   1.1278
B(  8-C ,  9-C ) :   1.5410 B(  8-C , 19-O ) :   1.0785 B(  9-C , 10-H ) :   0.9659
B(  9-C , 11-C ) :   1.2219 B( 11-C , 12-C ) :   1.1366 B( 11-C , 62-N ) :   1.4095
B( 12-C , 13-C ) :   1.6920 B( 12-C , 17-H ) :   0.9711 B( 13-C , 18-H ) :   0.9589
B( 20-C , 21-C ) :   1.4478 B( 20-C , 22-C ) :   1.3257 B( 21-C , 23-C ) :   1.4226
B( 21-C , 24-H ) :   0.9864 B( 22-C , 25-C ) :   1.4013 B( 22-C , 38-C ) :   1.0102
B( 23-C , 26-C ) :   1.3843 B( 23-C , 27-H ) :   0.9756 B( 25-C , 26-C ) :   1.3980
B( 25-C , 28-H ) :   0.9718 B( 26-C , 29-H ) :   0.9773 B( 30-N , 31-C ) :   0.8638
B( 30-N , 41-C ) :   0.8668 B( 31-C , 32-H ) :   0.9687 B( 31-C , 33-H ) :   0.9679
B( 31-C , 34-C ) :   0.9626 B( 34-C , 35-H ) :   0.9759 B( 34-C , 36-H ) :   0.9802
B( 34-C , 37-H ) :   0.9827 B( 38-C , 39-O ) :   1.2599 B( 38-C , 40-O ) :   1.9441
B( 39-O , 63-H ) :   0.8143 B( 41-C , 42-H ) :   0.9678 B( 41-C , 43-H ) :   0.9678
B( 41-C , 44-C ) :   0.9607 B( 44-C , 45-H ) :   0.9802 B( 44-C , 46-H ) :   0.9830
B( 44-C , 47-H ) :   0.9760 B( 48-C , 49-H ) :   0.9668 B( 48-C , 50-H ) :   0.9681
B( 48-C , 58-C ) :   0.9612 B( 48-C , 62-N ) :   0.8669 B( 51-C , 52-H ) :   0.9683
B( 51-C , 53-H ) :   0.9686 B( 51-C , 54-C ) :   0.9615 B( 51-C , 62-N ) :   0.8647
B( 54-C , 55-H ) :   0.9804 B( 54-C , 56-H ) :   0.9820 B( 54-C , 57-H ) :   0.9765
B( 58-C , 59-H ) :   0.9765 B( 58-C , 60-H ) :   0.9801 B( 58-C , 61-H ) :   0.9828

MP2 TOTAL ENERGY:    -1419.762571192 Eh

-----------------------------------------------------------------------------
         ABSORPTION SPECTRUM VIA TRANSITION ELECTRIC DIPOLE MOMENTS
-----------------------------------------------------------------------------
State   Energy    Wavelength  fosc         T2        TX        TY        TZ
        (cm-1)      (nm)                 (au**2)    (au)      (au)      (au)
-----------------------------------------------------------------------------
   1   19310.3    517.9   1.068555384  18.21725   4.23558  -0.41821  -0.31970
   2   25739.8    388.5   0.010868454   0.13901  -0.06363  -0.36313   0.05562
   3   31267.4    319.8   0.398116118   4.19173  -0.32397  -2.00819   0.23231
   4   33355.5    299.8   0.026298722   0.25956   0.19642   0.44351  -0.15582
   5   34528.4    289.6   0.108614158   1.03559  -0.45539  -0.89828   0.14591
   6   34732.7    287.9   0.004826153   0.04574   0.14380   0.13225  -0.08704
   7   37203.0    268.8   0.021995562   0.19464   0.01833   0.16076   0.41044
   8   36465.2    274.2   0.282837683   2.55349  -0.14093   1.56638  -0.28300
   9   40133.3    249.2   0.044879905   0.36815   0.10950   0.24430   0.54450
  10   38504.2    259.7   0.005598042   0.04786  -0.07443   0.02103  -0.20465
  11   38610.6    259.0   0.011894037   0.10141   0.20365  -0.23007   0.08371
  12   42165.3    237.2   0.099714015   0.77853   0.50329  -0.42942   0.58381
  13   42723.6    234.1   0.134817016   1.03885   1.01137  -0.06604  -0.10776
  14   42426.6    235.7   0.370862078   2.87773   1.67312  -0.10765  -0.25846
  15   42212.3    236.9   0.509637063   3.97464   1.95701  -0.36617   0.10321
  16   43780.2    228.4   0.098475840   0.74051  -0.37519   0.77439  -0.00725
  17   44285.8    225.8   0.291105449   2.16402  -1.16479  -0.87935   0.18448
  18   45826.1    218.2   0.068764559   0.49400   0.43161   0.21936  -0.50951
  19   49400.2    202.4   0.441769876   2.94403  -0.54071   0.72942  -1.45589
  20   43069.5    232.2   0.141840393   1.08419   0.88187  -0.16451   0.52861
  21   48541.6    206.0   0.466732642   3.16541  -0.14603  -1.76954  -0.11318
  22   48104.8    207.9   0.142355896   0.97423  -0.35234  -0.76232  -0.51861
  23   51266.2    195.1   0.002218137   0.01424   0.00680  -0.08586   0.08262
  24   49195.1    203.3   0.049141902   0.32886  -0.44518   0.26364  -0.24731
  25   47936.5    208.6   0.030814160   0.21162   0.14352   0.42839  -0.08663
  26   52640.1    190.0   0.051250958   0.32052   0.23390  -0.07779  -0.50967
  27   49235.0    203.1   0.007890297   0.05276  -0.03371  -0.18921  -0.12579
  28   53758.1    186.0   0.010757553   0.06588  -0.10532  -0.22143   0.07587
  29   49571.0    201.7   0.044399736   0.29487   0.26566   0.25104  -0.40159
  30   51246.8    195.1   0.001921780   0.01235   0.05290   0.02070  -0.09549

FINAL SINGLE POINT ENERGY     -1417.380050142092

DIPOLE MOMENT
-------------
                                X             Y             Z
Electronic contribution:      4.32884      26.88297       0.86304
Nuclear contribution   :     -5.50816     -28.80400      -1.77419
                        -----------------------------------------
Total Dipole Moment    :     -1.17932      -1.92103      -0.91115
                        -----------------------------------------
Magnitude (a.u.)       :      2.43133
Magnitude (Debye)      :      6.17995

Rotational constants in cm-1:     0.004956     0.002893     0.002031
Rotational constants in MHz :   148.564582    86.741091    60.886448

                             ****ORCA TERMINATED NORMALLY****
TOTAL RUN TIME: 0 days 21 hours 41 minutes 22 seconds 89 msec
