                         Program Version 5.0.2 -  RELEASE  -
|  1> %maxcore 19200
|  2> %pal
|  3>  nprocs= 8
|  4> end
|  5> ! RI-B2PLYP D3BJ def2-TZVP def2/J def2-TZVP/C RIJCOSX CPCM TightSCF
|  6> %TDDFT DCORR 4
|  7>    NROOTS   30
|  8>   TDA      FALSE
|  9> END
| 10>
| 11>  %CPCM
| 12>    SMD          TRUE
| 13>    SMDsolvent   "ETHANOL"
| 14>  END
| 15>
| 16>
| 17> * xyz 1 1
| 18> C                  -3.84267000   -0.92047200    0.05894500
| 19> C                  -2.63140600   -1.64154100    0.02698200
| 20> C                  -1.44451500   -0.98320300   -0.16527300
| 21> C                  -1.35747000    0.41898600   -0.34874900
| 22> C                  -2.58344000    1.12590400   -0.30249800
| 23> C                  -3.77274200    0.49647600   -0.10979100
| 24> C                  -0.10153800    1.01377800   -0.52398600
| 25> C                   1.04141100    0.20174500   -0.51394500
| 26> C                   0.90082300   -1.19349000   -0.31440700
| 27> C                   1.96520000   -2.05709900   -0.27996900
| 28> H                   1.76164300   -3.10760500   -0.13995700
| 29> C                   3.27758200   -1.56937100   -0.44416300
| 30> C                   3.43762900   -0.16648200   -0.65863700
| 31> C                   2.36564200    0.66915700   -0.69356500
| 32> H                  -2.59955700   -2.70986000    0.17692700
| 33> H                  -2.56812100    2.20095000   -0.42639900
| 34> H                  -4.67721800    1.08529100   -0.09723800
| 35> H                   4.42535200    0.24835000   -0.78882700
| 36> H                   2.52930600    1.72568900   -0.86331100
| 37> O                  -0.32598700   -1.74921200   -0.15541900
| 38> C                   0.00981900    2.46809200   -0.77544500
| 39> C                  -0.44694900    2.94685700   -2.00238800
| 40> C                   0.60787100    3.37133300    0.11850100
| 41> C                  -0.31107700    4.28150800   -2.34586700
| 42> H                  -0.89891900    2.25214100   -2.69946600
| 43> C                   0.75239800    4.70851500   -0.24699800
| 44> C                   0.29374200    5.16693100   -1.46704100
| 45> H                  -0.67428000    4.62614800   -3.30558500
| 46> H                   1.21788400    5.38614300    0.45689800
| 47> H                   0.40406600    6.21073100   -1.72991600
| 48> N                  -5.02463500   -1.53894000    0.24539200
| 49> C                  -6.27907000   -0.80390300    0.39621600
| 50> H                  -6.09494400    0.11515600    0.95088300
| 51> H                  -6.92276200   -1.41377600    1.03077700
| 52> C                  -6.95690100   -0.52106400   -0.92532000
| 53> H                  -7.16734100   -1.44515000   -1.46396100
| 54> H                  -7.90276700   -0.00556200   -0.76303300
| 55> H                  -6.33610900    0.10664900   -1.56454100
| 56> C                   1.09695900    2.99900700    1.46614100
| 57> O                   0.45496900    1.95125100    1.99406900
| 58> O                   1.97054600    3.59992600    2.05443100
| 59> C                  -5.13158100   -2.99329900    0.32504900
| 60> H                  -6.12485000   -3.25533400   -0.04034500
| 61> H                  -4.42483600   -3.44287200   -0.37194400
| 62> C                  -4.92918100   -3.52146600    1.72790700
| 63> H                  -5.04218000   -4.60475800    1.74436800
| 64> H                  -3.93553000   -3.28036300    2.10522500
| 65> H                  -5.66160900   -3.09790100    2.41519400
| 66> C                   4.21334300   -3.81278200   -0.09371200
| 67> H                   3.42748000   -3.94672400    0.64904500
| 68> H                   5.14243500   -4.11559600    0.39029200
| 69> C                   5.70542000   -1.92199500   -0.65616200
| 70> H                   5.68810200   -1.16500500   -1.43905300
| 71> H                   6.25482300   -2.76810400   -1.06939200
| 72> C                   6.39023400   -1.40746700    0.58995800
| 73> H                   7.41129100   -1.10327000    0.36274800
| 74> H                   5.86659200   -0.54658500    1.00562500
| 75> H                   6.43395700   -2.17805400    1.35975400
| 76> C                   3.95721900   -4.65970100   -1.32035700
| 77> H                   4.76331500   -4.55172800   -2.04621000
| 78> H                   3.89253500   -5.71207400   -1.04661200
| 79> H                   3.02432800   -4.38115600   -1.81026300
| 80> N                   4.34439700   -2.39113500   -0.40265000
| 81> H                   0.83803600    1.77002800    2.86802500
| 82> *
| 83>
| 84>
| 85>
| 86>
| 87>
| 88>                          ****END OF INPUT****

CARTESIAN COORDINATES (ANGSTROEM)
---------------------------------
  C     -3.842670   -0.920472    0.058945
  C     -2.631406   -1.641541    0.026982
  C     -1.444515   -0.983203   -0.165273
  C     -1.357470    0.418986   -0.348749
  C     -2.583440    1.125904   -0.302498
  C     -3.772742    0.496476   -0.109791
  C     -0.101538    1.013778   -0.523986
  C      1.041411    0.201745   -0.513945
  C      0.900823   -1.193490   -0.314407
  C      1.965200   -2.057099   -0.279969
  H      1.761643   -3.107605   -0.139957
  C      3.277582   -1.569371   -0.444163
  C      3.437629   -0.166482   -0.658637
  C      2.365642    0.669157   -0.693565
  H     -2.599557   -2.709860    0.176927
  H     -2.568121    2.200950   -0.426399
  H     -4.677218    1.085291   -0.097238
  H      4.425352    0.248350   -0.788827
  H      2.529306    1.725689   -0.863311
  O     -0.325987   -1.749212   -0.155419
  C      0.009819    2.468092   -0.775445
  C     -0.446949    2.946857   -2.002388
  C      0.607871    3.371333    0.118501
  C     -0.311077    4.281508   -2.345867
  H     -0.898919    2.252141   -2.699466
  C      0.752398    4.708515   -0.246998
  C      0.293742    5.166931   -1.467041
  H     -0.674280    4.626148   -3.305585
  H      1.217884    5.386143    0.456898
  H      0.404066    6.210731   -1.729916
  N     -5.024635   -1.538940    0.245392
  C     -6.279070   -0.803903    0.396216
  H     -6.094944    0.115156    0.950883
  H     -6.922762   -1.413776    1.030777
  C     -6.956901   -0.521064   -0.925320
  H     -7.167341   -1.445150   -1.463961
  H     -7.902767   -0.005562   -0.763033
  H     -6.336109    0.106649   -1.564541
  C      1.096959    2.999007    1.466141
  O      0.454969    1.951251    1.994069
  O      1.970546    3.599926    2.054431
  C     -5.131581   -2.993299    0.325049
  H     -6.124850   -3.255334   -0.040345
  H     -4.424836   -3.442872   -0.371944
  C     -4.929181   -3.521466    1.727907
  H     -5.042180   -4.604758    1.744368
  H     -3.935530   -3.280363    2.105225
  H     -5.661609   -3.097901    2.415194
  C      4.213343   -3.812782   -0.093712
  H      3.427480   -3.946724    0.649045
  H      5.142435   -4.115596    0.390292
  C      5.705420   -1.921995   -0.656162
  H      5.688102   -1.165005   -1.439053
  H      6.254823   -2.768104   -1.069392
  C      6.390234   -1.407467    0.589958
  H      7.411291   -1.103270    0.362748
  H      5.866592   -0.546585    1.005625
  H      6.433957   -2.178054    1.359754
  C      3.957219   -4.659701   -1.320357
  H      4.763315   -4.551728   -2.046210
  H      3.892535   -5.712074   -1.046612
  H      3.024328   -4.381156   -1.810263
  N      4.344397   -2.391135   -0.402650
  H      0.838036    1.770028    2.868025

 Total Charge           Charge          ....    1
 Multiplicity           Mult            ....    1
 Number of Electrons    NEL             ....  236
 Basis Dimension        Dim             .... 1209

ORBITAL ENERGIES
----------------

  NO   OCC          E(Eh)            E(eV)
   0   2.0000     -19.813654      -539.1569
   1   2.0000     -19.783976      -538.3493
   2   2.0000     -19.729120      -536.8567
   3   2.0000     -14.874984      -404.7689
   4   2.0000     -14.874490      -404.7554
   5   2.0000     -10.777072      -293.2590
   6   2.0000     -10.718464      -291.6642
   7   2.0000     -10.718185      -291.6566
   8   2.0000     -10.695212      -291.0315
   9   2.0000     -10.694720      -291.0181
  10   2.0000     -10.691378      -290.9272
  11   2.0000     -10.660562      -290.0886
  12   2.0000     -10.652922      -289.8807
  13   2.0000     -10.645346      -289.6746
  14   2.0000     -10.645095      -289.6678
  15   2.0000     -10.645018      -289.6657
  16   2.0000     -10.644895      -289.6623
  17   2.0000     -10.644760      -289.6586
  18   2.0000     -10.644743      -289.6582
  19   2.0000     -10.643041      -289.6119
  20   2.0000     -10.642915      -289.6084
  21   2.0000     -10.637013      -289.4478
  22   2.0000     -10.635592      -289.4092
  23   2.0000     -10.634541      -289.3806
  24   2.0000     -10.630163      -289.2614
  25   2.0000     -10.626214      -289.1540
  26   2.0000     -10.626151      -289.1523
  27   2.0000     -10.621052      -289.0135
  28   2.0000     -10.620972      -289.0113
  29   2.0000     -10.598265      -288.3934
  30   2.0000     -10.598185      -288.3913
  31   2.0000     -10.598171      -288.3909
  32   2.0000     -10.597948      -288.3848
  33   2.0000      -1.280223       -34.8366
  34   2.0000      -1.272245       -34.6195
  35   2.0000      -1.175710       -31.9927
  36   2.0000      -1.106273       -30.1032
  37   2.0000      -1.105673       -30.0869
  38   2.0000      -1.030786       -28.0491
  39   2.0000      -1.006078       -27.3768
  40   2.0000      -0.998908       -27.1817
  41   2.0000      -0.948339       -25.8056
  42   2.0000      -0.912746       -24.8371
  43   2.0000      -0.901052       -24.5189
  44   2.0000      -0.893945       -24.3255
  45   2.0000      -0.891795       -24.2670
  46   2.0000      -0.886491       -24.1227
  47   2.0000      -0.884930       -24.0802
  48   2.0000      -0.865831       -23.5605
  49   2.0000      -0.850768       -23.1506
  50   2.0000      -0.829920       -22.5833
  51   2.0000      -0.790288       -21.5048
  52   2.0000      -0.773992       -21.0614
  53   2.0000      -0.770892       -20.9770
  54   2.0000      -0.753187       -20.4953
  55   2.0000      -0.743974       -20.2446
  56   2.0000      -0.737754       -20.0753
  57   2.0000      -0.722191       -19.6518
  58   2.0000      -0.708323       -19.2745
  59   2.0000      -0.700636       -19.0653
  60   2.0000      -0.693459       -18.8700
  61   2.0000      -0.688466       -18.7341
  62   2.0000      -0.639543       -17.4028
  63   2.0000      -0.638155       -17.3651
  64   2.0000      -0.629058       -17.1175
  65   2.0000      -0.612143       -16.6573
  66   2.0000      -0.600585       -16.3428
  67   2.0000      -0.598478       -16.2854
  68   2.0000      -0.590542       -16.0695
  69   2.0000      -0.584519       -15.9056
  70   2.0000      -0.573706       -15.6113
  71   2.0000      -0.571005       -15.5378
  72   2.0000      -0.567753       -15.4493
  73   2.0000      -0.556385       -15.1400
  74   2.0000      -0.551602       -15.0099
  75   2.0000      -0.540849       -14.7173
  76   2.0000      -0.532872       -14.5002
  77   2.0000      -0.531975       -14.4758
  78   2.0000      -0.531238       -14.4557
  79   2.0000      -0.527924       -14.3655
  80   2.0000      -0.516082       -14.0433
  81   2.0000      -0.512361       -13.9420
  82   2.0000      -0.504807       -13.7365
  83   2.0000      -0.504385       -13.7250
  84   2.0000      -0.501731       -13.6528
  85   2.0000      -0.500317       -13.6143
  86   2.0000      -0.496762       -13.5176
  87   2.0000      -0.494119       -13.4457
  88   2.0000      -0.489394       -13.3171
  89   2.0000      -0.470199       -12.7948
  90   2.0000      -0.469896       -12.7865
  91   2.0000      -0.457682       -12.4542
  92   2.0000      -0.454610       -12.3706
  93   2.0000      -0.453634       -12.3440
  94   2.0000      -0.450619       -12.2620
  95   2.0000      -0.447466       -12.1762
  96   2.0000      -0.442004       -12.0275
  97   2.0000      -0.439024       -11.9465
  98   2.0000      -0.438191       -11.9238
  99   2.0000      -0.436267       -11.8714
 100   2.0000      -0.431542       -11.7429
 101   2.0000      -0.425594       -11.5810
 102   2.0000      -0.419139       -11.4054
 103   2.0000      -0.412697       -11.2301
 104   2.0000      -0.410602       -11.1730
 105   2.0000      -0.409463       -11.1420
 106   2.0000      -0.408140       -11.1061
 107   2.0000      -0.400665       -10.9027
 108   2.0000      -0.397967       -10.8292
 109   2.0000      -0.388427       -10.5696
 110   2.0000      -0.376480       -10.2445
 111   2.0000      -0.360036        -9.7971
 112   2.0000      -0.327293        -8.9061
 113   2.0000      -0.315972        -8.5980
 114   2.0000      -0.312599        -8.5063
 115   2.0000      -0.295973        -8.0538
 116   2.0000      -0.276022        -7.5109
 117   2.0000      -0.235000        -6.3947
 118   0.0000      -0.060648        -1.6503
 119   0.0000      -0.011105        -0.3022
 120   0.0000       0.019484         0.5302
 121   0.0000       0.030508         0.8302
 122   0.0000       0.043158         1.1744

MULLIKEN ATOMIC CHARGES
-----------------------
   0 C :    0.333216
   1 C :   -0.405196
   2 C :    0.283149
   3 C :    0.064336
   4 C :   -0.261779
   5 C :   -0.280547
   6 C :    0.407880
   7 C :    0.095126
   8 C :    0.243851
   9 C :   -0.380833
  10 H :    0.160038
  11 C :    0.310405
  12 C :   -0.261910
  13 C :   -0.298909
  14 H :    0.160219
  15 H :    0.185507
  16 H :    0.169495
  17 H :    0.169650
  18 H :    0.190104
  19 O :   -0.266800
  20 C :    0.003323
  21 C :   -0.315363
  22 C :   -0.080773
  23 C :   -0.099447
  24 H :    0.167363
  25 C :   -0.126613
  26 C :   -0.159891
  27 H :    0.169282
  28 H :    0.169534
  29 H :    0.167798
  30 N :   -0.038177
  31 C :   -0.122337
  32 H :    0.133581
  33 H :    0.147406
  34 C :   -0.371668
  35 H :    0.125359
  36 H :    0.128230
  37 H :    0.130803
  38 C :    0.411829
  39 O :   -0.454588
  40 O :   -0.473558
  41 C :   -0.119841
  42 H :    0.147431
  43 H :    0.132805
  44 C :   -0.374786
  45 H :    0.128915
  46 H :    0.131922
  47 H :    0.125950
  48 C :   -0.118041
  49 H :    0.132069
  50 H :    0.146832
  51 C :   -0.120962
  52 H :    0.134031
  53 H :    0.146478
  54 C :   -0.372492
  55 H :    0.128236
  56 H :    0.130926
  57 H :    0.125232
  58 C :   -0.374390
  59 H :    0.125607
  60 H :    0.128602
  61 H :    0.131564
  62 N :   -0.038233
  63 H :    0.393051
Sum of atomic charges:    1.0000000

LOEWDIN ATOMIC CHARGES
----------------------
   0 C :   -0.144548
   1 C :   -0.104647
   2 C :   -0.142353
   3 C :   -0.094019
   4 C :   -0.061653
   5 C :   -0.111553
   6 C :    0.038699
   7 C :   -0.094936
   8 C :   -0.143204
   9 C :   -0.104059
  10 H :    0.165211
  11 C :   -0.145349
  12 C :   -0.111089
  13 C :   -0.062636
  14 H :    0.165216
  15 H :    0.169606
  16 H :    0.162148
  17 H :    0.162274
  18 H :    0.171320
  19 O :    0.371196
  20 C :   -0.049085
  21 C :   -0.077467
  22 C :   -0.089169
  23 C :   -0.106316
  24 H :    0.165773
  25 C :   -0.070064
  26 C :   -0.119605
  27 H :    0.158616
  28 H :    0.163285
  29 H :    0.157242
  30 N :    0.225869
  31 C :   -0.257365
  32 H :    0.138283
  33 H :    0.143401
  34 C :   -0.294732
  35 H :    0.120645
  36 H :    0.123610
  37 H :    0.120119
  38 C :   -0.418783
  39 O :    0.120376
  40 O :    0.023759
  41 C :   -0.256871
  42 H :    0.143205
  43 H :    0.138539
  44 C :   -0.294539
  45 H :    0.123692
  46 H :    0.120255
  47 H :    0.120637
  48 C :   -0.256775
  49 H :    0.138459
  50 H :    0.143104
  51 C :   -0.257374
  52 H :    0.138187
  53 H :    0.143237
  54 C :   -0.294702
  55 H :    0.123536
  56 H :    0.120156
  57 H :    0.120574
  58 C :   -0.294605
  59 H :    0.120586
  60 H :    0.123605
  61 H :    0.120200
  62 N :    0.225380
  63 H :    0.227495

  Mayer bond orders larger than 0.100000
B(  0-C ,  1-C ) :   1.2164 B(  0-C ,  5-C ) :   1.1270 B(  0-C , 30-N ) :   1.4033
B(  1-C ,  2-C ) :   1.5385 B(  1-C , 14-H ) :   0.9657 B(  2-C ,  3-C ) :   1.2471
B(  2-C , 19-O ) :   1.0791 B(  3-C ,  4-C ) :   1.1444 B(  3-C ,  6-C ) :   1.1906
B(  4-C ,  5-C ) :   1.6846 B(  4-C , 15-H ) :   0.9603 B(  5-C , 16-H ) :   0.9678
B(  6-C ,  7-C ) :   1.1541 B(  6-C , 20-C ) :   0.6396 B(  6-C , 21-C ) :  -0.1124
B(  7-C ,  8-C ) :   1.2809 B(  7-C , 13-C ) :   1.1319 B(  8-C ,  9-C ) :   1.5434
B(  8-C , 19-O ) :   1.0768 B(  9-C , 10-H ) :   0.9641 B(  9-C , 11-C ) :   1.2246
B( 11-C , 12-C ) :   1.1353 B( 11-C , 62-N ) :   1.4033 B( 12-C , 13-C ) :   1.6864
B( 12-C , 17-H ) :   0.9684 B( 13-C , 18-H ) :   0.9584 B( 20-C , 21-C ) :   1.4324
B( 20-C , 22-C ) :   1.3208 B( 21-C , 23-C ) :   1.4167 B( 21-C , 24-H ) :   0.9886
B( 22-C , 25-C ) :   1.3882 B( 22-C , 38-C ) :   1.0037 B( 23-C , 26-C ) :   1.3796
B( 23-C , 27-H ) :   0.9758 B( 25-C , 26-C ) :   1.3972 B( 25-C , 28-H ) :   0.9736
B( 26-C , 29-H ) :   0.9773 B( 30-N , 31-C ) :   0.8686 B( 30-N , 41-C ) :   0.8715
B( 31-C , 32-H ) :   0.9659 B( 31-C , 33-H ) :   0.9660 B( 31-C , 34-C ) :   0.9605
B( 34-C , 35-H ) :   0.9745 B( 34-C , 36-H ) :   0.9779 B( 34-C , 37-H ) :   0.9809
B( 38-C , 39-O ) :   1.2676 B( 38-C , 40-O ) :   1.9596 B( 39-O , 63-H ) :   0.8180
B( 41-C , 42-H ) :   0.9660 B( 41-C , 43-H ) :   0.9649 B( 41-C , 44-C ) :   0.9591
B( 44-C , 45-H ) :   0.9779 B( 44-C , 46-H ) :   0.9812 B( 44-C , 47-H ) :   0.9746
B( 48-C , 49-H ) :   0.9639 B( 48-C , 50-H ) :   0.9662 B( 48-C , 58-C ) :   0.9596
B( 48-C , 62-N ) :   0.8714 B( 51-C , 52-H ) :   0.9654 B( 51-C , 53-H ) :   0.9667
B( 51-C , 54-C ) :   0.9596 B( 51-C , 62-N ) :   0.8694 B( 54-C , 55-H ) :   0.9781
B( 54-C , 56-H ) :   0.9803 B( 54-C , 57-H ) :   0.9750 B( 58-C , 59-H ) :   0.9751
B( 58-C , 60-H ) :   0.9778 B( 58-C , 61-H ) :   0.9810

MP2 TOTAL ENERGY:    -1420.045069550 Eh

-----------------------------------------------------------------------------
         ABSORPTION SPECTRUM VIA TRANSITION ELECTRIC DIPOLE MOMENTS
-----------------------------------------------------------------------------
State   Energy    Wavelength  fosc         T2        TX        TY        TZ
        (cm-1)      (nm)                 (au**2)    (au)      (au)      (au)
-----------------------------------------------------------------------------
   1   19075.2    524.2   1.045263068  18.03982  -4.21458   0.41935   0.31822
   2   24577.6    406.9   0.013827138   0.18521   0.07547   0.41904  -0.06260
   3   30099.2    332.2   0.314699250   3.44205   0.27633   1.82213  -0.21334
   4   30125.5    331.9   0.064975939   0.71006   0.46197   0.68228  -0.17646
   5   34119.3    293.1   0.026155088   0.25237   0.21145   0.45569  -0.00034
   6   33652.1    297.2   0.015401097   0.15067   0.04209   0.38487  -0.02769
   7   35320.3    283.1   0.015103860   0.14078   0.06022   0.05933  -0.36556
   8   34918.1    286.4   0.285420066   2.69097   0.04639  -1.62832   0.19341
   9   36949.1    270.6   0.028482064   0.25377  -0.08959   0.49459   0.03356
  10   38477.0    259.9   0.008297170   0.07099   0.05555   0.12472   0.22880
  11   37812.7    264.5   0.014578029   0.12692   0.24793   0.24300  -0.08002
  12   42113.4    237.5   0.143480059   1.12162  -0.55923   0.32583  -0.83829
  13   38259.7    261.4   0.093441904   0.80404  -0.86202  -0.00346   0.24687
  14   38668.4    258.6   0.341504173   2.90747   1.59744  -0.59420  -0.05072
  15   43275.6    231.1   0.088066841   0.66995  -0.72425   0.24966  -0.28824
  16   40282.9    248.2   0.405599191   3.31476  -1.77959  -0.31835   0.21558
  17   42440.5    235.6   0.018356947   0.14240  -0.29535   0.19622   0.12906
  18   41288.0    242.2   0.235330993   1.87642  -1.32656  -0.21809   0.26287
  19   44764.3    223.4   0.056028469   0.41205  -0.61329  -0.15232  -0.11279
  20   46394.1    215.5   0.294740766   2.09148  -0.66485   0.86757  -0.94698
  21   45723.2    218.7   0.307794976   2.21616  -0.47078   1.30792  -0.53279
  22   49118.3    203.6   0.409310093   2.74337   0.50823   1.21078   1.00949
  23   49276.6    202.9   0.008385285   0.05602  -0.13400  -0.19134   0.03813
  24   46891.5    213.3   0.183942705   1.29141  -0.49883  -0.97772   0.29436
  25   47682.7    209.7   0.051546345   0.35589  -0.46526  -0.22485  -0.29810
  26   50913.6    196.4   0.048871814   0.31601  -0.21841   0.00073   0.51798
  27   48028.9    208.2   0.020189673   0.13839  -0.16410   0.31361  -0.11451
  28   41305.3    242.1   0.000440610   0.00351   0.02905   0.00949  -0.05077
  29   48064.9    208.1   0.056186155   0.38484   0.23435   0.26271  -0.51078
  30   47196.9    211.9   0.057356895   0.40008   0.08966   0.54346  -0.31096

Dispersion correction           -0.069610985
FINAL SINGLE POINT ENERGY     -1418.209964675156

DIPOLE MOMENT
-------------
                                X             Y             Z
Electronic contribution:      4.33143      26.76526       0.89712
Nuclear contribution   :     -5.50816     -28.80400      -1.77419
                        -----------------------------------------
Total Dipole Moment    :     -1.17674      -2.03874      -0.87707
                        -----------------------------------------
Magnitude (a.u.)       :      2.51205
Magnitude (Debye)      :      6.38513

Rotational constants in cm-1:     0.004956     0.002893     0.002031
Rotational constants in MHz :   148.564582    86.741091    60.886448

                             ****ORCA TERMINATED NORMALLY****
TOTAL RUN TIME: 0 days 2 hours 35 minutes 3 seconds 55 msec
