                         Program Version 5.0.2 -  RELEASE  -
|  1> %maxcore 3200
|  2> %pal
|  3>  nprocs= 8
|  4> end
|  5> ! RI-B2PLYP D3BJ def2-TZVP def2/J def2-TZVP/C RIJCOSX CPCM TightSCF
|  6> %TDDFT DCORR 4
|  7>    NROOTS   30
|  8>
|  9>    TDA      FALSE
| 10> END
| 11>
| 12> %CPCM
| 13>    SMD          TRUE
| 14>    SMDsolvent   "DICHLOROMETHANE"
| 15> END
| 16>
| 17>
| 18> * xyz 0 1
| 19> C                   1.43137300    2.29418800    0.70438500
| 20> C                   0.70439600    1.22302400    0.17341900
| 21> C                   1.41160100   -0.00015500   -0.00126900
| 22> C                   2.82474200   -0.00027400   -0.00119400
| 23> C                   3.52149700    1.15730000    0.38105200
| 24> C                   2.82228800    2.26690200    0.79369700
| 25> C                   0.70405000   -1.22300200   -0.17559400
| 26> C                   3.52285500   -1.15758300   -0.38266900
| 27> H                   3.35673600    3.12398000    1.17950300
| 28> C                   2.82228800   -2.26663500   -0.79522700
| 29> C                   1.43137300   -2.29391200   -0.70639200
| 30> H                   3.35628000   -3.12414500   -1.18047800
| 31> C                  -0.70405000    1.22300200   -0.17559400
| 32> C                  -1.41160100    0.00015500   -0.00126900
| 33> C                  -1.43137300    2.29391200   -0.70639200
| 34> C                  -0.70439600   -1.22302400    0.17341900
| 35> C                  -2.82474200    0.00027400   -0.00119400
| 36> C                  -2.82228800    2.26663500   -0.79522700
| 37> C                  -1.43137300   -2.29418800    0.70438500
| 38> C                  -3.52149700   -1.15730000    0.38105200
| 39> C                  -3.52285500    1.15758300   -0.38266900
| 40> H                  -3.35628000    3.12414500   -1.18047800
| 41> C                  -2.82228800   -2.26690200    0.79369700
| 42> H                  -3.35673600   -3.12398000    1.17950300
| 43> C                   4.99064900    1.16612600    0.40310100
| 44> O                   5.64225000    2.13307100    0.75315200
| 45> C                   4.99419600   -1.17543900   -0.40560700
| 46> O                   5.62839400   -2.15226100   -0.75801100
| 47> N                   5.63329500   -0.00261900    0.00024400
| 48> C                  -4.99064900   -1.16612600    0.40310100
| 49> O                  -5.64225000   -2.13307100    0.75315200
| 50> C                  -4.99419600    1.17543900   -0.40560700
| 51> O                  -5.62839400    2.15226100   -0.75801100
| 52> N                  -5.63329500    0.00261900    0.00024400
| 53> C                   7.08797400    0.03123000    0.01520000
| 54> H                   7.45013100    0.82016800   -0.64041300
| 55> H                   7.45483800   -0.92943800   -0.32481800
| 56> H                   7.44679400    0.23066200    1.02272400
| 57> C                  -7.08797400   -0.03123000    0.01520000
| 58> H                  -7.45013100   -0.82016800   -0.64041300
| 59> H                  -7.45483800    0.92943800   -0.32481800
| 60> H                  -7.44679400   -0.23066200    1.02272400
| 61> Cl                 -0.64800500    3.66045300   -1.41777100
| 62> Cl                 -0.64757500   -3.66049400    1.41560800
| 63> Cl                  0.64800500   -3.66045300   -1.41777100
| 64> Cl                  0.64757500    3.66049400    1.41560800
| 65> *
| 66>
| 67>
| 68>                          ****END OF INPUT****

CARTESIAN COORDINATES (ANGSTROEM)
---------------------------------
  C      1.431373    2.294188    0.704385
  C      0.704396    1.223024    0.173419
  C      1.411601   -0.000155   -0.001269
  C      2.824742   -0.000274   -0.001194
  C      3.521497    1.157300    0.381052
  C      2.822288    2.266902    0.793697
  C      0.704050   -1.223002   -0.175594
  C      3.522855   -1.157583   -0.382669
  H      3.356736    3.123980    1.179503
  C      2.822288   -2.266635   -0.795227
  C      1.431373   -2.293912   -0.706392
  H      3.356280   -3.124145   -1.180478
  C     -0.704050    1.223002   -0.175594
  C     -1.411601    0.000155   -0.001269
  C     -1.431373    2.293912   -0.706392
  C     -0.704396   -1.223024    0.173419
  C     -2.824742    0.000274   -0.001194
  C     -2.822288    2.266635   -0.795227
  C     -1.431373   -2.294188    0.704385
  C     -3.521497   -1.157300    0.381052
  C     -3.522855    1.157583   -0.382669
  H     -3.356280    3.124145   -1.180478
  C     -2.822288   -2.266902    0.793697
  H     -3.356736   -3.123980    1.179503
  C      4.990649    1.166126    0.403101
  O      5.642250    2.133071    0.753152
  C      4.994196   -1.175439   -0.405607
  O      5.628394   -2.152261   -0.758011
  N      5.633295   -0.002619    0.000244
  C     -4.990649   -1.166126    0.403101
  O     -5.642250   -2.133071    0.753152
  C     -4.994196    1.175439   -0.405607
  O     -5.628394    2.152261   -0.758011
  N     -5.633295    0.002619    0.000244
  C      7.087974    0.031230    0.015200
  H      7.450131    0.820168   -0.640413
  H      7.454838   -0.929438   -0.324818
  H      7.446794    0.230662    1.022724
  C     -7.087974   -0.031230    0.015200
  H     -7.450131   -0.820168   -0.640413
  H     -7.454838    0.929438   -0.324818
  H     -7.446794   -0.230662    1.022724
  Cl    -0.648005    3.660453   -1.417771
  Cl    -0.647575   -3.660494    1.415608
  Cl     0.648005   -3.660453   -1.417771
  Cl     0.647575    3.660494    1.415608

 Total Charge           Charge          ....    0
 Multiplicity           Mult            ....    1
 Number of Electrons    NEL             ....  280
 Basis Dimension        Dim             .... 1200

ORBITAL ENERGIES
----------------

  NO   OCC          E(Eh)            E(eV)
   0   2.0000    -102.927499     -2800.7996
   1   2.0000    -102.927499     -2800.7996
   2   2.0000    -102.927468     -2800.7988
   3   2.0000    -102.927467     -2800.7988
   4   2.0000     -19.717841      -536.5497
   5   2.0000     -19.717841      -536.5497
   6   2.0000     -19.717769      -536.5478
   7   2.0000     -19.717768      -536.5478
   8   2.0000     -14.899409      -405.4335
   9   2.0000     -14.899409      -405.4335
  10   2.0000     -10.755680      -292.6769
  11   2.0000     -10.755679      -292.6769
  12   2.0000     -10.753387      -292.6145
  13   2.0000     -10.753386      -292.6145
  14   2.0000     -10.709830      -291.4293
  15   2.0000     -10.709828      -291.4292
  16   2.0000     -10.709753      -291.4272
  17   2.0000     -10.709751      -291.4271
  18   2.0000     -10.678120      -290.5664
  19   2.0000     -10.678114      -290.5663
  20   2.0000     -10.677543      -290.5507
  21   2.0000     -10.677510      -290.5498
  22   2.0000     -10.669181      -290.3232
  23   2.0000     -10.669176      -290.3230
  24   2.0000     -10.662796      -290.1494
  25   2.0000     -10.662795      -290.1494
  26   2.0000     -10.657185      -289.9968
  27   2.0000     -10.657184      -289.9967
  28   2.0000     -10.656922      -289.9896
  29   2.0000     -10.656919      -289.9895
  30   2.0000     -10.654584      -289.9260
  31   2.0000     -10.654583      -289.9260
  32   2.0000     -10.654527      -289.9244
  33   2.0000     -10.654526      -289.9244
  34   2.0000     -10.638196      -289.4800
  35   2.0000     -10.638196      -289.4800
  36   2.0000      -9.933067      -270.2925
  37   2.0000      -9.933067      -270.2925
  38   2.0000      -9.933035      -270.2916
  39   2.0000      -9.933035      -270.2916
  40   2.0000      -7.572677      -206.0630
  41   2.0000      -7.572677      -206.0630
  42   2.0000      -7.572647      -206.0622
  43   2.0000      -7.572646      -206.0622
  44   2.0000      -7.567017      -205.9090
  45   2.0000      -7.567016      -205.9090
  46   2.0000      -7.566984      -205.9081
  47   2.0000      -7.566984      -205.9081
  48   2.0000      -7.566761      -205.9020
  49   2.0000      -7.566761      -205.9020
  50   2.0000      -7.566728      -205.9011
  51   2.0000      -7.566728      -205.9011
  52   2.0000      -1.223252       -33.2864
  53   2.0000      -1.223250       -33.2863
  54   2.0000      -1.203509       -32.7491
  55   2.0000      -1.203508       -32.7491
  56   2.0000      -1.088207       -29.6116
  57   2.0000      -1.086053       -29.5530
  58   2.0000      -1.078392       -29.3445
  59   2.0000      -1.049548       -28.5597
  60   2.0000      -1.046395       -28.4738
  61   2.0000      -1.024292       -27.8724
  62   2.0000      -1.004029       -27.3210
  63   2.0000      -0.993219       -27.0269
  64   2.0000      -0.980564       -26.6825
  65   2.0000      -0.951110       -25.8810
  66   2.0000      -0.945216       -25.7206
  67   2.0000      -0.916094       -24.9282
  68   2.0000      -0.910857       -24.7857
  69   2.0000      -0.870840       -23.6968
  70   2.0000      -0.866971       -23.5915
  71   2.0000      -0.848493       -23.0887
  72   2.0000      -0.842314       -22.9205
  73   2.0000      -0.822024       -22.3684
  74   2.0000      -0.808419       -21.9982
  75   2.0000      -0.779637       -21.2150
  76   2.0000      -0.766663       -20.8620
  77   2.0000      -0.755204       -20.5501
  78   2.0000      -0.740205       -20.1420
  79   2.0000      -0.728185       -19.8149
  80   2.0000      -0.718653       -19.5555
  81   2.0000      -0.711892       -19.3716
  82   2.0000      -0.665908       -18.1203
  83   2.0000      -0.646702       -17.5977
  84   2.0000      -0.642451       -17.4820
  85   2.0000      -0.633159       -17.2291
  86   2.0000      -0.631164       -17.1749
  87   2.0000      -0.615613       -16.7517
  88   2.0000      -0.595505       -16.2045
  89   2.0000      -0.579767       -15.7763
  90   2.0000      -0.571036       -15.5387
  91   2.0000      -0.568377       -15.4663
  92   2.0000      -0.566482       -15.4148
  93   2.0000      -0.562525       -15.3071
  94   2.0000      -0.557115       -15.1599
  95   2.0000      -0.552598       -15.0370
  96   2.0000      -0.552327       -15.0296
  97   2.0000      -0.546333       -14.8665
  98   2.0000      -0.541877       -14.7452
  99   2.0000      -0.537440       -14.6245
 100   2.0000      -0.526919       -14.3382
 101   2.0000      -0.525140       -14.2898
 102   2.0000      -0.512792       -13.9538
 103   2.0000      -0.503415       -13.6986
 104   2.0000      -0.501908       -13.6576
 105   2.0000      -0.500193       -13.6109
 106   2.0000      -0.499288       -13.5863
 107   2.0000      -0.489510       -13.3202
 108   2.0000      -0.486190       -13.2299
 109   2.0000      -0.485272       -13.2049
 110   2.0000      -0.479472       -13.0471
 111   2.0000      -0.470159       -12.7937
 112   2.0000      -0.468331       -12.7439
 113   2.0000      -0.465113       -12.6564
 114   2.0000      -0.463394       -12.6096
 115   2.0000      -0.461876       -12.5683
 116   2.0000      -0.460217       -12.5231
 117   2.0000      -0.450296       -12.2532
 118   2.0000      -0.448076       -12.1928
 119   2.0000      -0.434606       -11.8262
 120   2.0000      -0.431360       -11.7379
 121   2.0000      -0.416820       -11.3423
 122   2.0000      -0.395595       -10.7647
 123   2.0000      -0.392027       -10.6676
 124   2.0000      -0.387099       -10.5335
 125   2.0000      -0.386657       -10.5215
 126   2.0000      -0.376065       -10.2333
 127   2.0000      -0.375172       -10.2089
 128   2.0000      -0.372264       -10.1298
 129   2.0000      -0.368542       -10.0285
 130   2.0000      -0.360442        -9.8081
 131   2.0000      -0.352967        -9.6047
 132   2.0000      -0.352945        -9.6041
 133   2.0000      -0.340876        -9.2757
 134   2.0000      -0.338564        -9.2128
 135   2.0000      -0.319623        -8.6974
 136   2.0000      -0.316724        -8.6185
 137   2.0000      -0.300645        -8.1810
 138   2.0000      -0.293726        -7.9927
 139   2.0000      -0.251345        -6.8394
 140   0.0000      -0.094165        -2.5624
 141   0.0000      -0.034738        -0.9453
 142   0.0000      -0.019363        -0.5269
 143   0.0000       0.004879         0.1328
 144   0.0000       0.006065         0.1650

MULLIKEN ATOMIC CHARGES
-----------------------
   0 C :    0.073249
   1 C :    0.095616
   2 C :    0.029235
   3 C :    0.063623
   4 C :    0.060698
   5 C :   -0.253736
   6 C :    0.093652
   7 C :    0.058619
   8 H :    0.178759
   9 C :   -0.248209
  10 C :    0.069153
  11 H :    0.179563
  12 C :    0.093602
  13 C :    0.028811
  14 C :    0.069994
  15 C :    0.095868
  16 C :    0.063499
  17 C :   -0.249118
  18 C :    0.072931
  19 C :    0.061094
  20 C :    0.059069
  21 H :    0.179359
  22 C :   -0.253865
  23 H :    0.178709
  24 C :    0.287966
  25 O :   -0.438515
  26 C :    0.276937
  27 O :   -0.442512
  28 N :   -0.101134
  29 C :    0.287738
  30 O :   -0.438394
  31 C :    0.277693
  32 O :   -0.442513
  33 N :   -0.101255
  34 C :   -0.275310
  35 H :    0.145481
  36 H :    0.165883
  37 H :    0.145517
  38 C :   -0.275293
  39 H :    0.145488
  40 H :    0.165871
  41 H :    0.145528
  42 Cl:   -0.082342
  43 Cl:   -0.082283
  44 Cl:   -0.082430
  45 Cl:   -0.082297
Sum of atomic charges:    0.0000000

LOEWDIN ATOMIC CHARGES
----------------------
   0 C :   -0.373319
   1 C :   -0.041800
   2 C :    0.014982
   3 C :   -0.014405
   4 C :   -0.064773
   5 C :   -0.055533
   6 C :   -0.041758
   7 C :   -0.063956
   8 H :    0.169220
   9 C :   -0.055604
  10 C :   -0.373370
  11 H :    0.169242
  12 C :   -0.041758
  13 C :    0.014981
  14 C :   -0.373368
  15 C :   -0.041799
  16 C :   -0.014405
  17 C :   -0.055605
  18 C :   -0.373323
  19 C :   -0.064772
  20 C :   -0.063955
  21 H :    0.169243
  22 C :   -0.055531
  23 H :    0.169219
  24 C :   -0.307453
  25 O :    0.060557
  26 C :   -0.307019
  27 O :    0.054853
  28 N :    0.235124
  29 C :   -0.307449
  30 O :    0.060552
  31 C :   -0.307022
  32 O :    0.054857
  33 N :    0.235123
  34 C :   -0.243038
  35 H :    0.123971
  36 H :    0.128695
  37 H :    0.123895
  38 C :   -0.243038
  39 H :    0.123972
  40 H :    0.128695
  41 H :    0.123895
  42 Cl:    0.430687
  43 Cl:    0.430803
  44 Cl:    0.430687
  45 Cl:    0.430801

  Mayer bond orders larger than 0.100000
B(  0-C ,  1-C ) :   1.3024 B(  0-C ,  5-C ) :   1.2731 B(  0-C , 45-Cl) :   1.0763
B(  1-C ,  2-C ) :   1.2138 B(  1-C , 12-C ) :   0.9697 B(  2-C ,  3-C ) :   1.3032
B(  2-C ,  6-C ) :   1.2171 B(  3-C ,  4-C ) :   1.2649 B(  3-C ,  7-C ) :   1.2767
B(  4-C ,  5-C ) :   1.4526 B(  4-C , 24-C ) :   0.9799 B(  4-C , 25-O ) :  -0.1488
B(  5-C ,  8-H ) :   0.9682 B(  6-C , 10-C ) :   1.3032 B(  6-C , 15-C ) :   0.9696
B(  7-C ,  9-C ) :   1.4532 B(  7-C , 26-C ) :   0.9725 B(  7-C , 27-O ) :  -0.1540
B(  9-C , 10-C ) :   1.2733 B(  9-C , 11-H ) :   0.9667 B( 10-C , 44-Cl) :   1.0774
B( 12-C , 13-C ) :   1.2174 B( 12-C , 14-C ) :   1.3027 B( 13-C , 15-C ) :   1.2140
B( 13-C , 16-C ) :   1.3041 B( 14-C , 17-C ) :   1.2721 B( 14-C , 42-Cl) :   1.0779
B( 15-C , 18-C ) :   1.3023 B( 16-C , 19-C ) :   1.2653 B( 16-C , 20-C ) :   1.2763
B( 17-C , 20-C ) :   1.4534 B( 17-C , 21-H ) :   0.9676 B( 18-C , 22-C ) :   1.2735
B( 18-C , 43-Cl) :   1.0768 B( 19-C , 22-C ) :   1.4522 B( 19-C , 29-C ) :   0.9793
B( 19-C , 30-O ) :  -0.1481 B( 20-C , 31-C ) :   0.9723 B( 20-C , 32-O ) :  -0.1542
B( 22-C , 23-H ) :   0.9681 B( 24-C , 25-O ) :   2.0234 B( 24-C , 28-N ) :   1.1684
B( 26-C , 27-O ) :   2.0210 B( 26-C , 28-N ) :   1.1839 B( 28-N , 34-C ) :   0.8711
B( 29-C , 30-O ) :   2.0231 B( 29-C , 33-N ) :   1.1685 B( 31-C , 32-O ) :   2.0211
B( 31-C , 33-N ) :   1.1840 B( 33-N , 38-C ) :   0.8711 B( 34-C , 35-H ) :   0.9711
B( 34-C , 36-H ) :   0.9636 B( 34-C , 37-H ) :   0.9711 B( 38-C , 39-H ) :   0.9711
B( 38-C , 40-H ) :   0.9636 B( 38-C , 41-H ) :   0.9710

MP2 TOTAL ENERGY:    -3247.080647419 Eh

-----------------------------------------------------------------------------
         ABSORPTION SPECTRUM VIA TRANSITION ELECTRIC DIPOLE MOMENTS
-----------------------------------------------------------------------------
State   Energy    Wavelength  fosc         T2        TX        TY        TZ
        (cm-1)      (nm)                 (au**2)    (au)      (au)      (au)
-----------------------------------------------------------------------------
   1   18569.5    538.5   0.690361436  12.23920   3.49846  -0.00074   0.00000
   2   24057.7    415.7   0.215688062   2.95154   0.00223  -1.71800  -0.00009
   3   25090.6    398.6   0.026033459   0.34158  -0.00004  -0.00022   0.58445
   4   28642.8    349.1   0.015765013   0.18120   0.00000   0.00004  -0.42567
   5   28776.8    347.5   0.000021858   0.00025  -0.00001  -0.00000  -0.01581
   6   27501.2    363.6   0.000008432   0.00010   0.00003  -0.00001   0.01005
   7   28402.3    352.1   0.001271739   0.01474   0.00002  -0.00000  -0.12141
   8   28289.4    353.5   0.000108056   0.00126  -0.00212   0.03540  -0.00022
   9   28281.0    353.6   0.000358914   0.00418  -0.00001  -0.00015  -0.06464
  10   33860.4    295.3   0.038813661   0.37737  -0.00003   0.00002   0.61431
  11   32157.4    311.0   0.020558698   0.21047  -0.01540  -0.45851   0.00001
  12   32414.1    308.5   0.005345262   0.05429  -0.22090   0.07412  -0.00002
  13   32570.2    307.0   0.000017726   0.00018   0.00007  -0.00012   0.01338
  14   33231.9    300.9   0.456274601   4.52008   0.01050  -2.12602   0.00001
  15   31846.1    314.0   0.030516667   0.31547  -0.00002   0.00004  -0.56167
  16   36325.5    275.3   0.000000012   0.00000   0.00000  -0.00000   0.00033
  17   35077.3    285.1   0.056244252   0.52787   0.00001   0.00013   0.72655
  18   38142.5    262.2   0.013290718   0.11471   0.33840   0.01406  -0.00004
  19   37240.4    268.5   0.552862002   4.88741  -0.00350   2.21075  -0.00003
  20   36327.7    275.3   0.000007433   0.00007  -0.00018  -0.00006  -0.00821
  21   39888.5    250.7   0.015331520   0.12654   0.30445   0.18398  -0.00001
  22   40065.9    249.6   0.014006760   0.11509  -0.25286   0.22617   0.00001
  23   38231.2    261.6   0.009196888   0.07920  -0.01129  -0.28119   0.00000
  24   42071.4    237.7   0.027407362   0.21446   0.45988  -0.05457   0.00001
  25   39655.4    252.2   0.054939150   0.45610  -0.07220  -0.67148   0.00001
  26   44560.5    224.4   0.000000072   0.00000  -0.00047   0.00000  -0.00055
  27   38431.3    260.2   0.048559685   0.41597  -0.64431   0.02900  -0.00003
  28   39976.5    250.1   0.002276958   0.01875  -0.12978  -0.04367   0.00000
  29   40437.9    247.3   0.000002110   0.00002   0.00000  -0.00004  -0.00414
  30   42115.0    237.4   1.137117437   8.88883  -2.98140  -0.00758  -0.00001

Dispersion correction           -0.073330394
FINAL SINGLE POINT ENERGY     -3245.066115667396

DIPOLE MOMENT
-------------
                                X             Y             Z
Electronic contribution:      0.00001       0.00002      -0.10961
Nuclear contribution   :      0.00000      -0.00000       0.11258
                        -----------------------------------------
Total Dipole Moment    :      0.00001       0.00002       0.00297
                        -----------------------------------------
Magnitude (a.u.)       :      0.00297
Magnitude (Debye)      :      0.00754

Rotational constants in cm-1:     0.005049     0.002246     0.001678
Rotational constants in MHz :   151.365717    67.318622    50.310932

                             ****ORCA TERMINATED NORMALLY****
TOTAL RUN TIME: 0 days 2 hours 47 minutes 25 seconds 355 msec
