                         Program Version 5.0.2 -  RELEASE  -
|  1> %maxcore 20000
|  2> %pal
|  3>  nprocs= 4
|  4> end
|  5> ! RI-B2GP-PLYP   def2-TZVP def2/J def2-TZVP/C RIJCOSX CPCM TightSCF
|  6> %TDDFT
|  7>    NROOTS   30
|  8>    dcorr 4
|  9>    TDA      FALSE
| 10> END
| 11>
| 12> %CPCM
| 13>    SMD          TRUE
| 14>    SMDsolvent   "DICHLOROMETHANE"
| 15> END
| 16>
| 17>
| 18> * xyz 0 1
| 19> C                   1.43137300    2.29418800    0.70438500
| 20> C                   0.70439600    1.22302400    0.17341900
| 21> C                   1.41160100   -0.00015500   -0.00126900
| 22> C                   2.82474200   -0.00027400   -0.00119400
| 23> C                   3.52149700    1.15730000    0.38105200
| 24> C                   2.82228800    2.26690200    0.79369700
| 25> C                   0.70405000   -1.22300200   -0.17559400
| 26> C                   3.52285500   -1.15758300   -0.38266900
| 27> H                   3.35673600    3.12398000    1.17950300
| 28> C                   2.82228800   -2.26663500   -0.79522700
| 29> C                   1.43137300   -2.29391200   -0.70639200
| 30> H                   3.35628000   -3.12414500   -1.18047800
| 31> C                  -0.70405000    1.22300200   -0.17559400
| 32> C                  -1.41160100    0.00015500   -0.00126900
| 33> C                  -1.43137300    2.29391200   -0.70639200
| 34> C                  -0.70439600   -1.22302400    0.17341900
| 35> C                  -2.82474200    0.00027400   -0.00119400
| 36> C                  -2.82228800    2.26663500   -0.79522700
| 37> C                  -1.43137300   -2.29418800    0.70438500
| 38> C                  -3.52149700   -1.15730000    0.38105200
| 39> C                  -3.52285500    1.15758300   -0.38266900
| 40> H                  -3.35628000    3.12414500   -1.18047800
| 41> C                  -2.82228800   -2.26690200    0.79369700
| 42> H                  -3.35673600   -3.12398000    1.17950300
| 43> C                   4.99064900    1.16612600    0.40310100
| 44> O                   5.64225000    2.13307100    0.75315200
| 45> C                   4.99419600   -1.17543900   -0.40560700
| 46> O                   5.62839400   -2.15226100   -0.75801100
| 47> N                   5.63329500   -0.00261900    0.00024400
| 48> C                  -4.99064900   -1.16612600    0.40310100
| 49> O                  -5.64225000   -2.13307100    0.75315200
| 50> C                  -4.99419600    1.17543900   -0.40560700
| 51> O                  -5.62839400    2.15226100   -0.75801100
| 52> N                  -5.63329500    0.00261900    0.00024400
| 53> C                   7.08797400    0.03123000    0.01520000
| 54> H                   7.45013100    0.82016800   -0.64041300
| 55> H                   7.45483800   -0.92943800   -0.32481800
| 56> H                   7.44679400    0.23066200    1.02272400
| 57> C                  -7.08797400   -0.03123000    0.01520000
| 58> H                  -7.45013100   -0.82016800   -0.64041300
| 59> H                  -7.45483800    0.92943800   -0.32481800
| 60> H                  -7.44679400   -0.23066200    1.02272400
| 61> Cl                 -0.64800500    3.66045300   -1.41777100
| 62> Cl                 -0.64757500   -3.66049400    1.41560800
| 63> Cl                  0.64800500   -3.66045300   -1.41777100
| 64> Cl                  0.64757500    3.66049400    1.41560800
| 65> *
| 66>
| 67>
| 68>                          ****END OF INPUT****

CARTESIAN COORDINATES (ANGSTROEM)
---------------------------------
  C      1.431373    2.294188    0.704385
  C      0.704396    1.223024    0.173419
  C      1.411601   -0.000155   -0.001269
  C      2.824742   -0.000274   -0.001194
  C      3.521497    1.157300    0.381052
  C      2.822288    2.266902    0.793697
  C      0.704050   -1.223002   -0.175594
  C      3.522855   -1.157583   -0.382669
  H      3.356736    3.123980    1.179503
  C      2.822288   -2.266635   -0.795227
  C      1.431373   -2.293912   -0.706392
  H      3.356280   -3.124145   -1.180478
  C     -0.704050    1.223002   -0.175594
  C     -1.411601    0.000155   -0.001269
  C     -1.431373    2.293912   -0.706392
  C     -0.704396   -1.223024    0.173419
  C     -2.824742    0.000274   -0.001194
  C     -2.822288    2.266635   -0.795227
  C     -1.431373   -2.294188    0.704385
  C     -3.521497   -1.157300    0.381052
  C     -3.522855    1.157583   -0.382669
  H     -3.356280    3.124145   -1.180478
  C     -2.822288   -2.266902    0.793697
  H     -3.356736   -3.123980    1.179503
  C      4.990649    1.166126    0.403101
  O      5.642250    2.133071    0.753152
  C      4.994196   -1.175439   -0.405607
  O      5.628394   -2.152261   -0.758011
  N      5.633295   -0.002619    0.000244
  C     -4.990649   -1.166126    0.403101
  O     -5.642250   -2.133071    0.753152
  C     -4.994196    1.175439   -0.405607
  O     -5.628394    2.152261   -0.758011
  N     -5.633295    0.002619    0.000244
  C      7.087974    0.031230    0.015200
  H      7.450131    0.820168   -0.640413
  H      7.454838   -0.929438   -0.324818
  H      7.446794    0.230662    1.022724
  C     -7.087974   -0.031230    0.015200
  H     -7.450131   -0.820168   -0.640413
  H     -7.454838    0.929438   -0.324818
  H     -7.446794   -0.230662    1.022724
  Cl    -0.648005    3.660453   -1.417771
  Cl    -0.647575   -3.660494    1.415608
  Cl     0.648005   -3.660453   -1.417771
  Cl     0.647575    3.660494    1.415608

 Total Charge           Charge          ....    0
 Multiplicity           Mult            ....    1
 Number of Electrons    NEL             ....  280
 Basis Dimension        Dim             .... 1200

ORBITAL ENERGIES
----------------

  NO   OCC          E(Eh)            E(eV)
   0   2.0000    -103.422670     -2814.2739
   1   2.0000    -103.422670     -2814.2739
   2   2.0000    -103.422637     -2814.2730
   3   2.0000    -103.422637     -2814.2730
   4   2.0000     -19.933357      -542.4142
   5   2.0000     -19.933357      -542.4142
   6   2.0000     -19.933321      -542.4132
   7   2.0000     -19.933321      -542.4132
   8   2.0000     -15.087527      -410.5525
   9   2.0000     -15.087527      -410.5525
  10   2.0000     -10.919905      -297.1457
  11   2.0000     -10.919904      -297.1457
  12   2.0000     -10.917579      -297.0824
  13   2.0000     -10.917578      -297.0824
  14   2.0000     -10.871725      -295.8347
  15   2.0000     -10.871724      -295.8346
  16   2.0000     -10.871643      -295.8324
  17   2.0000     -10.871641      -295.8324
  18   2.0000     -10.840200      -294.9768
  19   2.0000     -10.840189      -294.9765
  20   2.0000     -10.839545      -294.9590
  21   2.0000     -10.839509      -294.9580
  22   2.0000     -10.830395      -294.7100
  23   2.0000     -10.830391      -294.7099
  24   2.0000     -10.824434      -294.5478
  25   2.0000     -10.824433      -294.5478
  26   2.0000     -10.818120      -294.3760
  27   2.0000     -10.818119      -294.3760
  28   2.0000     -10.817887      -294.3697
  29   2.0000     -10.817884      -294.3696
  30   2.0000     -10.816265      -294.3255
  31   2.0000     -10.816265      -294.3255
  32   2.0000     -10.816220      -294.3243
  33   2.0000     -10.816219      -294.3243
  34   2.0000     -10.798004      -293.8286
  35   2.0000     -10.798003      -293.8286
  36   2.0000     -10.101902      -274.8867
  37   2.0000     -10.101902      -274.8867
  38   2.0000     -10.101868      -274.8858
  39   2.0000     -10.101868      -274.8858
  40   2.0000      -7.697750      -209.4664
  41   2.0000      -7.697750      -209.4664
  42   2.0000      -7.697718      -209.4656
  43   2.0000      -7.697718      -209.4656
  44   2.0000      -7.693078      -209.3393
  45   2.0000      -7.693077      -209.3393
  46   2.0000      -7.693044      -209.3384
  47   2.0000      -7.693043      -209.3384
  48   2.0000      -7.692918      -209.3349
  49   2.0000      -7.692918      -209.3349
  50   2.0000      -7.692884      -209.3340
  51   2.0000      -7.692884      -209.3340
  52   2.0000      -1.278113       -34.7792
  53   2.0000      -1.278111       -34.7792
  54   2.0000      -1.258125       -34.2353
  55   2.0000      -1.258124       -34.2353
  56   2.0000      -1.138117       -30.9697
  57   2.0000      -1.135834       -30.9076
  58   2.0000      -1.127722       -30.6869
  59   2.0000      -1.097856       -29.8742
  60   2.0000      -1.093674       -29.7604
  61   2.0000      -1.070715       -29.1356
  62   2.0000      -1.049338       -28.5539
  63   2.0000      -1.038216       -28.2513
  64   2.0000      -1.026811       -27.9409
  65   2.0000      -0.995325       -27.0842
  66   2.0000      -0.989370       -26.9221
  67   2.0000      -0.959876       -26.1195
  68   2.0000      -0.954826       -25.9821
  69   2.0000      -0.912815       -24.8390
  70   2.0000      -0.908998       -24.7351
  71   2.0000      -0.889824       -24.2134
  72   2.0000      -0.882529       -24.0148
  73   2.0000      -0.861778       -23.4502
  74   2.0000      -0.848147       -23.0792
  75   2.0000      -0.817806       -22.2536
  76   2.0000      -0.804275       -21.8854
  77   2.0000      -0.792075       -21.5535
  78   2.0000      -0.776130       -21.1196
  79   2.0000      -0.763803       -20.7841
  80   2.0000      -0.754596       -20.5336
  81   2.0000      -0.747761       -20.3476
  82   2.0000      -0.698627       -19.0106
  83   2.0000      -0.678998       -18.4765
  84   2.0000      -0.674909       -18.3652
  85   2.0000      -0.665691       -18.1144
  86   2.0000      -0.663103       -18.0440
  87   2.0000      -0.646508       -17.5924
  88   2.0000      -0.626023       -17.0350
  89   2.0000      -0.610112       -16.6020
  90   2.0000      -0.604001       -16.4357
  91   2.0000      -0.596986       -16.2448
  92   2.0000      -0.595097       -16.1934
  93   2.0000      -0.592324       -16.1180
  94   2.0000      -0.587887       -15.9972
  95   2.0000      -0.581564       -15.8252
  96   2.0000      -0.581267       -15.8171
  97   2.0000      -0.573825       -15.6146
  98   2.0000      -0.570526       -15.5248
  99   2.0000      -0.568674       -15.4744
 100   2.0000      -0.556999       -15.1567
 101   2.0000      -0.553154       -15.0521
 102   2.0000      -0.539180       -14.6718
 103   2.0000      -0.529061       -14.3965
 104   2.0000      -0.527585       -14.3563
 105   2.0000      -0.527316       -14.3490
 106   2.0000      -0.525570       -14.3015
 107   2.0000      -0.515505       -14.0276
 108   2.0000      -0.512013       -13.9326
 109   2.0000      -0.510338       -13.8870
 110   2.0000      -0.505315       -13.7503
 111   2.0000      -0.495121       -13.4729
 112   2.0000      -0.493813       -13.4373
 113   2.0000      -0.490016       -13.3340
 114   2.0000      -0.488549       -13.2941
 115   2.0000      -0.487510       -13.2658
 116   2.0000      -0.484669       -13.1885
 117   2.0000      -0.476905       -12.9773
 118   2.0000      -0.473092       -12.8735
 119   2.0000      -0.458940       -12.4884
 120   2.0000      -0.455014       -12.3816
 121   2.0000      -0.440014       -11.9734
 122   2.0000      -0.420335       -11.4379
 123   2.0000      -0.415933       -11.3181
 124   2.0000      -0.410650       -11.1744
 125   2.0000      -0.406558       -11.0630
 126   2.0000      -0.400099       -10.8872
 127   2.0000      -0.399336       -10.8665
 128   2.0000      -0.399075       -10.8594
 129   2.0000      -0.392470       -10.6796
 130   2.0000      -0.381965       -10.3938
 131   2.0000      -0.381515       -10.3815
 132   2.0000      -0.381338       -10.3767
 133   2.0000      -0.362491        -9.8639
 134   2.0000      -0.360362        -9.8060
 135   2.0000      -0.336067        -9.1448
 136   2.0000      -0.331873        -9.0307
 137   2.0000      -0.315243        -8.5782
 138   2.0000      -0.308317        -8.3897
 139   2.0000      -0.263310        -7.1650
 140   0.0000      -0.081238        -2.2106
 141   0.0000      -0.017911        -0.4874
 142   0.0000      -0.002688        -0.0731
 143   0.0000       0.021736         0.5915
 144   0.0000       0.023015         0.6263

MULLIKEN ATOMIC CHARGES
-----------------------
   0 C :    0.064405
   1 C :    0.099538
   2 C :    0.033758
   3 C :    0.076917
   4 C :    0.055356
   5 C :   -0.249750
   6 C :    0.097178
   7 C :    0.053247
   8 H :    0.186186
   9 C :   -0.243689
  10 C :    0.059862
  11 H :    0.186968
  12 C :    0.097221
  13 C :    0.033220
  14 C :    0.060949
  15 C :    0.099977
  16 C :    0.076651
  17 C :   -0.244823
  18 C :    0.064124
  19 C :    0.055772
  20 C :    0.053845
  21 H :    0.186724
  22 C :   -0.249956
  23 H :    0.186121
  24 C :    0.305799
  25 O :   -0.462734
  26 C :    0.293565
  27 O :   -0.466881
  28 N :   -0.113210
  29 C :    0.305524
  30 O :   -0.462589
  31 C :    0.294472
  32 O :   -0.466886
  33 N :   -0.113358
  34 C :   -0.275183
  35 H :    0.146079
  36 H :    0.169266
  37 H :    0.146092
  38 C :   -0.275161
  39 H :    0.146086
  40 H :    0.169251
  41 H :    0.146105
  42 Cl:   -0.081507
  43 Cl:   -0.081447
  44 Cl:   -0.081614
  45 Cl:   -0.081469
Sum of atomic charges:   -0.0000000

LOEWDIN ATOMIC CHARGES
----------------------
   0 C :   -0.372193
   1 C :   -0.040749
   2 C :    0.014277
   3 C :   -0.013977
   4 C :   -0.065254
   5 C :   -0.052804
   6 C :   -0.040711
   7 C :   -0.064451
   8 H :    0.170002
   9 C :   -0.052874
  10 C :   -0.372246
  11 H :    0.170021
  12 C :   -0.040711
  13 C :    0.014276
  14 C :   -0.372244
  15 C :   -0.040747
  16 C :   -0.013978
  17 C :   -0.052875
  18 C :   -0.372197
  19 C :   -0.065254
  20 C :   -0.064450
  21 H :    0.170022
  22 C :   -0.052801
  23 H :    0.170001
  24 C :   -0.297686
  25 O :    0.050972
  26 C :   -0.297249
  27 O :    0.045130
  28 N :    0.229641
  29 C :   -0.297682
  30 O :    0.050966
  31 C :   -0.297252
  32 O :    0.045135
  33 N :    0.229640
  34 C :   -0.239901
  35 H :    0.123219
  36 H :    0.128596
  37 H :    0.123134
  38 C :   -0.239901
  39 H :    0.123219
  40 H :    0.128596
  41 H :    0.123134
  42 Cl:    0.427494
  43 Cl:    0.427612
  44 Cl:    0.427494
  45 Cl:    0.427609

  Mayer bond orders larger than 0.100000
B(  0-C ,  1-C ) :   1.3174 B(  0-C ,  5-C ) :   1.2688 B(  0-C , 45-Cl) :   1.0887
B(  1-C ,  2-C ) :   1.2153 B(  1-C , 12-C ) :   0.9513 B(  2-C ,  3-C ) :   1.3166
B(  2-C ,  6-C ) :   1.2187 B(  3-C ,  4-C ) :   1.2704 B(  3-C ,  7-C ) :   1.2814
B(  4-C ,  5-C ) :   1.4667 B(  4-C , 24-C ) :   0.9777 B(  4-C , 25-O ) :  -0.1423
B(  5-C ,  8-H ) :   0.9665 B(  6-C , 10-C ) :   1.3183 B(  6-C , 15-C ) :   0.9513
B(  7-C ,  9-C ) :   1.4671 B(  7-C , 26-C ) :   0.9704 B(  7-C , 27-O ) :  -0.1466
B(  9-C , 10-C ) :   1.2692 B(  9-C , 11-H ) :   0.9650 B( 10-C , 44-Cl) :   1.0900
B( 12-C , 13-C ) :   1.2192 B( 12-C , 14-C ) :   1.3176 B( 13-C , 15-C ) :   1.2156
B( 13-C , 16-C ) :   1.3178 B( 14-C , 17-C ) :   1.2677 B( 14-C , 42-Cl) :   1.0906
B( 15-C , 18-C ) :   1.3173 B( 16-C , 19-C ) :   1.2709 B( 16-C , 20-C ) :   1.2809
B( 17-C , 20-C ) :   1.4673 B( 17-C , 21-H ) :   0.9661 B( 18-C , 22-C ) :   1.2692
B( 18-C , 43-Cl) :   1.0892 B( 19-C , 22-C ) :   1.4661 B( 19-C , 29-C ) :   0.9771
B( 19-C , 30-O ) :  -0.1414 B( 20-C , 31-C ) :   0.9702 B( 20-C , 32-O ) :  -0.1468
B( 22-C , 23-H ) :   0.9665 B( 24-C , 25-O ) :   2.0085 B( 24-C , 28-N ) :   1.1730
B( 26-C , 27-O ) :   2.0051 B( 26-C , 28-N ) :   1.1895 B( 28-N , 34-C ) :   0.8655
B( 29-C , 30-O ) :   2.0081 B( 29-C , 33-N ) :   1.1731 B( 31-C , 32-O ) :   2.0052
B( 31-C , 33-N ) :   1.1896 B( 33-N , 38-C ) :   0.8655 B( 34-C , 35-H ) :   0.9732
B( 34-C , 36-H ) :   0.9647 B( 34-C , 37-H ) :   0.9732 B( 38-C , 39-H ) :   0.9732
B( 38-C , 40-H ) :   0.9648 B( 38-C , 41-H ) :   0.9732

MP2 TOTAL ENERGY:    -3246.619164439 Eh

-----------------------------------------------------------------------------
         ABSORPTION SPECTRUM VIA TRANSITION ELECTRIC DIPOLE MOMENTS
-----------------------------------------------------------------------------
State   Energy    Wavelength  fosc         T2        TX        TY        TZ
        (cm-1)      (nm)                 (au**2)    (au)      (au)      (au)
-----------------------------------------------------------------------------
   1   19433.3    514.6   0.733985726  12.43419  -3.52621   0.00052  -0.00000
   2   24861.5    402.2   0.235139375   3.11368   0.00164  -1.76456  -0.00015
   3   25822.0    387.3   0.026981203   0.34399   0.00004   0.00040  -0.58651
   4   29941.4    334.0   0.021638112   0.23792   0.00001   0.00005  -0.48777
   5   30336.1    329.6   0.000029319   0.00032  -0.00001   0.00000  -0.01784
   6   28370.5    352.5   0.000001374   0.00002  -0.00003   0.00001  -0.00399
   7   29464.5    339.4   0.000435073   0.00486  -0.00002   0.00000   0.06972
   8   30858.7    324.1   0.000072706   0.00078   0.00313  -0.02767   0.00016
   9   30858.8    324.1   0.000339989   0.00363  -0.00001  -0.00013  -0.06023
  10   35325.7    283.1   0.065094483   0.60664  -0.00003   0.00004   0.77887
  11   34953.2    286.1   0.275984970   2.59940  -0.00618  -1.61225   0.00002
  12   34650.6    288.6   0.005130468   0.04874  -0.21107   0.06475  -0.00003
  13   34803.9    287.3   0.000003226   0.00003   0.00004   0.00003   0.00552
  14   34335.8    291.2   0.429292943   4.11606  -0.02511   2.02865   0.00000
  15   33725.2    296.5   0.026549657   0.25917   0.00004  -0.00003   0.50908
  16   37606.6    265.9   0.000803852   0.00704  -0.00005  -0.00005  -0.08389
  17   39561.3    252.8   0.017712840   0.14740  -0.38119  -0.04576   0.00002
  18   36553.8    273.6   0.053959907   0.48598  -0.00003   0.00021   0.69712
  19   41734.5    239.6   0.082045816   0.64720  -0.00594  -0.80446   0.00007
  20   41864.0    238.9   0.015538490   0.12219  -0.34825   0.03023  -0.00003
  21   39337.5    254.2   0.527969258   4.41852   0.02986  -2.10182   0.00003
  22   42906.8    233.1   0.161760234   1.24114  -1.11130  -0.07842  -0.00001
  23   38739.9    258.1   0.000011699   0.00010  -0.00001   0.00009   0.00997
  24   45276.0    220.9   0.000000070   0.00000   0.00007   0.00003   0.00071
  25   39841.3    251.0   0.000316040   0.00261  -0.04561  -0.02304   0.00000
  26   40415.8    247.4   0.027894987   0.22722   0.01073   0.47656  -0.00001
  27   44031.2    227.1   1.521027877  11.37240   3.37230  -0.00255   0.00002
  28   41604.8    240.4   0.010287818   0.08141  -0.28477  -0.01768   0.00001
  29   40876.9    244.6   0.248183349   1.99880   1.41360   0.02331  -0.00002
  30   43783.2    228.4   0.348118923   2.61756  -1.61781  -0.01597   0.00002

FINAL SINGLE POINT ENERGY     -3244.005280869718

DIPOLE MOMENT
-------------
                                X             Y             Z
Electronic contribution:      0.00001       0.00003      -0.10979
Nuclear contribution   :      0.00000      -0.00000       0.11258
                        -----------------------------------------
Total Dipole Moment    :      0.00001       0.00003       0.00279
                        -----------------------------------------
Magnitude (a.u.)       :      0.00279
Magnitude (Debye)      :      0.00709

Rotational constants in cm-1:     0.005049     0.002246     0.001678
Rotational constants in MHz :   151.365717    67.318622    50.310932

                             ****ORCA TERMINATED NORMALLY****
TOTAL RUN TIME: 0 days 23 hours 47 minutes 3 seconds 182 msec
