                         Program Version 5.0.2 -  RELEASE  -
|  1> %maxcore 20000
|  2> %pal
|  3>  nprocs= 4
|  4> end
|  5> ! RI-wPBEPP86   def2-TZVP def2/J def2-TZVP/C RIJCOSX CPCM TightSCF
|  6> %TDDFT
|  7>    NROOTS   30
|  8>    dcorr 1
|  9>    TDA      FALSE
| 10> END
| 11>
| 12> %CPCM
| 13>    SMD          TRUE
| 14>    SMDsolvent   "DICHLOROMETHANE"
| 15> END
| 16>
| 17>
| 18> * xyz 0 1
| 19> C                   1.43137300    2.29418800    0.70438500
| 20> C                   0.70439600    1.22302400    0.17341900
| 21> C                   1.41160100   -0.00015500   -0.00126900
| 22> C                   2.82474200   -0.00027400   -0.00119400
| 23> C                   3.52149700    1.15730000    0.38105200
| 24> C                   2.82228800    2.26690200    0.79369700
| 25> C                   0.70405000   -1.22300200   -0.17559400
| 26> C                   3.52285500   -1.15758300   -0.38266900
| 27> H                   3.35673600    3.12398000    1.17950300
| 28> C                   2.82228800   -2.26663500   -0.79522700
| 29> C                   1.43137300   -2.29391200   -0.70639200
| 30> H                   3.35628000   -3.12414500   -1.18047800
| 31> C                  -0.70405000    1.22300200   -0.17559400
| 32> C                  -1.41160100    0.00015500   -0.00126900
| 33> C                  -1.43137300    2.29391200   -0.70639200
| 34> C                  -0.70439600   -1.22302400    0.17341900
| 35> C                  -2.82474200    0.00027400   -0.00119400
| 36> C                  -2.82228800    2.26663500   -0.79522700
| 37> C                  -1.43137300   -2.29418800    0.70438500
| 38> C                  -3.52149700   -1.15730000    0.38105200
| 39> C                  -3.52285500    1.15758300   -0.38266900
| 40> H                  -3.35628000    3.12414500   -1.18047800
| 41> C                  -2.82228800   -2.26690200    0.79369700
| 42> H                  -3.35673600   -3.12398000    1.17950300
| 43> C                   4.99064900    1.16612600    0.40310100
| 44> O                   5.64225000    2.13307100    0.75315200
| 45> C                   4.99419600   -1.17543900   -0.40560700
| 46> O                   5.62839400   -2.15226100   -0.75801100
| 47> N                   5.63329500   -0.00261900    0.00024400
| 48> C                  -4.99064900   -1.16612600    0.40310100
| 49> O                  -5.64225000   -2.13307100    0.75315200
| 50> C                  -4.99419600    1.17543900   -0.40560700
| 51> O                  -5.62839400    2.15226100   -0.75801100
| 52> N                  -5.63329500    0.00261900    0.00024400
| 53> C                   7.08797400    0.03123000    0.01520000
| 54> H                   7.45013100    0.82016800   -0.64041300
| 55> H                   7.45483800   -0.92943800   -0.32481800
| 56> H                   7.44679400    0.23066200    1.02272400
| 57> C                  -7.08797400   -0.03123000    0.01520000
| 58> H                  -7.45013100   -0.82016800   -0.64041300
| 59> H                  -7.45483800    0.92943800   -0.32481800
| 60> H                  -7.44679400   -0.23066200    1.02272400
| 61> Cl                 -0.64800500    3.66045300   -1.41777100
| 62> Cl                 -0.64757500   -3.66049400    1.41560800
| 63> Cl                  0.64800500   -3.66045300   -1.41777100
| 64> Cl                  0.64757500    3.66049400    1.41560800
| 65> *
| 66>
| 67>
| 68>                          ****END OF INPUT****

CARTESIAN COORDINATES (ANGSTROEM)
---------------------------------
  C      1.431373    2.294188    0.704385
  C      0.704396    1.223024    0.173419
  C      1.411601   -0.000155   -0.001269
  C      2.824742   -0.000274   -0.001194
  C      3.521497    1.157300    0.381052
  C      2.822288    2.266902    0.793697
  C      0.704050   -1.223002   -0.175594
  C      3.522855   -1.157583   -0.382669
  H      3.356736    3.123980    1.179503
  C      2.822288   -2.266635   -0.795227
  C      1.431373   -2.293912   -0.706392
  H      3.356280   -3.124145   -1.180478
  C     -0.704050    1.223002   -0.175594
  C     -1.411601    0.000155   -0.001269
  C     -1.431373    2.293912   -0.706392
  C     -0.704396   -1.223024    0.173419
  C     -2.824742    0.000274   -0.001194
  C     -2.822288    2.266635   -0.795227
  C     -1.431373   -2.294188    0.704385
  C     -3.521497   -1.157300    0.381052
  C     -3.522855    1.157583   -0.382669
  H     -3.356280    3.124145   -1.180478
  C     -2.822288   -2.266902    0.793697
  H     -3.356736   -3.123980    1.179503
  C      4.990649    1.166126    0.403101
  O      5.642250    2.133071    0.753152
  C      4.994196   -1.175439   -0.405607
  O      5.628394   -2.152261   -0.758011
  N      5.633295   -0.002619    0.000244
  C     -4.990649   -1.166126    0.403101
  O     -5.642250   -2.133071    0.753152
  C     -4.994196    1.175439   -0.405607
  O     -5.628394    2.152261   -0.758011
  N     -5.633295    0.002619    0.000244
  C      7.087974    0.031230    0.015200
  H      7.450131    0.820168   -0.640413
  H      7.454838   -0.929438   -0.324818
  H      7.446794    0.230662    1.022724
  C     -7.087974   -0.031230    0.015200
  H     -7.450131   -0.820168   -0.640413
  H     -7.454838    0.929438   -0.324818
  H     -7.446794   -0.230662    1.022724
  Cl    -0.648005    3.660453   -1.417771
  Cl    -0.647575   -3.660494    1.415608
  Cl     0.648005   -3.660453   -1.417771
  Cl     0.647575    3.660494    1.415608

 Total Charge           Charge          ....    0
 Multiplicity           Mult            ....    1
 Number of Electrons    NEL             ....  280
 Basis Dimension        Dim             .... 1200

ORBITAL ENERGIES
----------------

  NO   OCC          E(Eh)            E(eV)
   0   2.0000    -103.652338     -2820.5235
   1   2.0000    -103.652337     -2820.5235
   2   2.0000    -103.652305     -2820.5226
   3   2.0000    -103.652305     -2820.5226
   4   2.0000     -20.053397      -545.6807
   5   2.0000     -20.053397      -545.6807
   6   2.0000     -20.053329      -545.6788
   7   2.0000     -20.053329      -545.6788
   8   2.0000     -15.195751      -413.4974
   9   2.0000     -15.195750      -413.4974
  10   2.0000     -11.012353      -299.6614
  11   2.0000     -11.012352      -299.6613
  12   2.0000     -11.009983      -299.5969
  13   2.0000     -11.009983      -299.5969
  14   2.0000     -10.966539      -298.4147
  15   2.0000     -10.966538      -298.4147
  16   2.0000     -10.966458      -298.4125
  17   2.0000     -10.966457      -298.4125
  18   2.0000     -10.934440      -297.5412
  19   2.0000     -10.934428      -297.5409
  20   2.0000     -10.933761      -297.5228
  21   2.0000     -10.933724      -297.5217
  22   2.0000     -10.924393      -297.2678
  23   2.0000     -10.924388      -297.2677
  24   2.0000     -10.918168      -297.0984
  25   2.0000     -10.918167      -297.0984
  26   2.0000     -10.911289      -296.9113
  27   2.0000     -10.911288      -296.9112
  28   2.0000     -10.911033      -296.9043
  29   2.0000     -10.911032      -296.9043
  30   2.0000     -10.909031      -296.8498
  31   2.0000     -10.909031      -296.8498
  32   2.0000     -10.908985      -296.8486
  33   2.0000     -10.908985      -296.8486
  34   2.0000     -10.885756      -296.2165
  35   2.0000     -10.885756      -296.2165
  36   2.0000     -10.218032      -278.0468
  37   2.0000     -10.218032      -278.0468
  38   2.0000     -10.218000      -278.0459
  39   2.0000     -10.217999      -278.0459
  40   2.0000      -7.789388      -211.9600
  41   2.0000      -7.789388      -211.9600
  42   2.0000      -7.789357      -211.9592
  43   2.0000      -7.789356      -211.9592
  44   2.0000      -7.784988      -211.8403
  45   2.0000      -7.784988      -211.8403
  46   2.0000      -7.784955      -211.8394
  47   2.0000      -7.784955      -211.8394
  48   2.0000      -7.784852      -211.8366
  49   2.0000      -7.784852      -211.8366
  50   2.0000      -7.784819      -211.8357
  51   2.0000      -7.784819      -211.8357
  52   2.0000      -1.346265       -36.6337
  53   2.0000      -1.346262       -36.6336
  54   2.0000      -1.325726       -36.0748
  55   2.0000      -1.325725       -36.0748
  56   2.0000      -1.204158       -32.7668
  57   2.0000      -1.201119       -32.6841
  58   2.0000      -1.193893       -32.4875
  59   2.0000      -1.163818       -31.6691
  60   2.0000      -1.158795       -31.5324
  61   2.0000      -1.135014       -30.8853
  62   2.0000      -1.112871       -30.2828
  63   2.0000      -1.101281       -29.9674
  64   2.0000      -1.091464       -29.7002
  65   2.0000      -1.058068       -28.7915
  66   2.0000      -1.051998       -28.6263
  67   2.0000      -1.022755       -27.8306
  68   2.0000      -1.017299       -27.6821
  69   2.0000      -0.973851       -26.4998
  70   2.0000      -0.969894       -26.3922
  71   2.0000      -0.950543       -25.8656
  72   2.0000      -0.942811       -25.6552
  73   2.0000      -0.920874       -25.0583
  74   2.0000      -0.907584       -24.6966
  75   2.0000      -0.876459       -23.8497
  76   2.0000      -0.862695       -23.4751
  77   2.0000      -0.850634       -23.1469
  78   2.0000      -0.834021       -22.6949
  79   2.0000      -0.821409       -22.3517
  80   2.0000      -0.811873       -22.0922
  81   2.0000      -0.804266       -21.8852
  82   2.0000      -0.755450       -20.5568
  83   2.0000      -0.735051       -20.0018
  84   2.0000      -0.729632       -19.8543
  85   2.0000      -0.720244       -19.5988
  86   2.0000      -0.718715       -19.5572
  87   2.0000      -0.700493       -19.0614
  88   2.0000      -0.679155       -18.4808
  89   2.0000      -0.664022       -18.0690
  90   2.0000      -0.659095       -17.9349
  91   2.0000      -0.651872       -17.7383
  92   2.0000      -0.649820       -17.6825
  93   2.0000      -0.646030       -17.5794
  94   2.0000      -0.640324       -17.4241
  95   2.0000      -0.634439       -17.2640
  96   2.0000      -0.634209       -17.2577
  97   2.0000      -0.625265       -17.0143
  98   2.0000      -0.621763       -16.9190
  99   2.0000      -0.621694       -16.9172
 100   2.0000      -0.608860       -16.5679
 101   2.0000      -0.604216       -16.4415
 102   2.0000      -0.592178       -16.1140
 103   2.0000      -0.581636       -15.8271
 104   2.0000      -0.577173       -15.7057
 105   2.0000      -0.576867       -15.6974
 106   2.0000      -0.575189       -15.6517
 107   2.0000      -0.566957       -15.4277
 108   2.0000      -0.563281       -15.3276
 109   2.0000      -0.561459       -15.2781
 110   2.0000      -0.557050       -15.1581
 111   2.0000      -0.545527       -14.8446
 112   2.0000      -0.542696       -14.7675
 113   2.0000      -0.540795       -14.7158
 114   2.0000      -0.538053       -14.6412
 115   2.0000      -0.535071       -14.5600
 116   2.0000      -0.534438       -14.5428
 117   2.0000      -0.525787       -14.3074
 118   2.0000      -0.520288       -14.1578
 119   2.0000      -0.505868       -13.7654
 120   2.0000      -0.505839       -13.7646
 121   2.0000      -0.490198       -13.3390
 122   2.0000      -0.470251       -12.7962
 123   2.0000      -0.464934       -12.6515
 124   2.0000      -0.459858       -12.5134
 125   2.0000      -0.455393       -12.3919
 126   2.0000      -0.450242       -12.2517
 127   2.0000      -0.448708       -12.2100
 128   2.0000      -0.447491       -12.1769
 129   2.0000      -0.441471       -12.0130
 130   2.0000      -0.431791       -11.7496
 131   2.0000      -0.431472       -11.7410
 132   2.0000      -0.429986       -11.7005
 133   2.0000      -0.409382       -11.1398
 134   2.0000      -0.406860       -11.0712
 135   2.0000      -0.381363       -10.3774
 136   2.0000      -0.376370       -10.2415
 137   2.0000      -0.358689        -9.7604
 138   2.0000      -0.350897        -9.5484
 139   2.0000      -0.303090        -8.2475
 140   0.0000      -0.068783        -1.8717
 141   0.0000      -0.000966        -0.0263
 142   0.0000       0.014055         0.3825
 143   0.0000       0.038496         1.0475
 144   0.0000       0.039794         1.0828

MULLIKEN ATOMIC CHARGES
-----------------------
   0 C :   -0.002300
   1 C :    0.113643
   2 C :    0.018623
   3 C :    0.069443
   4 C :    0.024894
   5 C :   -0.223066
   6 C :    0.111566
   7 C :    0.023817
   8 H :    0.212835
   9 C :   -0.216875
  10 C :   -0.007179
  11 H :    0.213456
  12 C :    0.111483
  13 C :    0.018088
  14 C :   -0.005875
  15 C :    0.113924
  16 C :    0.069120
  17 C :   -0.218269
  18 C :   -0.002601
  19 C :    0.025498
  20 C :    0.024539
  21 H :    0.213165
  22 C :   -0.223322
  23 H :    0.212738
  24 C :    0.314243
  25 O :   -0.464323
  26 C :    0.299733
  27 O :   -0.471417
  28 N :   -0.101392
  29 C :    0.313864
  30 O :   -0.464157
  31 C :    0.300817
  32 O :   -0.471427
  33 N :   -0.101559
  34 C :   -0.343580
  35 H :    0.169504
  36 H :    0.188490
  37 H :    0.169501
  38 C :   -0.343559
  39 H :    0.169513
  40 H :    0.188473
  41 H :    0.169517
  42 Cl:   -0.049874
  43 Cl:   -0.049841
  44 Cl:   -0.050006
  45 Cl:   -0.049866
Sum of atomic charges:   -0.0000000

LOEWDIN ATOMIC CHARGES
----------------------
   0 C :   -0.377647
   1 C :   -0.043366
   2 C :    0.011968
   3 C :   -0.016532
   4 C :   -0.068523
   5 C :   -0.053562
   6 C :   -0.043325
   7 C :   -0.067699
   8 H :    0.176365
   9 C :   -0.053632
  10 C :   -0.377705
  11 H :    0.176368
  12 C :   -0.043324
  13 C :    0.011967
  14 C :   -0.377702
  15 C :   -0.043364
  16 C :   -0.016533
  17 C :   -0.053635
  18 C :   -0.377652
  19 C :   -0.068522
  20 C :   -0.067699
  21 H :    0.176370
  22 C :   -0.053558
  23 H :    0.176364
  24 C :   -0.301128
  25 O :    0.055174
  26 C :   -0.300534
  27 O :    0.048948
  28 N :    0.229647
  29 C :   -0.301123
  30 O :    0.055168
  31 C :   -0.300538
  32 O :    0.048953
  33 N :    0.229646
  34 C :   -0.251290
  35 H :    0.128680
  36 H :    0.133388
  37 H :    0.128593
  38 C :   -0.251290
  39 H :    0.128680
  40 H :    0.133388
  41 H :    0.128593
  42 Cl:    0.432849
  43 Cl:    0.432964
  44 Cl:    0.432849
  45 Cl:    0.432961

  Mayer bond orders larger than 0.100000
B(  0-C ,  1-C ) :   1.3206 B(  0-C ,  5-C ) :   1.2717 B(  0-C , 45-Cl) :   1.1610
B(  1-C ,  2-C ) :   1.2282 B(  1-C , 12-C ) :   0.9404 B(  2-C ,  3-C ) :   1.3294
B(  2-C ,  6-C ) :   1.2313 B(  3-C ,  4-C ) :   1.2760 B(  3-C ,  7-C ) :   1.2853
B(  4-C ,  5-C ) :   1.4858 B(  4-C , 24-C ) :   0.9721 B(  4-C , 25-O ) :  -0.1206
B(  5-C ,  8-H ) :   0.9383 B(  6-C , 10-C ) :   1.3211 B(  6-C , 15-C ) :   0.9403
B(  6-C , 44-Cl) :  -0.1016 B(  7-C ,  9-C ) :   1.4864 B(  7-C , 26-C ) :   0.9645
B(  7-C , 27-O ) :  -0.1232 B(  9-C , 10-C ) :   1.2727 B(  9-C , 11-H ) :   0.9369
B( 10-C , 44-Cl) :   1.1625 B( 12-C , 13-C ) :   1.2319 B( 12-C , 14-C ) :   1.3204
B( 12-C , 42-Cl) :  -0.1017 B( 13-C , 15-C ) :   1.2283 B( 13-C , 16-C ) :   1.3308
B( 14-C , 17-C ) :   1.2709 B( 14-C , 42-Cl) :   1.1634 B( 15-C , 18-C ) :   1.3205
B( 15-C , 43-Cl) :  -0.1011 B( 16-C , 19-C ) :   1.2764 B( 16-C , 20-C ) :   1.2846
B( 17-C , 20-C ) :   1.4867 B( 17-C , 21-H ) :   0.9382 B( 18-C , 22-C ) :   1.2722
B( 18-C , 43-Cl) :   1.1617 B( 19-C , 22-C ) :   1.4852 B( 19-C , 29-C ) :   0.9714
B( 19-C , 30-O ) :  -0.1197 B( 20-C , 31-C ) :   0.9643 B( 20-C , 32-O ) :  -0.1235
B( 22-C , 23-H ) :   0.9383 B( 24-C , 25-O ) :   1.9865 B( 24-C , 28-N ) :   1.1832
B( 26-C , 27-O ) :   1.9800 B( 26-C , 28-N ) :   1.2028 B( 28-N , 34-C ) :   0.8705
B( 29-C , 30-O ) :   1.9861 B( 29-C , 33-N ) :   1.1833 B( 31-C , 32-O ) :   1.9801
B( 31-C , 33-N ) :   1.2030 B( 33-N , 38-C ) :   0.8705 B( 34-C , 35-H ) :   0.9671
B( 34-C , 36-H ) :   0.9567 B( 34-C , 37-H ) :   0.9672 B( 38-C , 39-H ) :   0.9671
B( 38-C , 40-H ) :   0.9567 B( 38-C , 41-H ) :   0.9671

MP2 TOTAL ENERGY:    -3246.936652611 Eh

-----------------------------------------------------------------------------
         ABSORPTION SPECTRUM VIA TRANSITION ELECTRIC DIPOLE MOMENTS
-----------------------------------------------------------------------------
State   Energy    Wavelength  fosc         T2        TX        TY        TZ
        (cm-1)      (nm)                 (au**2)    (au)      (au)      (au)
-----------------------------------------------------------------------------
   1   20564.9    486.3   0.779098461  12.47217   3.53160  -0.00060   0.00001
   2   25721.1    388.8   0.246378963   3.15348   0.00107  -1.77580  -0.00024
   3   26716.6    374.3   0.029190278   0.35969  -0.00006  -0.00065   0.59974
   4   31241.0    320.1   0.023795025   0.25075  -0.00000  -0.00006   0.50075
   5   31676.7    315.7   0.000029165   0.00030   0.00002  -0.00000   0.01741
   6   30975.8    322.8   0.000000158   0.00000   0.00004   0.00000  -0.00130
   7   31405.9    318.4   0.000011357   0.00012   0.00003   0.00002  -0.01091
   8   32543.4    307.3   0.000042297   0.00043  -0.00478   0.02013  -0.00004
   9   32575.3    307.0   0.000226786   0.00229   0.00002   0.00009   0.04787
  10   36809.2    271.7   0.087211271   0.78000  -0.00004   0.00008   0.88317
  11   36836.2    271.5   0.498758792   4.45749   0.00576   2.11127  -0.00003
  12   36019.4    277.6   0.004381039   0.04004   0.19306  -0.05264   0.00005
  13   36165.2    276.5   0.000001228   0.00001  -0.00004  -0.00007  -0.00334
  14   38451.9    260.1   0.539212391   4.61655   0.04137  -2.14822  -0.00001
  15   38995.1    256.4   0.000043694   0.00037  -0.00027  -0.00035   0.01920
  16   40979.5    244.0   0.015177372   0.12193  -0.33352  -0.10342  -0.00005
  17   35718.1    280.0   0.048995670   0.45159  -0.00001   0.00000  -0.67201
  18   41542.8    240.7   0.076806929   0.60867   0.04192  -0.77904   0.00002
  19   45089.1    221.8   0.326214122   2.38181  -1.54328  -0.00925   0.00002
  20   43378.2    230.5   0.174034651   1.32081  -1.14924  -0.00787  -0.00011
  21   39316.1    254.3   0.034388864   0.28795   0.00014  -0.00031  -0.53661
  22   46506.0    215.0   0.000008743   0.00006  -0.00024  -0.00014   0.00786
  23   41193.2    242.8   0.447819308   3.57893  -0.03268  -1.89152   0.00008
  24   41698.6    239.8   0.000009919   0.00008  -0.00005  -0.00036  -0.00884
  25   41869.5    238.8   0.081870223   0.64373   0.06687  -0.79954   0.00001
  26   42550.8    235.0   0.012679751   0.09810   0.06577   0.30623  -0.00001
  27   45566.2    219.5   1.548073239  11.18471   3.34432   0.01537   0.00001
  28   45334.8    220.6   0.000083105   0.00060  -0.02293  -0.00882   0.00001
  29   44541.4    224.5   0.002108449   0.01558  -0.03520  -0.11977  -0.00000
  30   47593.8    210.1   0.000001150   0.00001  -0.00022   0.00009  -0.00281

FINAL SINGLE POINT ENERGY     -3243.689051395837

DIPOLE MOMENT
-------------
                                X             Y             Z
Electronic contribution:      0.00001       0.00003      -0.10756
Nuclear contribution   :      0.00000      -0.00000       0.11258
                        -----------------------------------------
Total Dipole Moment    :      0.00001       0.00003       0.00502
                        -----------------------------------------
Magnitude (a.u.)       :      0.00502
Magnitude (Debye)      :      0.01276

Rotational constants in cm-1:     0.005049     0.002246     0.001678
Rotational constants in MHz :   151.365717    67.318622    50.310932

                             ****ORCA TERMINATED NORMALLY****
TOTAL RUN TIME: 0 days 14 hours 39 minutes 1 seconds 453 msec
