                         Program Version 5.0.2 -  RELEASE  -
|  1> %maxcore 32000
|  2> %pal
|  3>  nprocs= 4
|  4> end
|  5> !STEOM-DLPNO-CCSD DEF2-TZVP DEF2-TZVP/C def2/J TightSCF TightPNO CPCM
|  6> %MDCI
|  7>    Dorootwise true
|  8>    OTHRESH 0.005
|  9>    VTHRESH 0.005
| 10>    TCutPNOSingles 1e-11
| 11>    DTol 1e-5
| 12>    NROOTS  25
| 13>    DOSOLV  TRUE
| 14>    MAXITER 500
| 15> END
| 16> %CPCM
| 17>    SMD          TRUE
| 18>    SMDsolvent   "DICHLOROMETHANE"
| 19> END
| 20>
| 21>
| 22> * xyz 0 1
| 23> C                   1.43137300    2.29418800    0.70438500
| 24> C                   0.70439600    1.22302400    0.17341900
| 25> C                   1.41160100   -0.00015500   -0.00126900
| 26> C                   2.82474200   -0.00027400   -0.00119400
| 27> C                   3.52149700    1.15730000    0.38105200
| 28> C                   2.82228800    2.26690200    0.79369700
| 29> C                   0.70405000   -1.22300200   -0.17559400
| 30> C                   3.52285500   -1.15758300   -0.38266900
| 31> H                   3.35673600    3.12398000    1.17950300
| 32> C                   2.82228800   -2.26663500   -0.79522700
| 33> C                   1.43137300   -2.29391200   -0.70639200
| 34> H                   3.35628000   -3.12414500   -1.18047800
| 35> C                  -0.70405000    1.22300200   -0.17559400
| 36> C                  -1.41160100    0.00015500   -0.00126900
| 37> C                  -1.43137300    2.29391200   -0.70639200
| 38> C                  -0.70439600   -1.22302400    0.17341900
| 39> C                  -2.82474200    0.00027400   -0.00119400
| 40> C                  -2.82228800    2.26663500   -0.79522700
| 41> C                  -1.43137300   -2.29418800    0.70438500
| 42> C                  -3.52149700   -1.15730000    0.38105200
| 43> C                  -3.52285500    1.15758300   -0.38266900
| 44> H                  -3.35628000    3.12414500   -1.18047800
| 45> C                  -2.82228800   -2.26690200    0.79369700
| 46> H                  -3.35673600   -3.12398000    1.17950300
| 47> C                   4.99064900    1.16612600    0.40310100
| 48> O                   5.64225000    2.13307100    0.75315200
| 49> C                   4.99419600   -1.17543900   -0.40560700
| 50> O                   5.62839400   -2.15226100   -0.75801100
| 51> N                   5.63329500   -0.00261900    0.00024400
| 52> C                  -4.99064900   -1.16612600    0.40310100
| 53> O                  -5.64225000   -2.13307100    0.75315200
| 54> C                  -4.99419600    1.17543900   -0.40560700
| 55> O                  -5.62839400    2.15226100   -0.75801100
| 56> N                  -5.63329500    0.00261900    0.00024400
| 57> C                   7.08797400    0.03123000    0.01520000
| 58> H                   7.45013100    0.82016800   -0.64041300
| 59> H                   7.45483800   -0.92943800   -0.32481800
| 60> H                   7.44679400    0.23066200    1.02272400
| 61> C                  -7.08797400   -0.03123000    0.01520000
| 62> H                  -7.45013100   -0.82016800   -0.64041300
| 63> H                  -7.45483800    0.92943800   -0.32481800
| 64> H                  -7.44679400   -0.23066200    1.02272400
| 65> Cl                 -0.64800500    3.66045300   -1.41777100
| 66> Cl                 -0.64757500   -3.66049400    1.41560800
| 67> Cl                  0.64800500   -3.66045300   -1.41777100
| 68> Cl                  0.64757500    3.66049400    1.41560800
| 69> *
| 70>
| 71>
| 72>                          ****END OF INPUT****

CARTESIAN COORDINATES (ANGSTROEM)
---------------------------------
  C      1.431373    2.294188    0.704385
  C      0.704396    1.223024    0.173419
  C      1.411601   -0.000155   -0.001269
  C      2.824742   -0.000274   -0.001194
  C      3.521497    1.157300    0.381052
  C      2.822288    2.266902    0.793697
  C      0.704050   -1.223002   -0.175594
  C      3.522855   -1.157583   -0.382669
  H      3.356736    3.123980    1.179503
  C      2.822288   -2.266635   -0.795227
  C      1.431373   -2.293912   -0.706392
  H      3.356280   -3.124145   -1.180478
  C     -0.704050    1.223002   -0.175594
  C     -1.411601    0.000155   -0.001269
  C     -1.431373    2.293912   -0.706392
  C     -0.704396   -1.223024    0.173419
  C     -2.824742    0.000274   -0.001194
  C     -2.822288    2.266635   -0.795227
  C     -1.431373   -2.294188    0.704385
  C     -3.521497   -1.157300    0.381052
  C     -3.522855    1.157583   -0.382669
  H     -3.356280    3.124145   -1.180478
  C     -2.822288   -2.266902    0.793697
  H     -3.356736   -3.123980    1.179503
  C      4.990649    1.166126    0.403101
  O      5.642250    2.133071    0.753152
  C      4.994196   -1.175439   -0.405607
  O      5.628394   -2.152261   -0.758011
  N      5.633295   -0.002619    0.000244
  C     -4.990649   -1.166126    0.403101
  O     -5.642250   -2.133071    0.753152
  C     -4.994196    1.175439   -0.405607
  O     -5.628394    2.152261   -0.758011
  N     -5.633295    0.002619    0.000244
  C      7.087974    0.031230    0.015200
  H      7.450131    0.820168   -0.640413
  H      7.454838   -0.929438   -0.324818
  H      7.446794    0.230662    1.022724
  C     -7.087974   -0.031230    0.015200
  H     -7.450131   -0.820168   -0.640413
  H     -7.454838    0.929438   -0.324818
  H     -7.446794   -0.230662    1.022724
  Cl    -0.648005    3.660453   -1.417771
  Cl    -0.647575   -3.660494    1.415608
  Cl     0.648005   -3.660453   -1.417771
  Cl     0.647575    3.660494    1.415608

 Total Charge           Charge          ....    0
 Multiplicity           Mult            ....    1
 Number of Electrons    NEL             ....  280
 Basis Dimension        Dim             .... 1200

ORBITAL ENERGIES
----------------

  NO   OCC          E(Eh)            E(eV)
   0   2.0000    -104.851862     -2853.1642
   1   2.0000    -104.851862     -2853.1642
   2   2.0000    -104.851825     -2853.1632
   3   2.0000    -104.851825     -2853.1632
   4   2.0000     -20.547488      -559.1256
   5   2.0000     -20.547488      -559.1256
   6   2.0000     -20.547152      -559.1164
   7   2.0000     -20.547152      -559.1164
   8   2.0000     -15.621448      -425.0812
   9   2.0000     -15.621448      -425.0812
  10   2.0000     -11.382921      -309.7450
  11   2.0000     -11.382921      -309.7450
  12   2.0000     -11.380520      -309.6797
  13   2.0000     -11.380520      -309.6797
  14   2.0000     -11.328571      -308.2661
  15   2.0000     -11.328571      -308.2661
  16   2.0000     -11.328478      -308.2636
  17   2.0000     -11.328478      -308.2635
  18   2.0000     -11.298160      -307.4386
  19   2.0000     -11.298142      -307.4381
  20   2.0000     -11.297297      -307.4151
  21   2.0000     -11.297253      -307.4139
  22   2.0000     -11.285264      -307.0876
  23   2.0000     -11.285260      -307.0875
  24   2.0000     -11.280901      -306.9689
  25   2.0000     -11.280901      -306.9689
  26   2.0000     -11.274280      -306.7888
  27   2.0000     -11.274280      -306.7887
  28   2.0000     -11.274183      -306.7861
  29   2.0000     -11.274183      -306.7861
  30   2.0000     -11.271463      -306.7121
  31   2.0000     -11.271463      -306.7121
  32   2.0000     -11.271240      -306.7060
  33   2.0000     -11.271240      -306.7060
  34   2.0000     -11.251529      -306.1697
  35   2.0000     -11.251529      -306.1697
  36   2.0000     -10.580245      -287.9031
  37   2.0000     -10.580245      -287.9031
  38   2.0000     -10.580208      -287.9021
  39   2.0000     -10.580208      -287.9021
  40   2.0000      -8.047214      -218.9758
  41   2.0000      -8.047214      -218.9758
  42   2.0000      -8.047177      -218.9748
  43   2.0000      -8.047177      -218.9748
  44   2.0000      -8.045616      -218.9324
  45   2.0000      -8.045616      -218.9324
  46   2.0000      -8.045580      -218.9314
  47   2.0000      -8.045580      -218.9314
  48   2.0000      -8.045538      -218.9302
  49   2.0000      -8.045538      -218.9302
  50   2.0000      -8.045502      -218.9292
  51   2.0000      -8.045502      -218.9292
  52   2.0000      -1.424701       -38.7681
  53   2.0000      -1.424699       -38.7680
  54   2.0000      -1.404001       -38.2048
  55   2.0000      -1.404001       -38.2048
  56   2.0000      -1.270553       -34.5735
  57   2.0000      -1.267986       -34.5036
  58   2.0000      -1.258480       -34.2450
  59   2.0000      -1.225547       -33.3488
  60   2.0000      -1.218442       -33.1555
  61   2.0000      -1.192994       -32.4630
  62   2.0000      -1.168249       -31.7897
  63   2.0000      -1.156085       -31.4587
  64   2.0000      -1.148277       -31.2462
  65   2.0000      -1.110919       -30.2297
  66   2.0000      -1.104721       -30.0610
  67   2.0000      -1.074438       -29.2369
  68   2.0000      -1.069813       -29.1111
  69   2.0000      -1.022169       -27.8146
  70   2.0000      -1.018339       -27.7104
  71   2.0000      -0.997071       -27.1317
  72   2.0000      -0.986637       -26.8478
  73   2.0000      -0.964933       -26.2571
  74   2.0000      -0.950676       -25.8692
  75   2.0000      -0.915920       -24.9235
  76   2.0000      -0.900940       -24.5158
  77   2.0000      -0.886333       -24.1183
  78   2.0000      -0.867540       -23.6070
  79   2.0000      -0.854326       -23.2474
  80   2.0000      -0.846315       -23.0294
  81   2.0000      -0.839335       -22.8395
  82   2.0000      -0.780710       -21.2442
  83   2.0000      -0.759716       -20.6729
  84   2.0000      -0.756518       -20.5859
  85   2.0000      -0.749415       -20.3926
  86   2.0000      -0.741306       -20.1720
  87   2.0000      -0.723622       -19.6907
  88   2.0000      -0.702382       -19.1128
  89   2.0000      -0.687610       -18.7108
  90   2.0000      -0.685262       -18.6469
  91   2.0000      -0.670996       -18.2587
  92   2.0000      -0.667270       -18.1573
  93   2.0000      -0.665463       -18.1082
  94   2.0000      -0.660886       -17.9836
  95   2.0000      -0.655127       -17.8269
  96   2.0000      -0.652842       -17.7647
  97   2.0000      -0.645534       -17.5659
  98   2.0000      -0.643042       -17.4981
  99   2.0000      -0.639430       -17.3998
 100   2.0000      -0.629783       -17.1373
 101   2.0000      -0.621486       -16.9115
 102   2.0000      -0.603057       -16.4100
 103   2.0000      -0.595161       -16.1952
 104   2.0000      -0.591094       -16.0845
 105   2.0000      -0.589495       -16.0410
 106   2.0000      -0.589058       -16.0291
 107   2.0000      -0.578441       -15.7402
 108   2.0000      -0.574980       -15.6460
 109   2.0000      -0.570496       -15.5240
 110   2.0000      -0.566609       -15.4182
 111   2.0000      -0.556256       -15.1365
 112   2.0000      -0.555802       -15.1241
 113   2.0000      -0.551623       -15.0104
 114   2.0000      -0.549846       -14.9621
 115   2.0000      -0.549171       -14.9437
 116   2.0000      -0.543018       -14.7763
 117   2.0000      -0.542299       -14.7567
 118   2.0000      -0.533308       -14.5120
 119   2.0000      -0.517459       -14.0808
 120   2.0000      -0.511552       -13.9200
 121   2.0000      -0.495569       -13.4851
 122   2.0000      -0.481644       -13.1062
 123   2.0000      -0.473613       -12.8877
 124   2.0000      -0.471311       -12.8250
 125   2.0000      -0.463759       -12.6195
 126   2.0000      -0.462262       -12.5788
 127   2.0000      -0.457270       -12.4430
 128   2.0000      -0.451818       -12.2946
 129   2.0000      -0.451450       -12.2846
 130   2.0000      -0.448581       -12.2065
 131   2.0000      -0.441412       -12.0114
 132   2.0000      -0.432257       -11.7623
 133   2.0000      -0.415229       -11.2989
 134   2.0000      -0.413252       -11.2452
 135   2.0000      -0.371502       -10.1091
 136   2.0000      -0.362910        -9.8753
 137   2.0000      -0.344150        -9.3648
 138   2.0000      -0.337504        -9.1839
 139   2.0000      -0.286648        -7.8001
 140   0.0000      -0.029013        -0.7895
 141   0.0000       0.044734         1.2173
 142   0.0000       0.059012         1.6058
 143   0.0000       0.083147         2.2626
 144   0.0000       0.084753         2.3062

E(0)                                       ...  -3237.403613129
E(0)                                       ...  -3237.403613129
E(CORR)(strong-pairs)                      ...     -6.057592349
E(CORR)(weak-pairs)                        ...     -0.016758075
E(CORR)(corrected)                         ...     -6.074350425
E(TOT)                                     ...  -3243.477963553

MULLIKEN ATOMIC CHARGES
-----------------------
   0 C :    0.022656
   1 C :    0.095554
   2 C :   -0.002581
   3 C :    0.077038
   4 C :    0.080314
   5 C :   -0.251851
   6 C :    0.090881
   7 C :    0.078585
   8 H :    0.184452
   9 C :   -0.246543
  10 C :    0.019777
  11 H :    0.185225
  12 C :    0.090881
  13 C :   -0.002580
  14 C :    0.019777
  15 C :    0.095553
  16 C :    0.077038
  17 C :   -0.246543
  18 C :    0.022656
  19 C :    0.080314
  20 C :    0.078585
  21 H :    0.185225
  22 C :   -0.251851
  23 H :    0.184452
  24 C :    0.191140
  25 O :   -0.367922
  26 C :    0.177762
  27 O :   -0.372601
  28 N :   -0.048107
  29 C :    0.191140
  30 O :   -0.367922
  31 C :    0.177762
  32 O :   -0.372601
  33 N :   -0.048107
  34 C :   -0.351740
  35 H :    0.165948
  36 H :    0.182304
  37 H :    0.166078
  38 C :   -0.351740
  39 H :    0.165948
  40 H :    0.182304
  41 H :    0.166078
  42 Cl:   -0.038215
  43 Cl:   -0.038154
  44 Cl:   -0.038215
  45 Cl:   -0.038154
Sum of atomic charges:   -0.0000000

LOEWDIN ATOMIC CHARGES
----------------------
   0 C :   -0.384269
   1 C :   -0.048937
   2 C :    0.012781
   3 C :   -0.018988
   4 C :   -0.068486
   5 C :   -0.068257
   6 C :   -0.049012
   7 C :   -0.067583
   8 H :    0.172687
   9 C :   -0.068431
  10 C :   -0.384263
  11 H :    0.172713
  12 C :   -0.049012
  13 C :    0.012781
  14 C :   -0.384263
  15 C :   -0.048937
  16 C :   -0.018988
  17 C :   -0.068431
  18 C :   -0.384269
  19 C :   -0.068486
  20 C :   -0.067583
  21 H :    0.172713
  22 C :   -0.068257
  23 H :    0.172687
  24 C :   -0.334895
  25 O :    0.108267
  26 C :   -0.334747
  27 O :    0.102777
  28 N :    0.238307
  29 C :   -0.334895
  30 O :    0.108267
  31 C :   -0.334747
  32 O :    0.102777
  33 N :    0.238307
  34 C :   -0.262047
  35 H :    0.129364
  36 H :    0.133073
  37 H :    0.129309
  38 C :   -0.262047
  39 H :    0.129364
  40 H :    0.133073
  41 H :    0.129309
  42 Cl:    0.445269
  43 Cl:    0.445368
  44 Cl:    0.445269
  45 Cl:    0.445368

  Mayer bond orders larger than 0.100000
B(  0-C ,  1-C ) :   1.2180 B(  0-C ,  5-C ) :   1.1700 B(  0-C , 45-Cl) :   1.0490
B(  1-C ,  2-C ) :   1.1531 B(  1-C , 12-C ) :   0.8974 B(  2-C ,  3-C ) :   1.2499
B(  2-C ,  6-C ) :   1.1566 B(  3-C ,  4-C ) :   1.2110 B(  3-C ,  7-C ) :   1.2246
B(  4-C ,  5-C ) :   1.3458 B(  4-C , 24-C ) :   0.8946 B(  4-C , 25-O ) :  -0.1573
B(  5-C ,  8-H ) :   0.9204 B(  6-C , 10-C ) :   1.2198 B(  6-C , 15-C ) :   0.8974
B(  7-C ,  9-C ) :   1.3447 B(  7-C , 26-C ) :   0.8852 B(  7-C , 27-O ) :  -0.1642
B(  9-C , 10-C ) :   1.1691 B(  9-C , 11-H ) :   0.9201 B( 10-C , 44-Cl) :   1.0498
B( 12-C , 13-C ) :   1.1566 B( 12-C , 14-C ) :   1.2198 B( 13-C , 15-C ) :   1.1531
B( 13-C , 16-C ) :   1.2499 B( 14-C , 17-C ) :   1.1691 B( 14-C , 42-Cl) :   1.0498
B( 15-C , 18-C ) :   1.2180 B( 16-C , 19-C ) :   1.2110 B( 16-C , 20-C ) :   1.2246
B( 17-C , 20-C ) :   1.3447 B( 17-C , 21-H ) :   0.9201 B( 18-C , 22-C ) :   1.1700
B( 18-C , 43-Cl) :   1.0490 B( 19-C , 22-C ) :   1.3458 B( 19-C , 29-C ) :   0.8946
B( 19-C , 30-O ) :  -0.1573 B( 20-C , 31-C ) :   0.8852 B( 20-C , 32-O ) :  -0.1642
B( 22-C , 23-H ) :   0.9204 B( 24-C , 25-O ) :   1.9562 B( 24-C , 28-N ) :   1.1111
B( 26-C , 27-O ) :   1.9584 B( 26-C , 28-N ) :   1.1298 B( 28-N , 34-C ) :   0.8194
B( 29-C , 30-O ) :   1.9562 B( 29-C , 33-N ) :   1.1111 B( 31-C , 32-O ) :   1.9584
B( 31-C , 33-N ) :   1.1298 B( 33-N , 38-C ) :   0.8194 B( 34-C , 35-H ) :   0.9191
B( 34-C , 36-H ) :   0.9093 B( 34-C , 37-H ) :   0.9194 B( 38-C , 39-H ) :   0.9191
B( 38-C , 40-H ) :   0.9093 B( 38-C , 41-H ) :   0.9194

-----------------------------------------------------------------------------
         ABSORPTION SPECTRUM VIA TRANSITION ELECTRIC DIPOLE MOMENTS
-----------------------------------------------------------------------------
State   Energy  Wavelength   fosc         T2         TX        TY        TZ
        (cm-1)    (nm)                  (au**2)     (au)      (au)      (au)
-----------------------------------------------------------------------------
   1   20423.9    489.6   0.552599162   8.90733   2.98451   0.00057   0.00005
   2   24200.6    413.2   0.070160524   0.95443   0.00200   0.97694   0.00003
   3   24477.6    408.5   0.008800733   0.11837   0.00005   0.00024   0.34402
   4   29139.6    343.2   0.002506384   0.02832   0.00135   0.00055   0.16808
   5   29836.7    335.2   0.000053130   0.00059   0.01208   0.00024   0.01552
   6   31334.0    319.1   0.000563535   0.00592   0.00066   0.00133   0.07692
   7   31303.5    319.5   0.000859832   0.00904   0.01798   0.06334   0.00003
   8   32024.9    312.3   0.000094423   0.00097   0.00240   0.00016   0.02186
   9   35066.8    285.2   0.006938708   0.06514   0.00043   0.00248   0.25521
  10   37552.6    266.3   0.384451103   3.37036   0.00726   1.83581   0.00053
  11   37506.0    266.6   0.065721800   0.57688   0.00069   0.00054   0.75952
  12   37516.0    266.6   0.000130166   0.00114   0.00348   0.00011   0.02359
  13   38377.9    260.6   0.005111674   0.04385   0.20784   0.01562   0.00000
  14   37997.5    263.2   0.014360400   0.12442   0.34675   0.04133   0.00007
  15   40874.3    244.7   0.076090008   0.61285   0.00241   0.00029   0.78271
  16   41619.9    240.3   0.005059839   0.04002   0.01766   0.19828   0.00114
  17   41117.7    243.2   0.000033554   0.00027   0.00068   0.00021   0.01012
  18   42715.6    234.1   0.547807891   4.22199   0.00588   2.05474   0.00059
  19   43796.2    228.3   0.004060765   0.03052   0.00612   0.17446   0.00032
  20   44405.1    225.2   0.067999382   0.50414   0.70993   0.00647   0.00016
  21   46676.5    214.2   0.000014180   0.00010   0.00065   0.00007   0.00994
  22   47897.1    208.8   1.394338706   9.58374   3.09571   0.01699   0.00092

FINAL SINGLE POINT ENERGY     -3243.384905498680

DIPOLE MOMENT
-------------
                                X             Y             Z
Electronic contribution:      0.00000      -0.00000      -0.10982
Nuclear contribution   :      0.00000      -0.00000       0.11258
                        -----------------------------------------
Total Dipole Moment    :      0.00000      -0.00000       0.00276
                        -----------------------------------------
Magnitude (a.u.)       :      0.00276
Magnitude (Debye)      :      0.00701

Rotational constants in cm-1:     0.005049     0.002246     0.001678
Rotational constants in MHz :   151.365717    67.318622    50.310932

                             ****ORCA TERMINATED NORMALLY****
TOTAL RUN TIME: 1 days 9 hours 38 minutes 36 seconds 960 msec
