                         Program Version 5.0.2 -  RELEASE  -
|  1> %maxcore 24000
|  2> %pal
|  3>  nprocs= 8
|  4> end
|  5> ! RI-DSD-BLYP D3BJ def2-TZVP def2/J def2-TZVP/C RIJCOSX CPCM TightSCF
|  6> %TDDFT
|  7>    NROOTS   30
|  8>    dcorr 4
|  9>    doscs true
| 10>    scspar 0.333, 1.2, 0.43, 1.24
| 11>    TDA      FALSE
| 12> END
| 13>
| 14> %CPCM
| 15>    SMD          TRUE
| 16>    SMDsolvent   "DICHLOROMETHANE"
| 17> END
| 18>
| 19>
| 20> * xyz 0 1
| 21> C                   1.43137300    2.29418800    0.70438500
| 22> C                   0.70439600    1.22302400    0.17341900
| 23> C                   1.41160100   -0.00015500   -0.00126900
| 24> C                   2.82474200   -0.00027400   -0.00119400
| 25> C                   3.52149700    1.15730000    0.38105200
| 26> C                   2.82228800    2.26690200    0.79369700
| 27> C                   0.70405000   -1.22300200   -0.17559400
| 28> C                   3.52285500   -1.15758300   -0.38266900
| 29> H                   3.35673600    3.12398000    1.17950300
| 30> C                   2.82228800   -2.26663500   -0.79522700
| 31> C                   1.43137300   -2.29391200   -0.70639200
| 32> H                   3.35628000   -3.12414500   -1.18047800
| 33> C                  -0.70405000    1.22300200   -0.17559400
| 34> C                  -1.41160100    0.00015500   -0.00126900
| 35> C                  -1.43137300    2.29391200   -0.70639200
| 36> C                  -0.70439600   -1.22302400    0.17341900
| 37> C                  -2.82474200    0.00027400   -0.00119400
| 38> C                  -2.82228800    2.26663500   -0.79522700
| 39> C                  -1.43137300   -2.29418800    0.70438500
| 40> C                  -3.52149700   -1.15730000    0.38105200
| 41> C                  -3.52285500    1.15758300   -0.38266900
| 42> H                  -3.35628000    3.12414500   -1.18047800
| 43> C                  -2.82228800   -2.26690200    0.79369700
| 44> H                  -3.35673600   -3.12398000    1.17950300
| 45> C                   4.99064900    1.16612600    0.40310100
| 46> O                   5.64225000    2.13307100    0.75315200
| 47> C                   4.99419600   -1.17543900   -0.40560700
| 48> O                   5.62839400   -2.15226100   -0.75801100
| 49> N                   5.63329500   -0.00261900    0.00024400
| 50> C                  -4.99064900   -1.16612600    0.40310100
| 51> O                  -5.64225000   -2.13307100    0.75315200
| 52> C                  -4.99419600    1.17543900   -0.40560700
| 53> O                  -5.62839400    2.15226100   -0.75801100
| 54> N                  -5.63329500    0.00261900    0.00024400
| 55> C                   7.08797400    0.03123000    0.01520000
| 56> H                   7.45013100    0.82016800   -0.64041300
| 57> H                   7.45483800   -0.92943800   -0.32481800
| 58> H                   7.44679400    0.23066200    1.02272400
| 59> C                  -7.08797400   -0.03123000    0.01520000
| 60> H                  -7.45013100   -0.82016800   -0.64041300
| 61> H                  -7.45483800    0.92943800   -0.32481800
| 62> H                  -7.44679400   -0.23066200    1.02272400
| 63> Cl                 -0.64800500    3.66045300   -1.41777100
| 64> Cl                 -0.64757500   -3.66049400    1.41560800
| 65> Cl                  0.64800500   -3.66045300   -1.41777100
| 66> Cl                  0.64757500    3.66049400    1.41560800
| 67> *
| 68>
| 69>
| 70>                          ****END OF INPUT****

CARTESIAN COORDINATES (ANGSTROEM)
---------------------------------
  C      1.431373    2.294188    0.704385
  C      0.704396    1.223024    0.173419
  C      1.411601   -0.000155   -0.001269
  C      2.824742   -0.000274   -0.001194
  C      3.521497    1.157300    0.381052
  C      2.822288    2.266902    0.793697
  C      0.704050   -1.223002   -0.175594
  C      3.522855   -1.157583   -0.382669
  H      3.356736    3.123980    1.179503
  C      2.822288   -2.266635   -0.795227
  C      1.431373   -2.293912   -0.706392
  H      3.356280   -3.124145   -1.180478
  C     -0.704050    1.223002   -0.175594
  C     -1.411601    0.000155   -0.001269
  C     -1.431373    2.293912   -0.706392
  C     -0.704396   -1.223024    0.173419
  C     -2.824742    0.000274   -0.001194
  C     -2.822288    2.266635   -0.795227
  C     -1.431373   -2.294188    0.704385
  C     -3.521497   -1.157300    0.381052
  C     -3.522855    1.157583   -0.382669
  H     -3.356280    3.124145   -1.180478
  C     -2.822288   -2.266902    0.793697
  H     -3.356736   -3.123980    1.179503
  C      4.990649    1.166126    0.403101
  O      5.642250    2.133071    0.753152
  C      4.994196   -1.175439   -0.405607
  O      5.628394   -2.152261   -0.758011
  N      5.633295   -0.002619    0.000244
  C     -4.990649   -1.166126    0.403101
  O     -5.642250   -2.133071    0.753152
  C     -4.994196    1.175439   -0.405607
  O     -5.628394    2.152261   -0.758011
  N     -5.633295    0.002619    0.000244
  C      7.087974    0.031230    0.015200
  H      7.450131    0.820168   -0.640413
  H      7.454838   -0.929438   -0.324818
  H      7.446794    0.230662    1.022724
  C     -7.087974   -0.031230    0.015200
  H     -7.450131   -0.820168   -0.640413
  H     -7.454838    0.929438   -0.324818
  H     -7.446794   -0.230662    1.022724
  Cl    -0.648005    3.660453   -1.417771
  Cl    -0.647575   -3.660494    1.415608
  Cl     0.648005   -3.660453   -1.417771
  Cl     0.647575    3.660494    1.415608

 Total Charge           Charge          ....    0
 Multiplicity           Mult            ....    1
 Number of Electrons    NEL             ....  280
 Basis Dimension        Dim             .... 1200

ORBITAL ENERGIES
----------------

  NO   OCC          E(Eh)            E(eV)
   0   2.0000    -103.584836     -2818.6867
   1   2.0000    -103.584836     -2818.6867
   2   2.0000    -103.584802     -2818.6858
   3   2.0000    -103.584802     -2818.6858
   4   2.0000     -20.002594      -544.2982
   5   2.0000     -20.002593      -544.2982
   6   2.0000     -20.002520      -544.2962
   7   2.0000     -20.002520      -544.2962
   8   2.0000     -15.147496      -412.1843
   9   2.0000     -15.147496      -412.1843
  10   2.0000     -10.971835      -298.5588
  11   2.0000     -10.971835      -298.5588
  12   2.0000     -10.969500      -298.4953
  13   2.0000     -10.969500      -298.4953
  14   2.0000     -10.922929      -297.2280
  15   2.0000     -10.922928      -297.2280
  16   2.0000     -10.922846      -297.2257
  17   2.0000     -10.922845      -297.2257
  18   2.0000     -10.891463      -296.3718
  19   2.0000     -10.891452      -296.3715
  20   2.0000     -10.890784      -296.3533
  21   2.0000     -10.890747      -296.3523
  22   2.0000     -10.881352      -296.0966
  23   2.0000     -10.881347      -296.0965
  24   2.0000     -10.875545      -295.9386
  25   2.0000     -10.875544      -295.9386
  26   2.0000     -10.869022      -295.7611
  27   2.0000     -10.869021      -295.7611
  28   2.0000     -10.868814      -295.7555
  29   2.0000     -10.868812      -295.7554
  30   2.0000     -10.867445      -295.7182
  31   2.0000     -10.867445      -295.7182
  32   2.0000     -10.867416      -295.7174
  33   2.0000     -10.867416      -295.7174
  34   2.0000     -10.848881      -295.2131
  35   2.0000     -10.848881      -295.2130
  36   2.0000     -10.155347      -276.3411
  37   2.0000     -10.155347      -276.3410
  38   2.0000     -10.155313      -276.3401
  39   2.0000     -10.155313      -276.3401
  40   2.0000      -7.736505      -210.5210
  41   2.0000      -7.736505      -210.5210
  42   2.0000      -7.736473      -210.5201
  43   2.0000      -7.736472      -210.5201
  44   2.0000      -7.732166      -210.4029
  45   2.0000      -7.732166      -210.4029
  46   2.0000      -7.732132      -210.4020
  47   2.0000      -7.732132      -210.4020
  48   2.0000      -7.732035      -210.3994
  49   2.0000      -7.732035      -210.3994
  50   2.0000      -7.732000      -210.3984
  51   2.0000      -7.732000      -210.3984
  52   2.0000      -1.293902       -35.2089
  53   2.0000      -1.293899       -35.2088
  54   2.0000      -1.273822       -34.6625
  55   2.0000      -1.273821       -34.6624
  56   2.0000      -1.152295       -31.3555
  57   2.0000      -1.149967       -31.2922
  58   2.0000      -1.141719       -31.0678
  59   2.0000      -1.111515       -30.2459
  60   2.0000      -1.106998       -30.1229
  61   2.0000      -1.083752       -29.4904
  62   2.0000      -1.061988       -28.8982
  63   2.0000      -1.050760       -28.5926
  64   2.0000      -1.039773       -28.2937
  65   2.0000      -1.007603       -27.4183
  66   2.0000      -1.001627       -27.2556
  67   2.0000      -0.972026       -26.4502
  68   2.0000      -0.967042       -26.3145
  69   2.0000      -0.924375       -25.1535
  70   2.0000      -0.920570       -25.0500
  71   2.0000      -0.901145       -24.5214
  72   2.0000      -0.893509       -24.3136
  73   2.0000      -0.872647       -23.7459
  74   2.0000      -0.858928       -23.3726
  75   2.0000      -0.828063       -22.5327
  76   2.0000      -0.814382       -22.1605
  77   2.0000      -0.801902       -21.8209
  78   2.0000      -0.785604       -21.3774
  79   2.0000      -0.773186       -21.0395
  80   2.0000      -0.764122       -20.7928
  81   2.0000      -0.757287       -20.6068
  82   2.0000      -0.707039       -19.2395
  83   2.0000      -0.687252       -18.7011
  84   2.0000      -0.683275       -18.5929
  85   2.0000      -0.674229       -18.3467
  86   2.0000      -0.671122       -18.2622
  87   2.0000      -0.654353       -17.8059
  88   2.0000      -0.633779       -17.2460
  89   2.0000      -0.617737       -16.8095
  90   2.0000      -0.612528       -16.6677
  91   2.0000      -0.604100       -16.4384
  92   2.0000      -0.602219       -16.3872
  93   2.0000      -0.600061       -16.3285
  94   2.0000      -0.595487       -16.2040
  95   2.0000      -0.588884       -16.0244
  96   2.0000      -0.588390       -16.0109
  97   2.0000      -0.580629       -15.7997
  98   2.0000      -0.577543       -15.7158
  99   2.0000      -0.576590       -15.6898
 100   2.0000      -0.564467       -15.3599
 101   2.0000      -0.560023       -15.2390
 102   2.0000      -0.545565       -14.8456
 103   2.0000      -0.535231       -14.5644
 104   2.0000      -0.534014       -14.5313
 105   2.0000      -0.533713       -14.5231
 106   2.0000      -0.531871       -14.4730
 107   2.0000      -0.521733       -14.1971
 108   2.0000      -0.518226       -14.1016
 109   2.0000      -0.516265       -14.0483
 110   2.0000      -0.511423       -13.9165
 111   2.0000      -0.501123       -13.6362
 112   2.0000      -0.500004       -13.6058
 113   2.0000      -0.495965       -13.4959
 114   2.0000      -0.494631       -13.4596
 115   2.0000      -0.493762       -13.4360
 116   2.0000      -0.490418       -13.3450
 117   2.0000      -0.483346       -13.1525
 118   2.0000      -0.479019       -13.0348
 119   2.0000      -0.464635       -12.6434
 120   2.0000      -0.460532       -12.5317
 121   2.0000      -0.445406       -12.1201
 122   2.0000      -0.426273       -11.5995
 123   2.0000      -0.421566       -11.4714
 124   2.0000      -0.416223       -11.3260
 125   2.0000      -0.410790       -11.1782
 126   2.0000      -0.406841       -11.0707
 127   2.0000      -0.405343       -11.0299
 128   2.0000      -0.404605       -11.0099
 129   2.0000      -0.397394       -10.8136
 130   2.0000      -0.388566       -10.5734
 131   2.0000      -0.388311       -10.5665
 132   2.0000      -0.386780       -10.5248
 133   2.0000      -0.367395        -9.9973
 134   2.0000      -0.365322        -9.9409
 135   2.0000      -0.339169        -9.2293
 136   2.0000      -0.334513        -9.1025
 137   2.0000      -0.317696        -8.6449
 138   2.0000      -0.310783        -8.4568
 139   2.0000      -0.264952        -7.2097
 140   0.0000      -0.074455        -2.0260
 141   0.0000      -0.009869        -0.2685
 142   0.0000       0.005295         0.1441
 143   0.0000       0.029712         0.8085
 144   0.0000       0.031021         0.8441

MULLIKEN ATOMIC CHARGES
-----------------------
   0 C :    0.064506
   1 C :    0.100563
   2 C :    0.036772
   3 C :    0.082820
   4 C :    0.055298
   5 C :   -0.250315
   6 C :    0.098027
   7 C :    0.053229
   8 H :    0.187160
   9 C :   -0.244159
  10 C :    0.059855
  11 H :    0.187945
  12 C :    0.098130
  13 C :    0.036219
  14 C :    0.060922
  15 C :    0.100888
  16 C :    0.082562
  17 C :   -0.245268
  18 C :    0.064264
  19 C :    0.055816
  20 C :    0.053731
  21 H :    0.187695
  22 C :   -0.250624
  23 H :    0.187090
  24 C :    0.310688
  25 O :   -0.471258
  26 C :    0.297978
  27 O :   -0.475314
  28 N :   -0.115948
  29 C :    0.310418
  30 O :   -0.471105
  31 C :    0.298929
  32 O :   -0.475318
  33 N :   -0.116106
  34 C :   -0.271282
  35 H :    0.144660
  36 H :    0.169282
  37 H :    0.144663
  38 C :   -0.271257
  39 H :    0.144667
  40 H :    0.169267
  41 H :    0.144677
  42 Cl:   -0.082689
  43 Cl:   -0.082629
  44 Cl:   -0.082801
  45 Cl:   -0.082649
Sum of atomic charges:   -0.0000000

LOEWDIN ATOMIC CHARGES
----------------------
   0 C :   -0.371674
   1 C :   -0.040271
   2 C :    0.014107
   3 C :   -0.013733
   4 C :   -0.065322
   5 C :   -0.051778
   6 C :   -0.040235
   7 C :   -0.064525
   8 H :    0.169822
   9 C :   -0.051847
  10 C :   -0.371728
  11 H :    0.169842
  12 C :   -0.040234
  13 C :    0.014106
  14 C :   -0.371726
  15 C :   -0.040269
  16 C :   -0.013734
  17 C :   -0.051849
  18 C :   -0.371678
  19 C :   -0.065322
  20 C :   -0.064524
  21 H :    0.169843
  22 C :   -0.051775
  23 H :    0.169821
  24 C :   -0.294308
  25 O :    0.047784
  26 C :   -0.293881
  27 O :    0.041916
  28 N :    0.228070
  29 C :   -0.294303
  30 O :    0.047778
  31 C :   -0.293885
  32 O :    0.041920
  33 N :    0.228069
  34 C :   -0.238000
  35 H :    0.122517
  36 H :    0.128186
  37 H :    0.122429
  38 C :   -0.238000
  39 H :    0.122517
  40 H :    0.128186
  41 H :    0.122429
  42 Cl:    0.426257
  43 Cl:    0.426376
  44 Cl:    0.426257
  45 Cl:    0.426373

  Mayer bond orders larger than 0.100000
B(  0-C ,  1-C ) :   1.3229 B(  0-C ,  5-C ) :   1.2665 B(  0-C , 45-Cl) :   1.0898
B(  1-C ,  2-C ) :   1.2157 B(  1-C , 12-C ) :   0.9436 B(  2-C ,  3-C ) :   1.3210
B(  2-C ,  6-C ) :   1.2191 B(  3-C ,  4-C ) :   1.2721 B(  3-C ,  7-C ) :   1.2830
B(  4-C ,  5-C ) :   1.4715 B(  4-C , 24-C ) :   0.9770 B(  4-C , 25-O ) :  -0.1413
B(  5-C ,  8-H ) :   0.9679 B(  6-C , 10-C ) :   1.3238 B(  6-C , 15-C ) :   0.9436
B(  7-C ,  9-C ) :   1.4718 B(  7-C , 26-C ) :   0.9699 B(  7-C , 27-O ) :  -0.1454
B(  9-C , 10-C ) :   1.2669 B(  9-C , 11-H ) :   0.9664 B( 10-C , 44-Cl) :   1.0911
B( 12-C , 13-C ) :   1.2196 B( 12-C , 14-C ) :   1.3231 B( 13-C , 15-C ) :   1.2159
B( 13-C , 16-C ) :   1.3221 B( 14-C , 17-C ) :   1.2654 B( 14-C , 42-Cl) :   1.0918
B( 15-C , 18-C ) :   1.3228 B( 16-C , 19-C ) :   1.2726 B( 16-C , 20-C ) :   1.2823
B( 17-C , 20-C ) :   1.4721 B( 17-C , 21-H ) :   0.9675 B( 18-C , 22-C ) :   1.2670
B( 18-C , 43-Cl) :   1.0904 B( 19-C , 22-C ) :   1.4710 B( 19-C , 29-C ) :   0.9763
B( 19-C , 30-O ) :  -0.1404 B( 20-C , 31-C ) :   0.9697 B( 20-C , 32-O ) :  -0.1457
B( 22-C , 23-H ) :   0.9679 B( 24-C , 25-O ) :   2.0047 B( 24-C , 28-N ) :   1.1744
B( 26-C , 27-O ) :   2.0011 B( 26-C , 28-N ) :   1.1912 B( 28-N , 34-C ) :   0.8636
B( 29-C , 30-O ) :   2.0043 B( 29-C , 33-N ) :   1.1745 B( 31-C , 32-O ) :   2.0012
B( 31-C , 33-N ) :   1.1914 B( 33-N , 38-C ) :   0.8637 B( 34-C , 35-H ) :   0.9744
B( 34-C , 36-H ) :   0.9656 B( 34-C , 37-H ) :   0.9744 B( 38-C , 39-H ) :   0.9744
B( 38-C , 40-H ) :   0.9656 B( 38-C , 41-H ) :   0.9744

MP2 TOTAL ENERGY:    -3246.045767067 Eh

-----------------------------------------------------------------------------
         ABSORPTION SPECTRUM VIA TRANSITION ELECTRIC DIPOLE MOMENTS
-----------------------------------------------------------------------------
State   Energy    Wavelength  fosc         T2        TX        TY        TZ
        (cm-1)      (nm)                 (au**2)    (au)      (au)      (au)
-----------------------------------------------------------------------------
   1   15077.5    663.2   0.571994488  12.48927  -3.53402   0.00043  -0.00001
   2   14616.6    684.2   0.140222590   3.15826   0.00146  -1.77715  -0.00018
   3   16110.6    620.7   0.016837897   0.34407  -0.00004  -0.00049   0.58658
   4   24426.0    409.4   0.018832615   0.25382   0.00001   0.00005  -0.50381
   5   24636.1    405.9   0.000025114   0.00034   0.00002  -0.00000   0.01832
   6   14174.7    705.5   0.000000280   0.00001   0.00003  -0.00001   0.00255
   7   16097.0    621.2   0.000157859   0.00323   0.00002  -0.00000  -0.05682
   8   17518.3    570.8   0.000029187   0.00055   0.00347  -0.02316   0.00012
   9   17500.3    571.4   0.000153457   0.00289   0.00001   0.00012   0.05373
  10   25579.3    390.9   0.051766703   0.66625  -0.00003   0.00004   0.81624
  11   23795.9    420.2   0.246601820   3.41168  -0.00427  -1.84707   0.00002
  12   22660.6    441.3   0.003093225   0.04494   0.20466  -0.05525   0.00003
  13   22694.4    440.6   0.000001439   0.00002  -0.00004  -0.00005  -0.00457
  14   21195.7    471.8   0.255825497   3.97348  -0.03145   1.99311   0.00000
  15   25608.5    390.5   0.000221620   0.00285  -0.00007  -0.00012   0.05338
  16   29629.1    337.5   0.011463741   0.12737  -0.35032  -0.06816  -0.00175
  17   17054.6    586.4   0.013272795   0.25621   0.00117   0.00025  -0.50617
  18   33114.6    302.0   0.011613880   0.11546   0.01527   0.33945   0.00023
  19   21956.9    455.4   0.031888569   0.47812  -0.00007   0.00005   0.69146
  20   33682.9    296.9   0.051912817   0.50739   0.71203  -0.01987   0.00006
  21   26028.4    384.2   0.379047656   4.79426  -0.12098   2.18624  -0.00004
  22   33223.0    301.0   0.145213368   1.43894   1.17126   0.25900   0.00000
  23   37075.3    269.7   0.000005977   0.00005  -0.00001   0.00008   0.00728
  24   24656.0    405.6   0.000004743   0.00006   0.00001  -0.00008  -0.00796
  25   24284.2    411.8   0.001266540   0.01717   0.04566  -0.12282  -0.00000
  26   27168.6    368.1   0.018321178   0.22200   0.00872   0.47109  -0.00001
  27   33304.8    300.3   1.198205178  11.84404  -3.44152  -0.00181  -0.00002
  28   25569.0    391.1   0.002647941   0.03409   0.18452   0.00670  -0.00001
  29   23914.4    418.2   0.047589004   0.65512   0.80910   0.02186  -0.00002
  30   30554.4    327.3   0.305457267   3.29119  -1.81404  -0.02101   0.00002

Dispersion correction           -0.061371950
FINAL SINGLE POINT ENERGY     -3243.040255596719

DIPOLE MOMENT
-------------
                                X             Y             Z
Electronic contribution:      0.00001       0.00003      -0.11007
Nuclear contribution   :      0.00000      -0.00000       0.11258
                        -----------------------------------------
Total Dipole Moment    :      0.00001       0.00003       0.00251
                        -----------------------------------------
Magnitude (a.u.)       :      0.00251
Magnitude (Debye)      :      0.00639

Rotational constants in cm-1:     0.005049     0.002246     0.001678
Rotational constants in MHz :   151.365717    67.318622    50.310932

                             ****ORCA TERMINATED NORMALLY****
TOTAL RUN TIME: 0 days 3 hours 12 minutes 33 seconds 258 msec
