                         Program Version 5.0.2 -  RELEASE  -
|  1> %maxcore 3200
|  2> %pal
|  3>  nprocs= 8
|  4> end
|  5> ! RI-wB2PLYP def2-TZVP def2/J def2-TZVP/C RIJCOSX CPCM TightSCF
|  6> %TDDFT DCORR 1
|  7>    NROOTS   30
|  8>    TDA      FALSE
|  9> END
| 10>
| 11> %CPCM
| 12>    SMD          TRUE
| 13>    SMDsolvent   "DICHLOROMETHANE"
| 14> END
| 15>
| 16>
| 17> * xyz 0 1
| 18> C                   1.43137300    2.29418800    0.70438500
| 19> C                   0.70439600    1.22302400    0.17341900
| 20> C                   1.41160100   -0.00015500   -0.00126900
| 21> C                   2.82474200   -0.00027400   -0.00119400
| 22> C                   3.52149700    1.15730000    0.38105200
| 23> C                   2.82228800    2.26690200    0.79369700
| 24> C                   0.70405000   -1.22300200   -0.17559400
| 25> C                   3.52285500   -1.15758300   -0.38266900
| 26> H                   3.35673600    3.12398000    1.17950300
| 27> C                   2.82228800   -2.26663500   -0.79522700
| 28> C                   1.43137300   -2.29391200   -0.70639200
| 29> H                   3.35628000   -3.12414500   -1.18047800
| 30> C                  -0.70405000    1.22300200   -0.17559400
| 31> C                  -1.41160100    0.00015500   -0.00126900
| 32> C                  -1.43137300    2.29391200   -0.70639200
| 33> C                  -0.70439600   -1.22302400    0.17341900
| 34> C                  -2.82474200    0.00027400   -0.00119400
| 35> C                  -2.82228800    2.26663500   -0.79522700
| 36> C                  -1.43137300   -2.29418800    0.70438500
| 37> C                  -3.52149700   -1.15730000    0.38105200
| 38> C                  -3.52285500    1.15758300   -0.38266900
| 39> H                  -3.35628000    3.12414500   -1.18047800
| 40> C                  -2.82228800   -2.26690200    0.79369700
| 41> H                  -3.35673600   -3.12398000    1.17950300
| 42> C                   4.99064900    1.16612600    0.40310100
| 43> O                   5.64225000    2.13307100    0.75315200
| 44> C                   4.99419600   -1.17543900   -0.40560700
| 45> O                   5.62839400   -2.15226100   -0.75801100
| 46> N                   5.63329500   -0.00261900    0.00024400
| 47> C                  -4.99064900   -1.16612600    0.40310100
| 48> O                  -5.64225000   -2.13307100    0.75315200
| 49> C                  -4.99419600    1.17543900   -0.40560700
| 50> O                  -5.62839400    2.15226100   -0.75801100
| 51> N                  -5.63329500    0.00261900    0.00024400
| 52> C                   7.08797400    0.03123000    0.01520000
| 53> H                   7.45013100    0.82016800   -0.64041300
| 54> H                   7.45483800   -0.92943800   -0.32481800
| 55> H                   7.44679400    0.23066200    1.02272400
| 56> C                  -7.08797400   -0.03123000    0.01520000
| 57> H                  -7.45013100   -0.82016800   -0.64041300
| 58> H                  -7.45483800    0.92943800   -0.32481800
| 59> H                  -7.44679400   -0.23066200    1.02272400
| 60> Cl                 -0.64800500    3.66045300   -1.41777100
| 61> Cl                 -0.64757500   -3.66049400    1.41560800
| 62> Cl                  0.64800500   -3.66045300   -1.41777100
| 63> Cl                  0.64757500    3.66049400    1.41560800
| 64> *
| 65>
| 66>
| 67>                          ****END OF INPUT****

CARTESIAN COORDINATES (ANGSTROEM)
---------------------------------
  C      1.431373    2.294188    0.704385
  C      0.704396    1.223024    0.173419
  C      1.411601   -0.000155   -0.001269
  C      2.824742   -0.000274   -0.001194
  C      3.521497    1.157300    0.381052
  C      2.822288    2.266902    0.793697
  C      0.704050   -1.223002   -0.175594
  C      3.522855   -1.157583   -0.382669
  H      3.356736    3.123980    1.179503
  C      2.822288   -2.266635   -0.795227
  C      1.431373   -2.293912   -0.706392
  H      3.356280   -3.124145   -1.180478
  C     -0.704050    1.223002   -0.175594
  C     -1.411601    0.000155   -0.001269
  C     -1.431373    2.293912   -0.706392
  C     -0.704396   -1.223024    0.173419
  C     -2.824742    0.000274   -0.001194
  C     -2.822288    2.266635   -0.795227
  C     -1.431373   -2.294188    0.704385
  C     -3.521497   -1.157300    0.381052
  C     -3.522855    1.157583   -0.382669
  H     -3.356280    3.124145   -1.180478
  C     -2.822288   -2.266902    0.793697
  H     -3.356736   -3.123980    1.179503
  C      4.990649    1.166126    0.403101
  O      5.642250    2.133071    0.753152
  C      4.994196   -1.175439   -0.405607
  O      5.628394   -2.152261   -0.758011
  N      5.633295   -0.002619    0.000244
  C     -4.990649   -1.166126    0.403101
  O     -5.642250   -2.133071    0.753152
  C     -4.994196    1.175439   -0.405607
  O     -5.628394    2.152261   -0.758011
  N     -5.633295    0.002619    0.000244
  C      7.087974    0.031230    0.015200
  H      7.450131    0.820168   -0.640413
  H      7.454838   -0.929438   -0.324818
  H      7.446794    0.230662    1.022724
  C     -7.087974   -0.031230    0.015200
  H     -7.450131   -0.820168   -0.640413
  H     -7.454838    0.929438   -0.324818
  H     -7.446794   -0.230662    1.022724
  Cl    -0.648005    3.660453   -1.417771
  Cl    -0.647575   -3.660494    1.415608
  Cl     0.648005   -3.660453   -1.417771
  Cl     0.647575    3.660494    1.415608

 Total Charge           Charge          ....    0
 Multiplicity           Mult            ....    1
 Number of Electrons    NEL             ....  280
 Basis Dimension        Dim             .... 1200

ORBITAL ENERGIES
----------------

  NO   OCC          E(Eh)            E(eV)
   0   2.0000    -103.001047     -2802.8010
   1   2.0000    -103.001046     -2802.8010
   2   2.0000    -103.001014     -2802.8001
   3   2.0000    -103.001014     -2802.8001
   4   2.0000     -19.792680      -538.5862
   5   2.0000     -19.792680      -538.5862
   6   2.0000     -19.792646      -538.5853
   7   2.0000     -19.792646      -538.5853
   8   2.0000     -14.972112      -407.4119
   9   2.0000     -14.972111      -407.4119
  10   2.0000     -10.832070      -294.7556
  11   2.0000     -10.832070      -294.7556
  12   2.0000     -10.829694      -294.6909
  13   2.0000     -10.829693      -294.6909
  14   2.0000     -10.783647      -293.4379
  15   2.0000     -10.783645      -293.4379
  16   2.0000     -10.783567      -293.4358
  17   2.0000     -10.783565      -293.4357
  18   2.0000     -10.752044      -292.5780
  19   2.0000     -10.752043      -292.5780
  20   2.0000     -10.751472      -292.5624
  21   2.0000     -10.751439      -292.5615
  22   2.0000     -10.742256      -292.3116
  23   2.0000     -10.742247      -292.3114
  24   2.0000     -10.736412      -292.1526
  25   2.0000     -10.736411      -292.1526
  26   2.0000     -10.730244      -291.9848
  27   2.0000     -10.730242      -291.9847
  28   2.0000     -10.729991      -291.9779
  29   2.0000     -10.729988      -291.9778
  30   2.0000     -10.727866      -291.9201
  31   2.0000     -10.727865      -291.9201
  32   2.0000     -10.727820      -291.9188
  33   2.0000     -10.727819      -291.9188
  34   2.0000     -10.708179      -291.3844
  35   2.0000     -10.708179      -291.3844
  36   2.0000     -10.012324      -272.4492
  37   2.0000     -10.012324      -272.4492
  38   2.0000     -10.012292      -272.4483
  39   2.0000     -10.012291      -272.4483
  40   2.0000      -7.651973      -208.2208
  41   2.0000      -7.651973      -208.2208
  42   2.0000      -7.651942      -208.2199
  43   2.0000      -7.651942      -208.2199
  44   2.0000      -7.646211      -208.0640
  45   2.0000      -7.646211      -208.0640
  46   2.0000      -7.646179      -208.0631
  47   2.0000      -7.646178      -208.0631
  48   2.0000      -7.646002      -208.0583
  49   2.0000      -7.646002      -208.0583
  50   2.0000      -7.645969      -208.0574
  51   2.0000      -7.645968      -208.0574
  52   2.0000      -1.307789       -35.5868
  53   2.0000      -1.307786       -35.5867
  54   2.0000      -1.286970       -35.0202
  55   2.0000      -1.286969       -35.0202
  56   2.0000      -1.172725       -31.9115
  57   2.0000      -1.168894       -31.8072
  58   2.0000      -1.163247       -31.6536
  59   2.0000      -1.134979       -30.8844
  60   2.0000      -1.131688       -30.7948
  61   2.0000      -1.108490       -30.1635
  62   2.0000      -1.087897       -29.6032
  63   2.0000      -1.076382       -29.2898
  64   2.0000      -1.065189       -28.9853
  65   2.0000      -1.033864       -28.1329
  66   2.0000      -1.027789       -27.9676
  67   2.0000      -0.998840       -27.1798
  68   2.0000      -0.993035       -27.0219
  69   2.0000      -0.951620       -25.8949
  70   2.0000      -0.947474       -25.7821
  71   2.0000      -0.928650       -25.2699
  72   2.0000      -0.922976       -25.1155
  73   2.0000      -0.901384       -24.5279
  74   2.0000      -0.887216       -24.1424
  75   2.0000      -0.857579       -23.3359
  76   2.0000      -0.845047       -22.9949
  77   2.0000      -0.833335       -22.6762
  78   2.0000      -0.817341       -22.2410
  79   2.0000      -0.805047       -21.9064
  80   2.0000      -0.794977       -21.6324
  81   2.0000      -0.787919       -21.4404
  82   2.0000      -0.742589       -20.2069
  83   2.0000      -0.722469       -19.6594
  84   2.0000      -0.716143       -19.4872
  85   2.0000      -0.706770       -19.2322
  86   2.0000      -0.705649       -19.2017
  87   2.0000      -0.688674       -18.7398
  88   2.0000      -0.667003       -18.1501
  89   2.0000      -0.652645       -17.7594
  90   2.0000      -0.645183       -17.5563
  91   2.0000      -0.644226       -17.5303
  92   2.0000      -0.643136       -17.5006
  93   2.0000      -0.633687       -17.2435
  94   2.0000      -0.629380       -17.1263
  95   2.0000      -0.625640       -17.0245
  96   2.0000      -0.623217       -16.9586
  97   2.0000      -0.615877       -16.7589
  98   2.0000      -0.611908       -16.6509
  99   2.0000      -0.609962       -16.5979
 100   2.0000      -0.598066       -16.2742
 101   2.0000      -0.594303       -16.1718
 102   2.0000      -0.585743       -15.9389
 103   2.0000      -0.575814       -15.6687
 104   2.0000      -0.568896       -15.4804
 105   2.0000      -0.567717       -15.4484
 106   2.0000      -0.566234       -15.4080
 107   2.0000      -0.560000       -15.2384
 108   2.0000      -0.557763       -15.1775
 109   2.0000      -0.553467       -15.0606
 110   2.0000      -0.549580       -14.9548
 111   2.0000      -0.539603       -14.6833
 112   2.0000      -0.536532       -14.5998
 113   2.0000      -0.534967       -14.5572
 114   2.0000      -0.532233       -14.4828
 115   2.0000      -0.529222       -14.4009
 116   2.0000      -0.528405       -14.3786
 117   2.0000      -0.517108       -14.0712
 118   2.0000      -0.513121       -13.9627
 119   2.0000      -0.500048       -13.6070
 120   2.0000      -0.498543       -13.5660
 121   2.0000      -0.483961       -13.1693
 122   2.0000      -0.462652       -12.5894
 123   2.0000      -0.458092       -12.4653
 124   2.0000      -0.453193       -12.3320
 125   2.0000      -0.450661       -12.2631
 126   2.0000      -0.441576       -12.0159
 127   2.0000      -0.440983       -11.9997
 128   2.0000      -0.440868       -11.9966
 129   2.0000      -0.435327       -11.8459
 130   2.0000      -0.423998       -11.5376
 131   2.0000      -0.421903       -11.4806
 132   2.0000      -0.421766       -11.4768
 133   2.0000      -0.403756       -10.9868
 134   2.0000      -0.401256       -10.9187
 135   2.0000      -0.377729       -10.2785
 136   2.0000      -0.372436       -10.1345
 137   2.0000      -0.355467        -9.6727
 138   2.0000      -0.347164        -9.4468
 139   2.0000      -0.299264        -8.1434
 140   0.0000      -0.061292        -1.6678
 141   0.0000       0.005876         0.1599
 142   0.0000       0.022224         0.6047
 143   0.0000       0.045677         1.2429
 144   0.0000       0.046611         1.2684

MULLIKEN ATOMIC CHARGES
-----------------------
   0 C :    0.034873
   1 C :    0.092230
   2 C :    0.012515
   3 C :    0.043202
   4 C :    0.029467
   5 C :   -0.231911
   6 C :    0.090680
   7 C :    0.029449
   8 H :    0.201539
   9 C :   -0.226349
  10 C :    0.030398
  11 H :    0.202178
  12 C :    0.090907
  13 C :    0.011673
  14 C :    0.031699
  15 C :    0.092796
  16 C :    0.043104
  17 C :   -0.227904
  18 C :    0.034505
  19 C :    0.030189
  20 C :    0.030202
  21 H :    0.201887
  22 C :   -0.232134
  23 H :    0.201439
  24 C :    0.290948
  25 O :   -0.420177
  26 C :    0.276876
  27 O :   -0.425528
  28 N :   -0.106352
  29 C :    0.290482
  30 O :   -0.420025
  31 C :    0.277925
  32 O :   -0.425545
  33 N :   -0.106495
  34 C :   -0.327501
  35 H :    0.163273
  36 H :    0.179025
  37 H :    0.163375
  38 C :   -0.327498
  39 H :    0.163283
  40 H :    0.179010
  41 H :    0.163392
  42 Cl:   -0.051254
  43 Cl:   -0.051224
  44 Cl:   -0.051390
  45 Cl:   -0.051237
Sum of atomic charges:   -0.0000000

LOEWDIN ATOMIC CHARGES
----------------------
   0 C :   -0.376955
   1 C :   -0.042300
   2 C :    0.012648
   3 C :   -0.015439
   4 C :   -0.067167
   5 C :   -0.056018
   6 C :   -0.042237
   7 C :   -0.066375
   8 H :    0.173619
   9 C :   -0.056074
  10 C :   -0.377014
  11 H :    0.173625
  12 C :   -0.042236
  13 C :    0.012647
  14 C :   -0.377012
  15 C :   -0.042297
  16 C :   -0.015439
  17 C :   -0.056076
  18 C :   -0.376960
  19 C :   -0.067167
  20 C :   -0.066375
  21 H :    0.173626
  22 C :   -0.056015
  23 H :    0.173617
  24 C :   -0.305632
  25 O :    0.062124
  26 C :   -0.305016
  27 O :    0.056199
  28 N :    0.232680
  29 C :   -0.305627
  30 O :    0.062118
  31 C :   -0.305019
  32 O :    0.056204
  33 N :    0.232679
  34 C :   -0.252772
  35 H :    0.127536
  36 H :    0.132103
  37 H :    0.127458
  38 C :   -0.252772
  39 H :    0.127536
  40 H :    0.132103
  41 H :    0.127458
  42 Cl:    0.432445
  43 Cl:    0.432563
  44 Cl:    0.432445
  45 Cl:    0.432559

  Mayer bond orders larger than 0.100000
B(  0-C ,  1-C ) :   1.3338 B(  0-C ,  5-C ) :   1.2757 B(  0-C , 45-Cl) :   1.1179
B(  1-C ,  2-C ) :   1.2109 B(  1-C , 12-C ) :   0.9646 B(  2-C ,  3-C ) :   1.3354
B(  2-C ,  6-C ) :   1.2142 B(  3-C ,  4-C ) :   1.2504 B(  3-C ,  7-C ) :   1.2615
B(  4-C ,  5-C ) :   1.4754 B(  4-C , 24-C ) :   0.9718 B(  4-C , 25-O ) :  -0.1498
B(  5-C ,  8-H ) :   0.9439 B(  6-C , 10-C ) :   1.3346 B(  6-C , 15-C ) :   0.9643
B(  7-C ,  9-C ) :   1.4755 B(  7-C , 26-C ) :   0.9615 B(  7-C , 27-O ) :  -0.1546
B(  9-C , 10-C ) :   1.2769 B(  9-C , 11-H ) :   0.9422 B( 10-C , 44-Cl) :   1.1191
B( 12-C , 13-C ) :   1.2148 B( 12-C , 14-C ) :   1.3339 B( 13-C , 15-C ) :   1.2111
B( 13-C , 16-C ) :   1.3368 B( 14-C , 17-C ) :   1.2748 B( 14-C , 42-Cl) :   1.1200
B( 15-C , 18-C ) :   1.3337 B( 16-C , 19-C ) :   1.2508 B( 16-C , 20-C ) :   1.2612
B( 17-C , 20-C ) :   1.4757 B( 17-C , 21-H ) :   0.9437 B( 18-C , 22-C ) :   1.2763
B( 18-C , 43-Cl) :   1.1186 B( 19-C , 22-C ) :   1.4749 B( 19-C , 29-C ) :   0.9711
B( 19-C , 30-O ) :  -0.1490 B( 20-C , 31-C ) :   0.9612 B( 20-C , 32-O ) :  -0.1546
B( 22-C , 23-H ) :   0.9439 B( 24-C , 25-O ) :   2.0573 B( 24-C , 28-N ) :   1.1724
B( 26-C , 27-O ) :   2.0524 B( 26-C , 28-N ) :   1.1906 B( 28-N , 34-C ) :   0.8730
B( 29-C , 30-O ) :   2.0570 B( 29-C , 33-N ) :   1.1725 B( 31-C , 32-O ) :   2.0523
B( 31-C , 33-N ) :   1.1907 B( 33-N , 38-C ) :   0.8730 B( 34-C , 35-H ) :   0.9699
B( 34-C , 36-H ) :   0.9615 B( 34-C , 37-H ) :   0.9699 B( 38-C , 39-H ) :   0.9699
B( 38-C , 40-H ) :   0.9616 B( 38-C , 41-H ) :   0.9699

MP2 TOTAL ENERGY:    -3245.174352439 Eh

-----------------------------------------------------------------------------
         ABSORPTION SPECTRUM VIA TRANSITION ELECTRIC DIPOLE MOMENTS
-----------------------------------------------------------------------------
State   Energy    Wavelength  fosc         T2        TX        TY        TZ
        (cm-1)      (nm)                 (au**2)    (au)      (au)      (au)
-----------------------------------------------------------------------------
   1   21394.2    467.4   0.808374653  12.43918  -3.52692   0.00080  -0.00001
   2   27652.8    361.6   0.251163353   2.99015  -0.00134   1.72920   0.00021
   3   28434.0    351.7   0.030176667   0.34939  -0.00006  -0.00056   0.59109
   4   32134.6    311.2   0.022835982   0.23395  -0.00000  -0.00006   0.48368
   5   32648.4    306.3   0.000026382   0.00027   0.00002  -0.00000   0.01631
   6   35087.6    285.0   0.000003340   0.00003   0.00005   0.00000  -0.00560
   7   35263.0    283.6   0.000225608   0.00211  -0.00004  -0.00005  -0.04589
   8   35396.8    282.5   0.000049946   0.00046  -0.00384   0.02121   0.00001
   9   35732.3    279.9   0.000051177   0.00047   0.00000  -0.00002  -0.02171
  10   38807.8    257.7   0.094865066   0.80475   0.00005  -0.00009  -0.89708
  11   39129.9    255.6   0.425697257   3.58152   0.07165   1.89113  -0.00001
  12   38540.6    259.5   0.071059582   0.60699   0.17051  -0.76021   0.00007
  13   38569.2    259.3   0.000000520   0.00000  -0.00009  -0.00006  -0.00210
  14   41134.7    243.1   0.684086799   5.47493  -0.03848   2.33954   0.00001
  15   41742.2    239.6   0.000079108   0.00062  -0.00028  -0.00026   0.02498
  16   42962.8    232.8   0.019796028   0.15169  -0.38258  -0.07296  -0.00006
  17   40363.9    247.7   0.066212229   0.54003  -0.00000   0.00001  -0.73487
  18   44119.8    226.7   0.119070762   0.88848  -0.04381   0.94157  -0.00001
  19   46745.9    213.9   0.455073514   3.20490   1.79017   0.01407  -0.00000
  20   45572.0    219.4   0.170191977   1.22947  -1.10848  -0.02739  -0.00001
  21   47716.6    209.6   0.000010767   0.00007   0.00025   0.00006  -0.00862
  22   43968.6    227.4   0.029667339   0.22213   0.00005   0.00033   0.47131
  23   45154.1    221.5   0.381028999   2.77803  -0.02710  -1.66652   0.00008
  24   46075.7    217.0   0.000009958   0.00007   0.00005   0.00056   0.00842
  25   46314.3    215.9   0.136830955   0.97262   0.02130  -0.98599   0.00002
  26   46490.3    215.1   0.006640213   0.04702  -0.10922   0.18733   0.00001
  27   48637.7    205.6   1.512750620  10.23930  -3.19984  -0.01857  -0.00001
  28   48865.7    204.6   0.000949561   0.00640   0.07974   0.00624  -0.00000
  29   50505.4    198.0   0.000002043   0.00001  -0.00009  -0.00008  -0.00365
  30   49001.2    204.1   0.005483270   0.03684   0.02933   0.18968  -0.00000

FINAL SINGLE POINT ENERGY     -3243.272767926033

DIPOLE MOMENT
-------------
                                X             Y             Z
Electronic contribution:      0.00001       0.00003      -0.10897
Nuclear contribution   :      0.00000      -0.00000       0.11258
                        -----------------------------------------
Total Dipole Moment    :      0.00001       0.00003       0.00361
                        -----------------------------------------
Magnitude (a.u.)       :      0.00361
Magnitude (Debye)      :      0.00918

Rotational constants in cm-1:     0.005049     0.002246     0.001678
Rotational constants in MHz :   151.365717    67.318622    50.310932

                             ****ORCA TERMINATED NORMALLY****
TOTAL RUN TIME: 0 days 3 hours 5 minutes 1 seconds 672 msec
