                         Program Version 5.0.2 -  RELEASE  -
|  1> %maxcore 20000
|  2> %pal
|  3>  nprocs= 6
|  4> end
|  5> ! RI-SCS-PBE-QIDH   def2-TZVP def2/J def2-TZVP/C RIJCOSX CPCM TightSCF
|  6> %TDDFT
|  7>    NROOTS   30
|  8>    dcorr 4
|  9>    doscs true
| 10>    TDA      FALSE
| 11> END
| 12>
| 13> %CPCM
| 14>    SMD          TRUE
| 15>    SMDsolvent   "DICHLOROMETHANE"
| 16> END
| 17>
| 18>
| 19> * xyz 0 1
| 20> C                   1.43137300    2.29418800    0.70438500
| 21> C                   0.70439600    1.22302400    0.17341900
| 22> C                   1.41160100   -0.00015500   -0.00126900
| 23> C                   2.82474200   -0.00027400   -0.00119400
| 24> C                   3.52149700    1.15730000    0.38105200
| 25> C                   2.82228800    2.26690200    0.79369700
| 26> C                   0.70405000   -1.22300200   -0.17559400
| 27> C                   3.52285500   -1.15758300   -0.38266900
| 28> H                   3.35673600    3.12398000    1.17950300
| 29> C                   2.82228800   -2.26663500   -0.79522700
| 30> C                   1.43137300   -2.29391200   -0.70639200
| 31> H                   3.35628000   -3.12414500   -1.18047800
| 32> C                  -0.70405000    1.22300200   -0.17559400
| 33> C                  -1.41160100    0.00015500   -0.00126900
| 34> C                  -1.43137300    2.29391200   -0.70639200
| 35> C                  -0.70439600   -1.22302400    0.17341900
| 36> C                  -2.82474200    0.00027400   -0.00119400
| 37> C                  -2.82228800    2.26663500   -0.79522700
| 38> C                  -1.43137300   -2.29418800    0.70438500
| 39> C                  -3.52149700   -1.15730000    0.38105200
| 40> C                  -3.52285500    1.15758300   -0.38266900
| 41> H                  -3.35628000    3.12414500   -1.18047800
| 42> C                  -2.82228800   -2.26690200    0.79369700
| 43> H                  -3.35673600   -3.12398000    1.17950300
| 44> C                   4.99064900    1.16612600    0.40310100
| 45> O                   5.64225000    2.13307100    0.75315200
| 46> C                   4.99419600   -1.17543900   -0.40560700
| 47> O                   5.62839400   -2.15226100   -0.75801100
| 48> N                   5.63329500   -0.00261900    0.00024400
| 49> C                  -4.99064900   -1.16612600    0.40310100
| 50> O                  -5.64225000   -2.13307100    0.75315200
| 51> C                  -4.99419600    1.17543900   -0.40560700
| 52> O                  -5.62839400    2.15226100   -0.75801100
| 53> N                  -5.63329500    0.00261900    0.00024400
| 54> C                   7.08797400    0.03123000    0.01520000
| 55> H                   7.45013100    0.82016800   -0.64041300
| 56> H                   7.45483800   -0.92943800   -0.32481800
| 57> H                   7.44679400    0.23066200    1.02272400
| 58> C                  -7.08797400   -0.03123000    0.01520000
| 59> H                  -7.45013100   -0.82016800   -0.64041300
| 60> H                  -7.45483800    0.92943800   -0.32481800
| 61> H                  -7.44679400   -0.23066200    1.02272400
| 62> Cl                 -0.64800500    3.66045300   -1.41777100
| 63> Cl                 -0.64757500   -3.66049400    1.41560800
| 64> Cl                  0.64800500   -3.66045300   -1.41777100
| 65> Cl                  0.64757500    3.66049400    1.41560800
| 66> *
| 67>
| 68>
| 69>                          ****END OF INPUT****

CARTESIAN COORDINATES (ANGSTROEM)
---------------------------------
  C      1.431373    2.294188    0.704385
  C      0.704396    1.223024    0.173419
  C      1.411601   -0.000155   -0.001269
  C      2.824742   -0.000274   -0.001194
  C      3.521497    1.157300    0.381052
  C      2.822288    2.266902    0.793697
  C      0.704050   -1.223002   -0.175594
  C      3.522855   -1.157583   -0.382669
  H      3.356736    3.123980    1.179503
  C      2.822288   -2.266635   -0.795227
  C      1.431373   -2.293912   -0.706392
  H      3.356280   -3.124145   -1.180478
  C     -0.704050    1.223002   -0.175594
  C     -1.411601    0.000155   -0.001269
  C     -1.431373    2.293912   -0.706392
  C     -0.704396   -1.223024    0.173419
  C     -2.824742    0.000274   -0.001194
  C     -2.822288    2.266635   -0.795227
  C     -1.431373   -2.294188    0.704385
  C     -3.521497   -1.157300    0.381052
  C     -3.522855    1.157583   -0.382669
  H     -3.356280    3.124145   -1.180478
  C     -2.822288   -2.266902    0.793697
  H     -3.356736   -3.123980    1.179503
  C      4.990649    1.166126    0.403101
  O      5.642250    2.133071    0.753152
  C      4.994196   -1.175439   -0.405607
  O      5.628394   -2.152261   -0.758011
  N      5.633295   -0.002619    0.000244
  C     -4.990649   -1.166126    0.403101
  O     -5.642250   -2.133071    0.753152
  C     -4.994196    1.175439   -0.405607
  O     -5.628394    2.152261   -0.758011
  N     -5.633295    0.002619    0.000244
  C      7.087974    0.031230    0.015200
  H      7.450131    0.820168   -0.640413
  H      7.454838   -0.929438   -0.324818
  H      7.446794    0.230662    1.022724
  C     -7.087974   -0.031230    0.015200
  H     -7.450131   -0.820168   -0.640413
  H     -7.454838    0.929438   -0.324818
  H     -7.446794   -0.230662    1.022724
  Cl    -0.648005    3.660453   -1.417771
  Cl    -0.647575   -3.660494    1.415608
  Cl     0.648005   -3.660453   -1.417771
  Cl     0.647575    3.660494    1.415608

 Total Charge           Charge          ....    0
 Multiplicity           Mult            ....    1
 Number of Electrons    NEL             ....  280
 Basis Dimension        Dim             .... 1200

ORBITAL ENERGIES
----------------

  NO   OCC          E(Eh)            E(eV)
   0   2.0000    -103.563021     -2818.0931
   1   2.0000    -103.563021     -2818.0931
   2   2.0000    -103.562989     -2818.0922
   3   2.0000    -103.562989     -2818.0922
   4   2.0000     -19.998205      -544.1788
   5   2.0000     -19.998205      -544.1788
   6   2.0000     -19.998200      -544.1787
   7   2.0000     -19.998200      -544.1787
   8   2.0000     -15.145888      -412.1406
   9   2.0000     -15.145887      -412.1405
  10   2.0000     -10.964515      -298.3596
  11   2.0000     -10.964514      -298.3596
  12   2.0000     -10.962159      -298.2955
  13   2.0000     -10.962159      -298.2955
  14   2.0000     -10.919834      -297.1438
  15   2.0000     -10.919833      -297.1438
  16   2.0000     -10.919754      -297.1416
  17   2.0000     -10.919753      -297.1416
  18   2.0000     -10.887677      -296.2688
  19   2.0000     -10.887664      -296.2684
  20   2.0000     -10.887001      -296.2504
  21   2.0000     -10.886963      -296.2493
  22   2.0000     -10.877904      -296.0028
  23   2.0000     -10.877900      -296.0027
  24   2.0000     -10.871508      -295.8288
  25   2.0000     -10.871507      -295.8287
  26   2.0000     -10.864749      -295.6449
  27   2.0000     -10.864748      -295.6448
  28   2.0000     -10.864487      -295.6377
  29   2.0000     -10.864486      -295.6377
  30   2.0000     -10.862427      -295.5817
  31   2.0000     -10.862426      -295.5817
  32   2.0000     -10.862376      -295.5803
  33   2.0000     -10.862375      -295.5803
  34   2.0000     -10.840650      -294.9891
  35   2.0000     -10.840650      -294.9891
  36   2.0000     -10.167095      -276.6607
  37   2.0000     -10.167095      -276.6607
  38   2.0000     -10.167063      -276.6598
  39   2.0000     -10.167062      -276.6598
  40   2.0000      -7.744022      -210.7255
  41   2.0000      -7.744022      -210.7255
  42   2.0000      -7.743991      -210.7247
  43   2.0000      -7.743991      -210.7247
  44   2.0000      -7.739497      -210.6024
  45   2.0000      -7.739497      -210.6024
  46   2.0000      -7.739465      -210.6015
  47   2.0000      -7.739464      -210.6015
  48   2.0000      -7.739341      -210.5982
  49   2.0000      -7.739341      -210.5982
  50   2.0000      -7.739308      -210.5973
  51   2.0000      -7.739308      -210.5973
  52   2.0000      -1.305747       -35.5312
  53   2.0000      -1.305744       -35.5311
  54   2.0000      -1.285336       -34.9758
  55   2.0000      -1.285335       -34.9758
  56   2.0000      -1.164237       -31.6805
  57   2.0000      -1.161455       -31.6048
  58   2.0000      -1.153984       -31.4015
  59   2.0000      -1.123962       -30.5846
  60   2.0000      -1.118964       -30.4486
  61   2.0000      -1.095504       -29.8102
  62   2.0000      -1.073371       -29.2079
  63   2.0000      -1.062021       -28.8991
  64   2.0000      -1.051821       -28.6215
  65   2.0000      -1.018887       -27.7253
  66   2.0000      -1.012894       -27.5623
  67   2.0000      -0.983616       -26.7656
  68   2.0000      -0.978333       -26.6218
  69   2.0000      -0.935301       -25.4508
  70   2.0000      -0.931420       -25.3452
  71   2.0000      -0.912037       -24.8178
  72   2.0000      -0.904459       -24.6116
  73   2.0000      -0.883042       -24.0288
  74   2.0000      -0.869523       -23.6609
  75   2.0000      -0.838625       -22.8201
  76   2.0000      -0.824931       -22.4475
  77   2.0000      -0.812713       -22.1151
  78   2.0000      -0.796255       -21.6672
  79   2.0000      -0.783792       -21.3281
  80   2.0000      -0.774448       -21.0738
  81   2.0000      -0.767130       -20.8747
  82   2.0000      -0.717869       -19.5342
  83   2.0000      -0.697617       -18.9831
  84   2.0000      -0.693000       -18.8575
  85   2.0000      -0.683726       -18.6051
  86   2.0000      -0.681577       -18.5466
  87   2.0000      -0.664038       -18.0694
  88   2.0000      -0.643275       -17.5044
  89   2.0000      -0.627427       -17.0732
  90   2.0000      -0.622344       -16.9348
  91   2.0000      -0.614560       -16.7230
  92   2.0000      -0.612543       -16.6681
  93   2.0000      -0.609831       -16.5943
  94   2.0000      -0.604434       -16.4475
  95   2.0000      -0.598269       -16.2797
  96   2.0000      -0.598031       -16.2732
  97   2.0000      -0.590000       -16.0547
  98   2.0000      -0.586355       -15.9555
  99   2.0000      -0.585383       -15.9291
 100   2.0000      -0.573017       -15.5926
 101   2.0000      -0.569169       -15.4879
 102   2.0000      -0.555931       -15.1276
 103   2.0000      -0.545687       -14.8489
 104   2.0000      -0.542754       -14.7691
 105   2.0000      -0.542373       -14.7587
 106   2.0000      -0.540790       -14.7156
 107   2.0000      -0.531525       -14.4635
 108   2.0000      -0.527015       -14.3408
 109   2.0000      -0.526995       -14.3403
 110   2.0000      -0.521395       -14.1879
 111   2.0000      -0.510358       -13.8876
 112   2.0000      -0.508154       -13.8276
 113   2.0000      -0.505724       -13.7614
 114   2.0000      -0.503131       -13.6909
 115   2.0000      -0.500801       -13.6275
 116   2.0000      -0.500431       -13.6174
 117   2.0000      -0.491334       -13.3699
 118   2.0000      -0.486554       -13.2398
 119   2.0000      -0.472349       -12.8533
 120   2.0000      -0.470862       -12.8128
 121   2.0000      -0.455782       -12.4025
 122   2.0000      -0.435801       -11.8588
 123   2.0000      -0.431025       -11.7288
 124   2.0000      -0.425868       -11.5885
 125   2.0000      -0.421900       -11.4805
 126   2.0000      -0.415062       -11.2944
 127   2.0000      -0.414121       -11.2688
 128   2.0000      -0.413866       -11.2619
 129   2.0000      -0.407219       -11.0810
 130   2.0000      -0.396931       -10.8010
 131   2.0000      -0.396582       -10.7915
 132   2.0000      -0.396338       -10.7849
 133   2.0000      -0.376234       -10.2379
 134   2.0000      -0.373933       -10.1752
 135   2.0000      -0.350182        -9.5289
 136   2.0000      -0.345731        -9.4078
 137   2.0000      -0.328495        -8.9388
 138   2.0000      -0.321513        -8.7488
 139   2.0000      -0.275516        -7.4972
 140   0.0000      -0.084962        -2.3119
 141   0.0000      -0.020123        -0.5476
 142   0.0000      -0.005196        -0.1414
 143   0.0000       0.019511         0.5309
 144   0.0000       0.020963         0.5704

MULLIKEN ATOMIC CHARGES
-----------------------
   0 C :    0.032533
   1 C :    0.119808
   2 C :    0.028949
   3 C :    0.103317
   4 C :    0.058962
   5 C :   -0.257538
   6 C :    0.117058
   7 C :    0.055615
   8 H :    0.198879
   9 C :   -0.251679
  10 C :    0.027801
  11 H :    0.199648
  12 C :    0.117229
  13 C :    0.028385
  14 C :    0.028791
  15 C :    0.119994
  16 C :    0.103070
  17 C :   -0.252718
  18 C :    0.032248
  19 C :    0.059513
  20 C :    0.056174
  21 H :    0.199393
  22 C :   -0.257818
  23 H :    0.198809
  24 C :    0.275163
  25 O :   -0.467764
  26 C :    0.262176
  27 O :   -0.473592
  28 N :   -0.066602
  29 C :    0.274857
  30 O :   -0.467613
  31 C :    0.263121
  32 O :   -0.473598
  33 N :   -0.066759
  34 C :   -0.317267
  35 H :    0.157931
  36 H :    0.181625
  37 H :    0.157852
  38 C :   -0.317242
  39 H :    0.157938
  40 H :    0.181608
  41 H :    0.157865
  42 Cl:   -0.071522
  43 Cl:   -0.071470
  44 Cl:   -0.071634
  45 Cl:   -0.071495
Sum of atomic charges:   -0.0000000

LOEWDIN ATOMIC CHARGES
----------------------
   0 C :   -0.375376
   1 C :   -0.042742
   2 C :    0.012767
   3 C :   -0.016206
   4 C :   -0.067379
   5 C :   -0.052844
   6 C :   -0.042712
   7 C :   -0.066563
   8 H :    0.173796
   9 C :   -0.052923
  10 C :   -0.375431
  11 H :    0.173814
  12 C :   -0.042711
  13 C :    0.012766
  14 C :   -0.375429
  15 C :   -0.042740
  16 C :   -0.016206
  17 C :   -0.052924
  18 C :   -0.375381
  19 C :   -0.067378
  20 C :   -0.066562
  21 H :    0.173815
  22 C :   -0.052842
  23 H :    0.173795
  24 C :   -0.300822
  25 O :    0.054315
  26 C :   -0.300331
  27 O :    0.048260
  28 N :    0.230322
  29 C :   -0.300818
  30 O :    0.054309
  31 C :   -0.300335
  32 O :    0.048265
  33 N :    0.230322
  34 C :   -0.246289
  35 H :    0.126464
  36 H :    0.131489
  37 H :    0.126376
  38 C :   -0.246289
  39 H :    0.126464
  40 H :    0.131488
  41 H :    0.126376
  42 Cl:    0.430952
  43 Cl:    0.431065
  44 Cl:    0.430952
  45 Cl:    0.431062

  Mayer bond orders larger than 0.100000
B(  0-C ,  1-C ) :   1.3106 B(  0-C ,  5-C ) :   1.2675 B(  0-C , 45-Cl) :   1.1316
B(  1-C ,  2-C ) :   1.2308 B(  1-C , 12-C ) :   0.9187 B(  2-C ,  3-C ) :   1.2954
B(  2-C ,  6-C ) :   1.2341 B(  3-C ,  4-C ) :   1.2719 B(  3-C ,  7-C ) :   1.2809
B(  4-C ,  5-C ) :   1.4753 B(  4-C , 24-C ) :   0.9732 B(  4-C , 25-O ) :  -0.1263
B(  5-C ,  8-H ) :   0.9603 B(  6-C , 10-C ) :   1.3112 B(  6-C , 15-C ) :   0.9187
B(  6-C , 44-Cl) :  -0.1006 B(  7-C ,  9-C ) :   1.4765 B(  7-C , 26-C ) :   0.9686
B(  7-C , 27-O ) :  -0.1295 B(  9-C , 10-C ) :   1.2682 B(  9-C , 11-H ) :   0.9588
B( 10-C , 44-Cl) :   1.1330 B( 12-C , 13-C ) :   1.2346 B( 12-C , 14-C ) :   1.3106
B( 12-C , 42-Cl) :  -0.1008 B( 13-C , 15-C ) :   1.2311 B( 13-C , 16-C ) :   1.2964
B( 14-C , 17-C ) :   1.2666 B( 14-C , 42-Cl) :   1.1337 B( 15-C , 18-C ) :   1.3104
B( 15-C , 43-Cl) :  -0.1000 B( 16-C , 19-C ) :   1.2724 B( 16-C , 20-C ) :   1.2803
B( 17-C , 20-C ) :   1.4768 B( 17-C , 21-H ) :   0.9599 B( 18-C , 22-C ) :   1.2679
B( 18-C , 43-Cl) :   1.1321 B( 19-C , 22-C ) :   1.4746 B( 19-C , 29-C ) :   0.9726
B( 19-C , 30-O ) :  -0.1254 B( 20-C , 31-C ) :   0.9684 B( 20-C , 32-O ) :  -0.1299
B( 22-C , 23-H ) :   0.9603 B( 24-C , 25-O ) :   1.9940 B( 24-C , 28-N ) :   1.1845
B( 26-C , 27-O ) :   1.9893 B( 26-C , 28-N ) :   1.2025 B( 28-N , 34-C ) :   0.8733
B( 29-C , 30-O ) :   1.9935 B( 29-C , 33-N ) :   1.1846 B( 31-C , 32-O ) :   1.9894
B( 31-C , 33-N ) :   1.2026 B( 33-N , 38-C ) :   0.8733 B( 34-C , 35-H ) :   0.9696
B( 34-C , 36-H ) :   0.9586 B( 34-C , 37-H ) :   0.9696 B( 38-C , 39-H ) :   0.9696
B( 38-C , 40-H ) :   0.9586 B( 38-C , 41-H ) :   0.9696

MP2 TOTAL ENERGY:    -3245.952363291 Eh

-----------------------------------------------------------------------------
         ABSORPTION SPECTRUM VIA TRANSITION ELECTRIC DIPOLE MOMENTS
-----------------------------------------------------------------------------
State   Energy    Wavelength  fosc         T2        TX        TY        TZ
        (cm-1)      (nm)                 (au**2)    (au)      (au)      (au)
-----------------------------------------------------------------------------
   1   19612.9    509.9   0.740350783  12.42717  -3.52522   0.00058  -0.00001
   2   24431.8    409.3   0.233237082   3.14281  -0.00130   1.77280   0.00017
   3   25236.0    396.3   0.027458251   0.35820  -0.00005  -0.00045   0.59850
   4   30096.7    332.3   0.021577918   0.23603  -0.00000  -0.00005   0.48583
   5   30501.5    327.9   0.000027326   0.00029   0.00002   0.00000   0.01717
   6   29024.3    344.5   0.000000820   0.00001   0.00003  -0.00001   0.00305
   7   30201.3    331.1   0.000292641   0.00319   0.00002  -0.00000  -0.05648
   8   31699.6    315.5   0.000084401   0.00088   0.00433  -0.02929   0.00011
   9   31708.5    315.4   0.000346148   0.00359   0.00002   0.00011   0.05995
  10   35383.6    282.6   0.069375808   0.64548   0.00003  -0.00004  -0.80342
  11   35199.3    284.1   0.312549296   2.92321   0.00707   1.70972  -0.00002
  12   35255.6    283.6   0.005210243   0.04865   0.21257  -0.05886   0.00003
  13   35405.8    282.4   0.000002551   0.00002   0.00004   0.00004   0.00487
  14   35290.2    283.4   0.483714416   4.51244   0.02866  -2.12406  -0.00000
  15   36469.4    274.2   0.014192035   0.12811   0.00001   0.00007  -0.35793
  16   35732.9    279.9   0.021833703   0.20116  -0.00011  -0.00005  -0.44851
  17   39408.4    253.8   0.017668737   0.14760   0.38028   0.05465  -0.00008
  18   37708.8    265.2   0.047652323   0.41602   0.00004  -0.00066  -0.64500
  19   42247.0    236.7   0.019878912   0.15491   0.00937   0.39347  -0.00082
  20   42535.3    235.1   0.045749463   0.35409  -0.59475   0.01888  -0.00004
  21   39940.4    250.4   0.553024630   4.55835  -0.04348   2.13459  -0.00004
  22   43105.5    232.0   0.192880742   1.47310  -1.20914  -0.10529  -0.00000
  23   42808.8    233.6   0.000009359   0.00007  -0.00001   0.00010   0.00848
  24   42488.4    235.4   0.000002605   0.00002  -0.00001   0.00005   0.00449
  25   40635.1    246.1   0.005564087   0.04508  -0.04475   0.20755  -0.00000
  26   41709.0    239.8   0.032524231   0.25672  -0.02118  -0.50623   0.00001
  27   44766.1    223.4   1.623083710  11.93624   3.45489   0.00131   0.00002
  28   42599.4    234.7   0.007654058   0.05915   0.24018   0.03829  -0.00001
  29   42048.4    237.8   0.131902730   1.03271   1.01611   0.01555  -0.00002
  30   44687.9    223.8   0.000005501   0.00004   0.00535   0.00005  -0.00345

FINAL SINGLE POINT ENERGY     -3243.593180087280

DIPOLE MOMENT
-------------
                                X             Y             Z
Electronic contribution:      0.00001       0.00003      -0.10817
Nuclear contribution   :      0.00000      -0.00000       0.11258
                        -----------------------------------------
Total Dipole Moment    :      0.00001       0.00003       0.00441
                        -----------------------------------------
Magnitude (a.u.)       :      0.00441
Magnitude (Debye)      :      0.01121

Rotational constants in cm-1:     0.005049     0.002246     0.001678
Rotational constants in MHz :   151.365717    67.318622    50.310932

                             ****ORCA TERMINATED NORMALLY****
TOTAL RUN TIME: 0 days 14 hours 51 minutes 55 seconds 298 msec
