                         Program Version 5.0.2 -  RELEASE  -
|  1> %maxcore 12800
|  2> %pal
|  3>  nprocs= 8
|  4> end
|  5> ! RI-DSD-BLYP D3BJ def2-TZVP def2/J def2-TZVP/C RIJCOSX CPCM TightSCF
|  6> %TDDFT DCORR 4
|  7>    NROOTS   30
|  8>
|  9>    TDA      FALSE
| 10> END
| 11>
| 12> %CPCM
| 13>    SMD          TRUE
| 14>    SMDsolvent   "ACETONITRILE"
| 15> END
| 16>
| 17>
| 18> * xyz 0 1
| 19> C                   1.88629500    4.20967500    0.00975300
| 20> C                   0.58312800    3.79831200    0.00210500
| 21> C                   0.25769100    2.42219400   -0.00134700
| 22> C                   1.30920500    1.45669500    0.00107500
| 23> C                   2.64691800    1.92250500    0.01243900
| 24> C                   2.92695500    3.26158300    0.01602800
| 25> C                  -1.07371400    1.98976500   -0.00338400
| 26> C                   0.98468200    0.07504500   -0.00581700
| 27> C                  -0.35228100   -0.31916500   -0.01347600
| 28> C                  -1.40159000    0.65276500   -0.00694200
| 29> C                  -2.78227100    0.19662400   -0.00248100
| 30> C                  -3.03132000   -1.17416000   -0.00726700
| 31> C                  -0.68796500   -1.74830700   -0.03892000
| 32> H                  -1.84891700    2.74447200   -0.00088500
| 33> H                   2.12316200    5.26611500    0.01239500
| 34> H                  -0.22628700    4.51846200   -0.00072200
| 35> H                   3.45640600    1.20471800    0.01849500
| 36> H                   3.95616700    3.59676900    0.02445700
| 37> C                   2.11411600   -0.89034300    0.00271100
| 38> C                   2.72559400   -1.27145900   -1.18861100
| 39> C                   2.62603400   -1.36512600    1.20739000
| 40> C                   3.80945300   -2.13635800   -1.17698700
| 41> H                   2.34182200   -0.89323000   -2.12894300
| 42> C                   3.71094200   -2.22830500    1.21828200
| 43> H                   2.16267700   -1.06177500    2.13897800
| 44> C                   4.30390800   -2.62059300    0.02608700
| 45> H                   4.27114100   -2.43019900   -2.11161500
| 46> H                   4.09560600   -2.59412600    2.16233200
| 47> H                   5.15107000   -3.29480400    0.03504000
| 48> O                   0.08459400   -2.67312200   -0.07461200
| 49> O                  -2.01530000   -2.08680800   -0.02449300
| 50> C                  -3.89782100    1.04425400    0.01055500
| 51> C                  -4.31611200   -1.69787100    0.00165800
| 52> C                  -5.39467800   -0.83571300    0.01492800
| 53> H                  -6.40094900   -1.23393300    0.02187300
| 54> C                  -5.18255600    0.54027400    0.01893300
| 55> H                  -6.02502100    1.21919700    0.02905900
| 56> H                  -3.75312400    2.11601700    0.01476600
| 57> H                  -4.44577800   -2.77198100   -0.00265200
| 58> *
| 59>
| 60>
| 61>                          ****END OF INPUT****

CARTESIAN COORDINATES (ANGSTROEM)
---------------------------------
  C      1.886295    4.209675    0.009753
  C      0.583128    3.798312    0.002105
  C      0.257691    2.422194   -0.001347
  C      1.309205    1.456695    0.001075
  C      2.646918    1.922505    0.012439
  C      2.926955    3.261583    0.016028
  C     -1.073714    1.989765   -0.003384
  C      0.984682    0.075045   -0.005817
  C     -0.352281   -0.319165   -0.013476
  C     -1.401590    0.652765   -0.006942
  C     -2.782271    0.196624   -0.002481
  C     -3.031320   -1.174160   -0.007267
  C     -0.687965   -1.748307   -0.038920
  H     -1.848917    2.744472   -0.000885
  H      2.123162    5.266115    0.012395
  H     -0.226287    4.518462   -0.000722
  H      3.456406    1.204718    0.018495
  H      3.956167    3.596769    0.024457
  C      2.114116   -0.890343    0.002711
  C      2.725594   -1.271459   -1.188611
  C      2.626034   -1.365126    1.207390
  C      3.809453   -2.136358   -1.176987
  H      2.341822   -0.893230   -2.128943
  C      3.710942   -2.228305    1.218282
  H      2.162677   -1.061775    2.138978
  C      4.303908   -2.620593    0.026087
  H      4.271141   -2.430199   -2.111615
  H      4.095606   -2.594126    2.162332
  H      5.151070   -3.294804    0.035040
  O      0.084594   -2.673122   -0.074612
  O     -2.015300   -2.086808   -0.024493
  C     -3.897821    1.044254    0.010555
  C     -4.316112   -1.697871    0.001658
  C     -5.394678   -0.835713    0.014928
  H     -6.400949   -1.233933    0.021873
  C     -5.182556    0.540274    0.018933
  H     -6.025021    1.219197    0.029059
  H     -3.753124    2.116017    0.014766
  H     -4.445778   -2.771981   -0.002652

 Total Charge           Charge          ....    0
 Multiplicity           Mult            ....    1
 Number of Electrons    NEL             ....  168
 Basis Dimension        Dim             ....  859

ORBITAL ENERGIES
----------------

  NO   OCC          E(Eh)            E(eV)
   0   2.0000     -20.074570      -546.2568
   1   2.0000     -19.996930      -544.1441
   2   2.0000     -10.982903      -298.8600
   3   2.0000     -10.906042      -296.7685
   4   2.0000     -10.868218      -295.7393
   5   2.0000     -10.861181      -295.5477
   6   2.0000     -10.858541      -295.4759
   7   2.0000     -10.850649      -295.2612
   8   2.0000     -10.848856      -295.2124
   9   2.0000     -10.848172      -295.1938
  10   2.0000     -10.839749      -294.9646
  11   2.0000     -10.837130      -294.8933
  12   2.0000     -10.835562      -294.8506
  13   2.0000     -10.834976      -294.8347
  14   2.0000     -10.834498      -294.8217
  15   2.0000     -10.833755      -294.8015
  16   2.0000     -10.831775      -294.7476
  17   2.0000     -10.831616      -294.7433
  18   2.0000     -10.830605      -294.7157
  19   2.0000     -10.827591      -294.6337
  20   2.0000     -10.825493      -294.5766
  21   2.0000     -10.825294      -294.5712
  22   2.0000     -10.824141      -294.5399
  23   2.0000     -10.824031      -294.5368
  24   2.0000     -10.823270      -294.5162
  25   2.0000      -1.345492       -36.6127
  26   2.0000      -1.248266       -33.9671
  27   2.0000      -1.088583       -29.6219
  28   2.0000      -1.057286       -28.7702
  29   2.0000      -1.045505       -28.4496
  30   2.0000      -1.023605       -27.8537
  31   2.0000      -0.979854       -26.6632
  32   2.0000      -0.950826       -25.8733
  33   2.0000      -0.929477       -25.2924
  34   2.0000      -0.921325       -25.0705
  35   2.0000      -0.915840       -24.9213
  36   2.0000      -0.913239       -24.8505
  37   2.0000      -0.880519       -23.9602
  38   2.0000      -0.825257       -22.4564
  39   2.0000      -0.794893       -21.6301
  40   2.0000      -0.779934       -21.2231
  41   2.0000      -0.758559       -20.6414
  42   2.0000      -0.748719       -20.3737
  43   2.0000      -0.742902       -20.2154
  44   2.0000      -0.706965       -19.2375
  45   2.0000      -0.700611       -19.0646
  46   2.0000      -0.684962       -18.6388
  47   2.0000      -0.646658       -17.5965
  48   2.0000      -0.642246       -17.4764
  49   2.0000      -0.622188       -16.9306
  50   2.0000      -0.603142       -16.4123
  51   2.0000      -0.597885       -16.2693
  52   2.0000      -0.591952       -16.1078
  53   2.0000      -0.581247       -15.8165
  54   2.0000      -0.571430       -15.5494
  55   2.0000      -0.567667       -15.4470
  56   2.0000      -0.564843       -15.3702
  57   2.0000      -0.554435       -15.0869
  58   2.0000      -0.543137       -14.7795
  59   2.0000      -0.540358       -14.7039
  60   2.0000      -0.530068       -14.4239
  61   2.0000      -0.523249       -14.2383
  62   2.0000      -0.521579       -14.1929
  63   2.0000      -0.500450       -13.6179
  64   2.0000      -0.497009       -13.5243
  65   2.0000      -0.494414       -13.4537
  66   2.0000      -0.487886       -13.2761
  67   2.0000      -0.465842       -12.6762
  68   2.0000      -0.459321       -12.4988
  69   2.0000      -0.454736       -12.3740
  70   2.0000      -0.449004       -12.2180
  71   2.0000      -0.446123       -12.1396
  72   2.0000      -0.437271       -11.8987
  73   2.0000      -0.435762       -11.8577
  74   2.0000      -0.420355       -11.4384
  75   2.0000      -0.414803       -11.2874
  76   2.0000      -0.396530       -10.7901
  77   2.0000      -0.364972        -9.9314
  78   2.0000      -0.338754        -9.2180
  79   2.0000      -0.311352        -8.4723
  80   2.0000      -0.305526        -8.3138
  81   2.0000      -0.300596        -8.1796
  82   2.0000      -0.296483        -8.0677
  83   2.0000      -0.259886        -7.0719
  84   0.0000      -0.001063        -0.0289
  85   0.0000       0.013616         0.3705
  86   0.0000       0.063360         1.7241
  87   0.0000       0.069259         1.8846
  88   0.0000       0.072255         1.9662

MULLIKEN ATOMIC CHARGES
-----------------------
   0 C :   -0.114069
   1 C :   -0.278074
   2 C :    0.172646
   3 C :    0.076275
   4 C :   -0.268501
   5 C :   -0.172457
   6 C :   -0.438181
   7 C :    0.367266
   8 C :   -0.177423
   9 C :    0.197419
  10 C :    0.122316
  11 C :    0.219525
  12 C :    0.437701
  13 H :    0.162800
  14 H :    0.166993
  15 H :    0.164134
  16 H :    0.180117
  17 H :    0.165339
  18 C :    0.154958
  19 C :   -0.257356
  20 C :   -0.256957
  21 C :   -0.191764
  22 H :    0.159378
  23 C :   -0.191514
  24 H :    0.159079
  25 C :   -0.146406
  26 H :    0.158598
  27 H :    0.158507
  28 H :    0.160601
  29 O :   -0.434863
  30 O :   -0.279851
  31 C :   -0.237200
  32 C :   -0.313510
  33 C :   -0.103632
  34 H :    0.168858
  35 C :   -0.183479
  36 H :    0.163655
  37 H :    0.167203
  38 H :    0.161868
Sum of atomic charges:    0.0000000

LOEWDIN ATOMIC CHARGES
----------------------
   0 C :   -0.125813
   1 C :   -0.098492
   2 C :   -0.083335
   3 C :   -0.054316
   4 C :   -0.087941
   5 C :   -0.137687
   6 C :   -0.049644
   7 C :    0.014599
   8 C :   -0.051645
   9 C :   -0.060567
  10 C :   -0.088946
  11 C :   -0.174563
  12 C :   -0.346637
  13 H :    0.163780
  14 H :    0.154217
  15 H :    0.157636
  16 H :    0.162404
  17 H :    0.153255
  18 C :   -0.097893
  19 C :   -0.101644
  20 C :   -0.101022
  21 C :   -0.145664
  22 H :    0.155500
  23 C :   -0.145642
  24 H :    0.155440
  25 C :   -0.150326
  26 H :    0.150394
  27 H :    0.150379
  28 H :    0.149179
  29 O :    0.072768
  30 O :    0.313996
  31 C :   -0.084428
  32 C :   -0.113905
  33 C :   -0.126995
  34 H :    0.154618
  35 C :   -0.150166
  36 H :    0.152529
  37 H :    0.158341
  38 H :    0.158237

  Mayer bond orders larger than 0.100000
B(  0-C ,  1-C ) :   1.5554 B(  0-C ,  5-C ) :   1.2234 B(  0-C , 14-H ) :   0.9805
B(  1-C ,  2-C ) :   1.2180 B(  1-C , 15-H ) :   0.9914 B(  2-C ,  3-C ) :   1.2968
B(  2-C ,  6-C ) :   1.2502 B(  3-C ,  4-C ) :   1.2008 B(  3-C ,  7-C ) :   1.2022
B(  4-C ,  5-C ) :   1.6040 B(  4-C , 16-H ) :   0.9663 B(  5-C , 17-H ) :   0.9833
B(  6-C ,  9-C ) :   1.4930 B(  6-C , 13-H ) :   0.9802 B(  7-C ,  8-C ) :   1.3639
B(  7-C , 18-C ) :   0.6855 B(  8-C ,  9-C ) :   1.2544 B(  8-C , 12-C ) :   0.9999
B(  9-C , 10-C ) :   0.9570 B( 10-C , 11-C ) :   1.3729 B( 10-C , 31-C ) :   1.3117
B( 11-C , 30-O ) :   0.9939 B( 11-C , 32-C ) :   1.3961 B( 12-C , 29-O ) :   2.0482
B( 12-C , 30-O ) :   1.1640 B( 18-C , 19-C ) :   1.4073 B( 18-C , 20-C ) :   1.4134
B( 19-C , 21-C ) :   1.4460 B( 19-C , 22-H ) :   0.9835 B( 20-C , 23-C ) :   1.4494
B( 20-C , 24-H ) :   0.9842 B( 21-C , 25-C ) :   1.3989 B( 21-C , 26-H ) :   0.9837
B( 23-C , 25-C ) :   1.3980 B( 23-C , 27-H ) :   0.9836 B( 25-C , 28-H ) :   0.9791
B( 31-C , 35-C ) :   1.4798 B( 31-C , 37-H ) :   0.9580 B( 32-C , 33-C ) :   1.4295
B( 32-C , 38-H ) :   0.9949 B( 33-C , 34-H ) :   0.9783 B( 33-C , 35-C ) :   1.3589
B( 35-C , 36-H ) :   0.9864

MP2 TOTAL ENERGY:    -1034.415469712 Eh

-----------------------------------------------------------------------------
         ABSORPTION SPECTRUM VIA TRANSITION ELECTRIC DIPOLE MOMENTS
-----------------------------------------------------------------------------
State   Energy    Wavelength  fosc         T2        TX        TY        TZ
        (cm-1)      (nm)                 (au**2)    (au)      (au)      (au)
-----------------------------------------------------------------------------
   1   25820.3    387.3   0.073984065   0.94331   0.51999  -0.82030   0.00557
   2   28564.6    350.1   0.241547469   2.78387   1.48573   0.75924  -0.00549
   3   31945.7    313.0   0.930677518   9.59097   2.62232   1.64744   0.01787
   4   25301.9    395.2   0.003000731   0.03904  -0.11458  -0.15994   0.01823
   5   31037.7    322.2   0.110860368   1.17588   0.83787   0.68834   0.00624
   6   33651.3    297.2   0.363287636   3.55406   0.81242  -1.70117  -0.00697
   7   34424.6    290.5   0.001499808   0.01434  -0.06263   0.01039   0.10155
   8   36558.3    273.5   0.331099136   2.98159   1.37889   1.03934   0.00241
   9   39609.1    252.5   0.002544675   0.02115   0.13421  -0.01957  -0.05248
  10   40647.5    246.0   0.071932268   0.58259   0.01270  -0.76272  -0.02637
  11   32150.2    311.0   0.009549627   0.09779  -0.13854  -0.27525  -0.05323
  12   33358.3    299.8   0.033962222   0.33517  -0.21703  -0.52741   0.09957
  13   43705.2    228.8   0.289880790   2.18354   1.34968  -0.60125   0.01985
  14   37089.4    269.6   0.235638800   2.09157  -0.19427  -1.43228  -0.04908
  15   34511.9    289.8   0.080794747   0.77071  -0.40202  -0.76194   0.16893
  16   31128.3    321.3   0.036828802   0.38950  -0.16378  -0.31620  -0.51254
  17   36730.5    272.3   0.017394660   0.15591  -0.37915   0.10303   0.03916
  18   38085.6    262.6   0.155593163   1.34495   1.01547  -0.55890  -0.03734
  19   40194.9    248.8   0.381049476   3.12095  -1.43281   1.03086  -0.07301
  20   38775.2    257.9   0.020671421   0.17551  -0.28103  -0.29099   0.10885
  21   41878.7    238.8   0.224667471   1.76613   0.73456  -0.13229  -1.09957
  22   44253.6    226.0   0.292945830   2.17928  -0.48934   0.15198  -1.38446
  23   37700.7    265.2   0.037974917   0.33161  -0.46838  -0.27890   0.18558
  24   36015.7    277.7   0.037569745   0.34342   0.53844  -0.23131   0.00002
  25   44745.6    223.5   0.256863703   1.88985   0.92602  -1.01561   0.02963
  26   41656.3    240.1   0.002964938   0.02343  -0.03693  -0.00133   0.14855
  27   40854.7    244.8   0.069274967   0.55823  -0.69676   0.26464   0.05213
  28   50082.9    199.7   0.017826266   0.11718   0.29462  -0.12056   0.12587
  29   42867.5    233.3   0.056161864   0.43131   0.57376  -0.31658  -0.04341
  30   41151.5    243.0   0.009304634   0.07444   0.17784  -0.19453   0.07050

Dispersion correction           -0.039739244
FINAL SINGLE POINT ENERGY     -1032.364346222942

DIPOLE MOMENT
-------------
                                X             Y             Z
Electronic contribution:     -5.28914      -3.61600      -0.14926
Nuclear contribution   :      4.72501       6.17663       0.20653
                        -----------------------------------------
Total Dipole Moment    :     -0.56413       2.56064       0.05727
                        -----------------------------------------
Magnitude (a.u.)       :      2.62267
Magnitude (Debye)      :      6.66629

Rotational constants in cm-1:     0.011605     0.006121     0.004181
Rotational constants in MHz :   347.917303   183.508149   125.354082

                             ****ORCA TERMINATED NORMALLY****
TOTAL RUN TIME: 0 days 0 hours 42 minutes 24 seconds 786 msec
