 Gaussian 09, Revision E.01,

 ----------------------------------------------------------------------
 #p PBEPBE/def2TZVP opt=tight freq=noraman nosymm int=ultrafine scrf=(S
 MD,solvent=Acetonitrile) EmpiricalDispersion=GD3BJ
 ----------------------------------------------------------------------

 -----
 Title
 -----
 Symbolic Z-matrix:
 Charge =  0 Multiplicity = 1

 SCF Done:  E(RPBE-PBE) =  -1034.54748868     A.U. after   15 cycles
 SCF Done:  E(RPBE-PBE) =  -1034.54748870     A.U. after    6 cycles
 SCF Done:  E(RPBE-PBE) =  -1034.54748870     A.U. after    5 cycles
 SCF Done:  E(RPBE-PBE) =  -1034.54748870     A.U. after    6 cycles
 SCF Done:  E(RPBE-PBE) =  -1034.54748871     A.U. after    6 cycles
 SCF Done:  E(RPBE-PBE) =  -1034.54748871     A.U. after    4 cycles
 SCF Done:  E(RPBE-PBE) =  -1034.54748871     A.U. after    5 cycles
 SCF Done:  E(RPBE-PBE) =  -1034.54748871     A.U. after    5 cycles
 SCF Done:  E(RPBE-PBE) =  -1034.54748871     A.U. after    6 cycles
 SCF Done:  E(RPBE-PBE) =  -1034.54748871     A.U. after    5 cycles
 SCF Done:  E(RPBE-PBE) =  -1034.54749168     A.U. after    8 cycles
 SCF Done:  E(RPBE-PBE) =  -1034.54748996     A.U. after    9 cycles
 SCF Done:  E(RPBE-PBE) =  -1034.54749177     A.U. after    9 cycles
 SCF Done:  E(RPBE-PBE) =  -1034.54749180     A.U. after    7 cycles
 SCF Done:  E(RPBE-PBE) =  -1034.54749179     A.U. after    6 cycles
 SCF Done:  E(RPBE-PBE) =  -1034.54749180     A.U. after    6 cycles
 SCF Done:  E(RPBE-PBE) =  -1034.54749181     A.U. after    6 cycles
 SCF Done:  E(RPBE-PBE) =  -1034.54749181     A.U. after    6 cycles
 Optimization completed.
    -- Stationary point found.
 Normal termination of Gaussian 09 at Tue Nov 23 09:05:29 2021.

 ---------------------------------------------------------------------
 #P Geom=AllCheck Guess=TCheck SCRF=Check GenChk RPBEPBE/def2TZVP Freq
 ---------------------------------------------------------------------

 Structure from the checkpoint file:  "cp.chk"
 -----
 Title
 -----
 Charge =  0 Multiplicity = 1

 SCF Done:  E(RPBE-PBE) =  -1034.54749181     A.U. after    1 cycles

  Exact polarizability: 627.819  40.493 516.779  -3.197  -0.963 258.098
 Approx polarizability: 800.511  49.124 720.832  -4.904  -0.956 339.612

                      1                      2                      3
                      A                      A                      A
 Frequencies --     15.5126                42.2514                52.9364
 Red. masses --      5.2085                 4.9148                 4.7494
 Frc consts  --      0.0007                 0.0052                 0.0078
 IR Inten    --      1.8618                 0.1302                 1.2931

                      4                      5                      6
                      A                      A                      A
 Frequencies --     61.7461                66.6127                94.2389
 Red. masses --      5.3529                 4.3720                 6.4277
 Frc consts  --      0.0120                 0.0114                 0.0336
 IR Inten    --      0.8990                 0.0057                 0.0628

                      7                      8                      9
                      A                      A                      A
 Frequencies --    136.0666               153.6667               195.8847
 Red. masses --      5.0952                 5.4453                 4.5047
 Frc consts  --      0.0556                 0.0758                 0.1018
 IR Inten    --      0.0027                 1.3714                 0.3053

                     10                     11                     12
                      A                      A                      A
 Frequencies --    230.9391               242.2096               248.2416
 Red. masses --      6.6014                 6.1894                 4.3629
 Frc consts  --      0.2074                 0.2139                 0.1584
 IR Inten    --      0.0484                 0.5897                 2.1288

                     13                     14                     15
                      A                      A                      A
 Frequencies --    297.0257               299.3630               321.2071
 Red. masses --      4.2041                 8.5468                 5.3903
 Frc consts  --      0.2185                 0.4513                 0.3277
 IR Inten    --      1.6893                11.1511                 0.1677

                     16                     17                     18
                      A                      A                      A
 Frequencies --    354.5460               357.9901               394.6656
 Red. masses --      6.8630                 5.7026                 2.8995
 Frc consts  --      0.5083                 0.4306                 0.2661
 IR Inten    --      0.7857                 4.1713                 0.2156

                     19                     20                     21
                      A                      A                      A
 Frequencies --    430.8899               441.9251               454.9675
 Red. masses --      3.1794                 7.1286                 3.4633
 Frc consts  --      0.3478                 0.8203                 0.4224
 IR Inten    --      0.7808                 0.3613                23.4210

                     22                     23                     24
                      A                      A                      A
 Frequencies --    477.3929               506.1594               530.9452
 Red. masses --      5.9394                 3.6049                 3.4215
 Frc consts  --      0.7975                 0.5442                 0.5683
 IR Inten    --      9.3396                 7.3822                 3.2025

                     25                     26                     27
                      A                      A                      A
 Frequencies --    543.7518               563.3309               594.7864
 Red. masses --      5.2118                 6.7707                 7.0691
 Frc consts  --      0.9079                 1.2659                 1.4735
 IR Inten    --     11.8577                21.7013                40.6150

                     28                     29                     30
                      A                      A                      A
 Frequencies --    604.5591               615.8355               627.8186
 Red. masses --      5.6838                 7.0601                 4.3768
 Frc consts  --      1.2240                 1.5776                 1.0164
 IR Inten    --      0.1827                11.9686                 3.5078

                     31                     32                     33
                      A                      A                      A
 Frequencies --    644.1453               660.8458               661.8187
 Red. masses --      5.8064                 6.1325                 5.2434
 Frc consts  --      1.4195                 1.5779                 1.3531
 IR Inten    --      3.9364                 3.3575                 0.7387

                     34                     35                     36
                      A                      A                      A
 Frequencies --    688.5051               690.9674               724.7704
 Red. masses --      6.5770                 1.5791                 2.1873
 Frc consts  --      1.8369                 0.4442                 0.6770
 IR Inten    --      7.1285                87.6587                 9.0141

                     37                     38                     39
                      A                      A                      A
 Frequencies --    738.2269               739.8003               743.8723
 Red. masses --      1.3659                 2.7695                 1.8485
 Frc consts  --      0.4386                 0.8931                 0.6026
 IR Inten    --    114.8433                53.4917               105.9384

                     40                     41                     42
                      A                      A                      A
 Frequencies --    764.9594               794.0899               814.4955
 Red. masses --      3.5224                 4.4438                 3.0445
 Frc consts  --      1.2144                 1.6510                 1.1900
 IR Inten    --      2.1174                 9.7437                 2.4905

                     43                     44                     45
                      A                      A                      A
 Frequencies --    825.6333               844.0961               844.6155
 Red. masses --      1.2547                 1.5985                 4.9689
 Frc consts  --      0.5039                 0.6711                 2.0885
 IR Inten    --      0.0354                 1.0256                 0.8233

                     46                     47                     48
                      A                      A                      A
 Frequencies --    847.2034               879.2419               884.3838
 Red. masses --      1.6464                 5.1626                 2.0737
 Frc consts  --      0.6962                 2.3515                 0.9556
 IR Inten    --     14.4142                26.0076                22.2446

                     49                     50                     51
                      A                      A                      A
 Frequencies --    890.0675               915.5306               917.3886
 Red. masses --      1.9213                 4.0703                 1.3662
 Frc consts  --      0.8968                 2.0101                 0.6774
 IR Inten    --      3.1894                26.8246                 4.7802

                     52                     53                     54
                      A                      A                      A
 Frequencies --    934.3596               938.7043               940.0617
 Red. masses --      1.3700                 1.2895                 1.3327
 Frc consts  --      0.7047                 0.6695                 0.6939
 IR Inten    --      0.1867                 0.8093                 2.2509

                     55                     56                     57
                      A                      A                      A
 Frequencies --    958.4716               960.2851               968.6779
 Red. masses --      1.2693                 1.3018                 6.5683
 Frc consts  --      0.6870                 0.7073                 3.6313
 IR Inten    --      0.8620                 0.0357               115.4282

                     58                     59                     60
                      A                      A                      A
 Frequencies --    989.9448              1023.0931              1025.1673
 Red. masses --      6.1768                 2.3238                 2.0885
 Frc consts  --      3.5664                 1.4331                 1.2932
 IR Inten    --      0.8641                 6.2732                11.9074

                     61                     62                     63
                      A                      A                      A
 Frequencies --   1037.4253              1066.8334              1067.9510
 Red. masses --      1.8968                 3.9647                 1.6746
 Frc consts  --      1.2028                 2.6586                 1.1253
 IR Inten    --      6.9076               412.0006                82.0494

                     64                     65                     66
                      A                      A                      A
 Frequencies --   1096.8829              1116.2724              1133.2607
 Red. masses --      1.8950                 1.6138                 1.0628
 Frc consts  --      1.3433                 1.1848                 0.8042
 IR Inten    --     56.8170                17.9711                 0.0033

                     67                     68                     69
                      A                      A                      A
 Frequencies --   1134.9013              1137.0263              1153.9957
 Red. masses --      1.1571                 1.1142                 1.1157
 Frc consts  --      0.8781                 0.8487                 0.8754
 IR Inten    --     12.6459                46.2266                 0.0114

                     70                     71                     72
                      A                      A                      A
 Frequencies --   1165.9332              1186.9327              1214.8273
 Red. masses --      2.3574                 2.2445                 2.1136
 Frc consts  --      1.8881                 1.8630                 1.8378
 IR Inten    --     88.4881               159.8482                81.3427

                     73                     74                     75
                      A                      A                      A
 Frequencies --   1223.4128              1253.4848              1259.6434
 Red. masses --      2.6493                 2.6699                 1.9100
 Frc consts  --      2.3363                 2.4716                 1.7856
 IR Inten    --    104.5976                78.4044                46.2361

                     76                     77                     78
                      A                      A                      A
 Frequencies --   1290.7462              1319.9177              1328.7992
 Red. masses --      1.4734                 2.4239                 3.7795
 Frc consts  --      1.4462                 2.4881                 3.9319
 IR Inten    --      0.0371                13.0048                74.1012

                     79                     80                     81
                      A                      A                      A
 Frequencies --   1333.1780              1356.2097              1381.4299
 Red. masses --      5.4453                 5.7457                 4.2227
 Frc consts  --      5.7023                 6.2266                 4.7479
 IR Inten    --      0.0551                 9.2047                 2.1708

                     82                     83                     84
                      A                      A                      A
 Frequencies --   1383.2949              1403.8509              1425.9557
 Red. masses --      3.6503                 5.5947                 2.3075
 Frc consts  --      4.1154                 6.4964                 2.7645
 IR Inten    --      2.3817                18.2964                 7.7060

                     85                     86                     87
                      A                      A                      A
 Frequencies --   1430.7001              1449.8644              1476.0664
 Red. masses --      2.8899                 2.8116                 2.6617
 Frc consts  --      3.4853                 3.4822                 3.4168
 IR Inten    --     21.0417                81.2818                32.0096

                     88                     89                     90
                      A                      A                      A
 Frequencies --   1480.0378              1492.0153              1550.0752
 Red. masses --      3.0372                 3.5652                 8.5280
 Frc consts  --      3.9198                 4.6761                12.0726
 IR Inten    --     15.9276                32.1319                54.1672

                     91                     92                     93
                      A                      A                      A
 Frequencies --   1572.0317              1576.3172              1586.8442
 Red. masses --      5.9884                 5.7077                 7.3040
 Frc consts  --      8.7193                 8.3560                10.8362
 IR Inten    --      1.3927                23.2050               139.1916

                     94                     95                     96
                      A                      A                      A
 Frequencies --   1595.3743              1601.5806              1609.8574
 Red. masses --      6.1818                 6.5423                 6.5164
 Frc consts  --      9.2702                 9.8872                 9.9502
 IR Inten    --     12.8661                39.1268                53.7870

                     97                     98                     99
                      A                      A                      A
 Frequencies --   1709.3849              3098.8712              3103.3207
 Red. masses --     12.9367                 1.0849                 1.0869
 Frc consts  --     22.2716                 6.1385                 6.1670
 IR Inten    --    875.9325                 2.3701                 0.0039

                    100                    101                    102
                      A                      A                      A
 Frequencies --   3104.8517              3111.6685              3113.9986
 Red. masses --      1.0865                 1.0909                 1.0861
 Frc consts  --      6.1708                 6.2234                 6.2054
 IR Inten    --      0.6520                 9.2953                 0.2000

                    103                    104                    105
                      A                      A                      A
 Frequencies --   3114.4469              3117.3201              3120.7195
 Red. masses --      1.0893                 1.0947                 1.0903
 Frc consts  --      6.2255                 6.2680                 6.2560
 IR Inten    --     11.1427                38.7565                 7.9345

                    106                    107                    108
                      A                      A                      A
 Frequencies --   3125.5405              3126.1052              3126.2342
 Red. masses --      1.0939                 1.0911                 1.0980
 Frc consts  --      6.2962                 6.2824                 6.3227
 IR Inten    --     22.1784                 1.1646                17.8284

                    109                    110                    111
                      A                      A                      A
 Frequencies --   3133.9781              3136.6343              3140.5703
 Red. masses --      1.0942                 1.0946                 1.0937
 Frc consts  --      6.3320                 6.3451                 6.3560
 IR Inten    --      9.6668                18.6800                16.5680

 - Thermochemistry -
 -------------------
 Temperature   298.150 Kelvin.  Pressure   1.00000 Atm.
 Atom     1 has atomic number  6 and mass  12.00000

 Molecular mass:   322.09938 amu.
 Principal axes and moments of inertia in atomic units:
                           1         2         3
     Eigenvalues --  5225.744869974.84196**********
           X            0.99997  -0.00809   0.00201
           Y            0.00809   0.99997  -0.00118
           Z           -0.00200   0.00120   1.00000
 This molecule is an asymmetric top.
 Rotational symmetry number  1.
 Warning -- assumption of classical behavior for rotation
           may cause significant error
 Rotational temperatures (Kelvin)      0.01657     0.00868     0.00595
 Rotational constants (GHZ):           0.34536     0.18093     0.12390
 Zero-point vibrational energy     768525.7 (Joules/Mol)
                                  183.68205 (Kcal/Mol)
 Warning -- explicit consideration of  29 degrees of freedom as
           vibrations may cause significant error
 Vibrational temperatures:     22.32    60.79    76.16    88.84    95.84
          (Kelvin)            135.59   195.77   221.09   281.83   332.27
                              348.49   357.16   427.35   430.72   462.14
                              510.11   515.07   567.84   619.95   635.83
                              654.60   686.86   728.25   763.91   782.34
                              810.51   855.76   869.82   886.05   903.29
                              926.78   950.81   952.21   990.60   994.15
                             1042.78  1062.14  1064.41  1070.26  1100.60
                             1142.52  1171.88  1187.90  1214.46  1215.21
                             1218.94  1265.03  1272.43  1280.61  1317.24
                             1319.92  1344.33  1350.58  1352.54  1379.03
                             1381.63  1393.71  1424.31  1472.00  1474.99
                             1492.62  1534.93  1536.54  1578.17  1606.06
                             1630.51  1632.87  1635.93  1660.34  1677.52
                             1707.73  1747.86  1760.22  1803.48  1812.34
                             1857.09  1899.06  1911.84  1918.14  1951.28
                             1987.57  1990.25  2019.83  2051.63  2058.46
                             2086.03  2123.73  2129.44  2146.67  2230.21
                             2261.80  2267.97  2283.11  2295.38  2304.31
                             2316.22  2459.42  4458.58  4464.98  4467.18
                             4476.99  4480.34  4480.99  4485.12  4490.01
                             4496.95  4497.76  4497.95  4509.09  4512.91
                             4518.57

 Zero-point correction=                           0.292716 (Hartree/Particle)
 Thermal correction to Energy=                    0.311233
 Thermal correction to Enthalpy=                  0.312177
 Thermal correction to Gibbs Free Energy=         0.244706
 Sum of electronic and zero-point Energies=          -1034.254776
 Sum of electronic and thermal Energies=             -1034.236259
 Sum of electronic and thermal Enthalpies=           -1034.235315
 Sum of electronic and thermal Free Energies=        -1034.302785

                     E (Thermal)             CV                S
                      KCal/Mol        Cal/Mol-Kelvin    Cal/Mol-Kelvin
 Total                  195.302             76.222            142.004
 Electronic               0.000              0.000              0.000
 Translational            0.889              2.981             43.205
 Rotational               0.889              2.981             34.984
 Vibrational            193.524             70.261             63.816
 Vibration     1          0.593              1.986              7.139
 Vibration     2          0.595              1.980              5.151
 Vibration     3          0.596              1.976              4.705
 Vibration     4          0.597              1.973              4.401
 Vibration     5          0.598              1.970              4.251
 Vibration     6          0.603              1.953              3.570
 Vibration     7          0.614              1.917              2.858
 Vibration     8          0.619              1.899              2.626
 Vibration     9          0.636              1.846              2.171
 Vibration    10          0.653              1.794              1.872
 Vibration    11          0.658              1.776              1.787
 Vibration    12          0.662              1.766              1.743
 Vibration    13          0.691              1.679              1.434
 Vibration    14          0.692              1.675              1.420
 Vibration    15          0.707              1.633              1.304
 Vibration    16          0.730              1.566              1.146
 Vibration    17          0.733              1.559              1.131
 Vibration    18          0.762              1.482              0.982
 Vibration    19          0.792              1.403              0.856
 Vibration    20          0.802              1.379              0.821
 Vibration    21          0.813              1.350              0.781
 Vibration    22          0.834              1.300              0.717
 Vibration    23          0.861              1.236              0.643
 Vibration    24          0.886              1.182              0.585
 Vibration    25          0.899              1.153              0.557
 Vibration    26          0.919              1.111              0.517
 Vibration    27          0.952              1.043              0.459
 Vibration    28          0.963              1.022              0.442
 Vibration    29          0.975              0.998              0.423

 Optimization completed.
    -- Stationary point found.
 Normal termination of Gaussian 09 at Tue Nov 23 11:24:56 2021.
 Gaussian 09:  ES64L-G09RevE.01 30-Nov-2015

 ----------------------------------------------------------------------
 #p PBEPBE chkbasis geom=allcheck Guess=Read int=ultrafine scrf=(SMD,so
 lvent=Acetonitrile) td=(NStates=30) EmpiricalDispersion=GD3BJ
 ----------------------------------------------------------------------

 Structure from the checkpoint file:  "cp.chk"
 -----
 Title
 -----
 Charge =  0 Multiplicity = 1

                         Standard orientation:
 ---------------------------------------------------------------------
 Center     Atomic      Atomic             Coordinates (Angstroms)
 Number     Number       Type             X           Y           Z
 ---------------------------------------------------------------------
      1          6           0        1.901563    4.226646    0.007840
      2          6           0        0.587257    3.814849   -0.000724
      3          6           0        0.260329    2.430742   -0.003654
      4          6           0        1.317324    1.457768    0.000072
      5          6           0        2.663698    1.921251    0.012480
      6          6           0        2.947236    3.270451    0.015611
      7          6           0       -1.079927    1.998965   -0.005936
      8          6           0        0.989081    0.068956   -0.007496
      9          6           0       -0.357028   -0.326211   -0.016631
     10          6           0       -1.411492    0.653104   -0.009255
     11          6           0       -2.800992    0.198777   -0.002811
     12          6           0       -3.055965   -1.180709   -0.007381
     13          6           0       -0.695339   -1.762971   -0.044565
     14          1           0       -1.858066    2.762696   -0.003494
     15          1           0        2.142469    5.291274    0.010008
     16          1           0       -0.227939    4.541766   -0.004670
     17          1           0        3.476330    1.195073    0.019109
     18          1           0        3.985429    3.606833    0.024630
     19          6           0        2.123692   -0.898987    0.002827
     20          6           0        2.740514   -1.280762   -1.196314
     21          6           0        2.644097   -1.364420    1.218139
     22          6           0        3.841123   -2.139976   -1.181503
     23          1           0        2.349684   -0.906347   -2.144632
     24          6           0        3.745627   -2.222196    1.231830
     25          1           0        2.177145   -1.055770    2.155695
     26          6           0        4.345402   -2.616357    0.032119
     27          1           0        4.309046   -2.435200   -2.122890
     28          1           0        4.138777   -2.581703    2.184974
     29          1           0        5.206962   -3.286678    0.043337
     30          8           0        0.082090   -2.697826   -0.084249
     31          8           0       -2.036458   -2.105062   -0.027960
     32          6           0       -3.920419    1.056373    0.013093
     33          6           0       -4.350805   -1.704015    0.004807
     34          6           0       -5.434484   -0.832103    0.021106
     35          1           0       -6.450188   -1.230449    0.030748
     36          6           0       -5.215807    0.552709    0.024655
     37          1           0       -6.062639    1.240410    0.037014
     38          1           0       -3.773832    2.136350    0.017306
     39          1           0       -4.486343   -2.786454    0.000698
 ---------------------------------------------------------------------

 SCF Done:  E(RPBE-PBE) =  -1034.54749164     A.U. after    4 cycles

 Excitation energies and oscillator strengths:

 Excited State   1:      Singlet-A      2.9404 eV  421.66 nm  f=0.0516  <S**2>=0.000
      82 -> 85         0.11876
      84 -> 85         0.67012
      84 -> 86         0.12244
 This state for optimization and/or second-order correction.
 Total Energy, E(TD-HF/TD-KS) =  -1034.43943390
 Copying the excited state density for this state as the 1-particle RhoCI density.

 Excited State   2:      Singlet-A      3.1104 eV  398.62 nm  f=0.0001  <S**2>=0.000
      83 -> 85         0.70589

 Excited State   3:      Singlet-A      3.3392 eV  371.30 nm  f=0.0361  <S**2>=0.000
      80 -> 85         0.12914
      81 -> 85         0.39788
      82 -> 85         0.47096
      84 -> 86        -0.31469

 Excited State   4:      Singlet-A      3.4587 eV  358.47 nm  f=0.0868  <S**2>=0.000
      80 -> 85         0.13781
      81 -> 85        -0.19897
      82 -> 85         0.43116
      84 -> 85        -0.16382
      84 -> 86         0.45237

 Excited State   5:      Singlet-A      3.5179 eV  352.43 nm  f=0.0584  <S**2>=0.000
      80 -> 85         0.56191
      81 -> 85        -0.33727
      84 -> 86        -0.24457

 Excited State   6:      Singlet-A      3.5643 eV  347.85 nm  f=0.0016  <S**2>=0.000
      83 -> 86         0.70277

 Excited State   7:      Singlet-A      3.8276 eV  323.92 nm  f=0.3543  <S**2>=0.000
      78 -> 85        -0.12669
      80 -> 85         0.28697
      81 -> 85         0.30288
      81 -> 86         0.13381
      82 -> 85        -0.14410
      82 -> 86         0.40122
      84 -> 86         0.23871
      84 -> 87        -0.13884
      84 -> 89         0.12877

 Excited State   8:      Singlet-A      3.9696 eV  312.33 nm  f=0.0428  <S**2>=0.000
      80 -> 86         0.52257
      81 -> 86        -0.45281
      82 -> 86         0.11287

 Excited State   9:      Singlet-A      3.9801 eV  311.51 nm  f=0.1128  <S**2>=0.000
      78 -> 85         0.27898
      80 -> 85        -0.19808
      81 -> 85        -0.23028
      82 -> 85         0.16797
      82 -> 86         0.51029
      84 -> 86        -0.12348

 Excited State  10:      Singlet-A      4.0793 eV  303.93 nm  f=0.0004  <S**2>=0.000
      79 -> 85         0.70365

 Excited State  11:      Singlet-A      4.1552 eV  298.38 nm  f=0.0322  <S**2>=0.000
      78 -> 85        -0.10266
      80 -> 86        -0.20682
      81 -> 86        -0.18176
      84 -> 87         0.58678
      84 -> 88         0.10468
      84 -> 89         0.17684

 Excited State  12:      Singlet-A      4.2368 eV  292.64 nm  f=0.0009  <S**2>=0.000
      84 -> 88         0.64695
      84 -> 89        -0.27760

 Excited State  13:      Singlet-A      4.2495 eV  291.76 nm  f=0.2766  <S**2>=0.000
      78 -> 85        -0.21096
      80 -> 86         0.38196
      81 -> 86         0.42743
      84 -> 86        -0.12299
      84 -> 87         0.18668
      84 -> 88         0.10538
      84 -> 89         0.13775
      84 -> 90        -0.11142

 Excited State  14:      Singlet-A      4.3626 eV  284.20 nm  f=0.0041  <S**2>=0.000
      78 -> 85         0.27754
      82 -> 86        -0.11997
      84 -> 87        -0.13478
      84 -> 88         0.17019
      84 -> 89         0.47444
      84 -> 90        -0.32412

 Excited State  15:      Singlet-A      4.4806 eV  276.71 nm  f=0.3170  <S**2>=0.000
      78 -> 85        -0.30462
      80 -> 85        -0.10762
      81 -> 85        -0.14438
      82 -> 85         0.11440
      84 -> 86        -0.10014
      84 -> 87        -0.18074
      84 -> 88         0.13669
      84 -> 89         0.31245
      84 -> 90         0.38381

 Excited State  16:      Singlet-A      4.5255 eV  273.97 nm  f=0.0009  <S**2>=0.000
      79 -> 86         0.69902

 Excited State  17:      Singlet-A      4.5947 eV  269.84 nm  f=0.0011  <S**2>=0.000
      83 -> 87         0.66063
      83 -> 89        -0.18344

 Excited State  18:      Singlet-A      4.6829 eV  264.76 nm  f=0.1787  <S**2>=0.000
      77 -> 85         0.33667
      78 -> 85         0.27787
      78 -> 86         0.11610
      81 -> 86         0.12593
      82 -> 89         0.14719
      84 -> 87         0.10539
      84 -> 90         0.34029
      84 -> 91        -0.24424

 Excited State  19:      Singlet-A      4.7570 eV  260.64 nm  f=0.0134  <S**2>=0.000
      77 -> 85         0.38332
      78 -> 86        -0.32180
      81 -> 87         0.17570
      82 -> 87        -0.26413
      82 -> 88        -0.10902
      82 -> 89        -0.17685
      84 -> 90        -0.10329
      84 -> 91        -0.22381

 Excited State  20:      Singlet-A      4.7928 eV  258.69 nm  f=0.0077  <S**2>=0.000
      83 -> 87         0.11959
      83 -> 88         0.23485
      83 -> 89         0.53171
      83 -> 90         0.34405

 Excited State  21:      Singlet-A      4.8328 eV  256.55 nm  f=0.1313  <S**2>=0.000
      77 -> 85         0.10897
      78 -> 85        -0.14947
      78 -> 86        -0.22073
      82 -> 87         0.43348
      82 -> 88         0.28391
      82 -> 89         0.21823
      82 -> 90        -0.20897
      84 -> 90        -0.11028

 Excited State  22:      Singlet-A      4.8438 eV  255.97 nm  f=0.0144  <S**2>=0.000
      82 -> 87        -0.13908
      82 -> 88         0.60003
      82 -> 89        -0.32411

 Excited State  23:      Singlet-A      4.9414 eV  250.91 nm  f=0.0395  <S**2>=0.000
      77 -> 85         0.33269
      78 -> 86         0.31807
      81 -> 87        -0.21053
      82 -> 87         0.10753
      82 -> 89        -0.20789
      82 -> 90        -0.10418
      82 -> 91         0.11340
      84 -> 90        -0.18303
      84 -> 91         0.20191
      84 -> 92         0.15338

 Excited State  24:      Singlet-A      4.9688 eV  249.53 nm  f=0.0023  <S**2>=0.000
      76 -> 85        -0.11174
      80 -> 88        -0.14739
      81 -> 88         0.26967
      81 -> 89        -0.10929
      83 -> 87        -0.10935
      83 -> 89        -0.23006
      83 -> 90         0.54581

 Excited State  25:      Singlet-A      5.0063 eV  247.66 nm  f=0.0163  <S**2>=0.000
      78 -> 86         0.17645
      80 -> 87        -0.39071
      80 -> 89         0.17324
      80 -> 90        -0.10589
      81 -> 87         0.41600
      81 -> 88        -0.11188
      81 -> 89        -0.21532
      82 -> 90        -0.11142

 Excited State  26:      Singlet-A      5.0437 eV  245.82 nm  f=0.0006  <S**2>=0.000
      76 -> 85         0.66832
      81 -> 88         0.20723

 Excited State  27:      Singlet-A      5.0550 eV  245.27 nm  f=0.0070  <S**2>=0.000
      77 -> 86        -0.23926
      78 -> 86         0.21491
      80 -> 87         0.33256
      80 -> 88        -0.11461
      80 -> 89        -0.17046
      81 -> 88        -0.11214
      81 -> 89        -0.14554
      81 -> 90        -0.17080
      82 -> 87        -0.14598
      82 -> 89         0.20164
      82 -> 90        -0.26278
      84 -> 91        -0.12666

 Excited State  28:      Singlet-A      5.0730 eV  244.40 nm  f=0.0306  <S**2>=0.000
      76 -> 85        -0.14263
      80 -> 87         0.22138
      80 -> 88         0.28958
      81 -> 87         0.24954
      81 -> 88         0.38548
      81 -> 89         0.17844
      81 -> 90        -0.14004
      82 -> 90        -0.11302
      84 -> 91         0.14180

 Excited State  29:      Singlet-A      5.0840 eV  243.87 nm  f=0.0322  <S**2>=0.000
      76 -> 85         0.10754
      77 -> 86         0.10262
      80 -> 87         0.12237
      80 -> 88        -0.24847
      80 -> 89         0.24644
      81 -> 87         0.17211
      81 -> 88        -0.28822
      81 -> 89         0.41340
      84 -> 91         0.11748

 Excited State  30:      Singlet-A      5.1075 eV  242.75 nm  f=0.0678  <S**2>=0.000
      77 -> 86        -0.28141
      78 -> 86         0.14747
      80 -> 90        -0.10997
      81 -> 89         0.17534
      81 -> 90        -0.12881
      82 -> 87         0.12922
      82 -> 90         0.39697
      83 -> 88         0.13477
      84 -> 90        -0.11909
      84 -> 91        -0.22665
      84 -> 92         0.14286

 The electronic state is 1-A.
 Alpha  occ. eigenvalues --  -18.81500 -18.73815 -10.01355  -9.95745  -9.92088
 Alpha  occ. eigenvalues --   -9.91896  -9.91800  -9.91009  -9.90932  -9.90872
 Alpha  occ. eigenvalues --   -9.90071  -9.89526  -9.89503  -9.89373  -9.89370
 Alpha  occ. eigenvalues --   -9.89284  -9.89269  -9.89265  -9.89183  -9.88870
 Alpha  occ. eigenvalues --   -9.88537  -9.88534  -9.88501  -9.88497  -9.88389
 Alpha  occ. eigenvalues --   -1.02648  -0.94339  -0.81648  -0.79093  -0.78021
 Alpha  occ. eigenvalues --   -0.76399  -0.72838  -0.70550  -0.69016  -0.68110
 Alpha  occ. eigenvalues --   -0.67575  -0.67294  -0.64825  -0.61122  -0.58604
 Alpha  occ. eigenvalues --   -0.57533  -0.55770  -0.54847  -0.54286  -0.51639
 Alpha  occ. eigenvalues --   -0.51077  -0.50019  -0.47143  -0.46875  -0.44976
 Alpha  occ. eigenvalues --   -0.43062  -0.42882  -0.42618  -0.41275  -0.40704
 Alpha  occ. eigenvalues --   -0.40529  -0.39712  -0.39249  -0.38630  -0.38368
 Alpha  occ. eigenvalues --   -0.37471  -0.37012  -0.36893  -0.36281  -0.35309
 Alpha  occ. eigenvalues --   -0.34770  -0.33970  -0.32856  -0.32231  -0.32068
 Alpha  occ. eigenvalues --   -0.31485  -0.30940  -0.29933  -0.29729  -0.29451
 Alpha  occ. eigenvalues --   -0.28635  -0.26907  -0.25594  -0.25042  -0.23217
 Alpha  occ. eigenvalues --   -0.22789  -0.22086  -0.21563  -0.19851
 Alpha virt. eigenvalues --   -0.10221  -0.08516  -0.04816  -0.04302  -0.04231
 Alpha virt. eigenvalues --   -0.03643  -0.01985  -0.00111   0.03361   0.03787
 Alpha virt. eigenvalues --    0.04300   0.05391   0.05532   0.05630   0.06951

 Mulliken charges:
               1
     1  C   -0.109680
     2  C   -0.259450
     3  C    0.203719
     4  C    0.064046
     5  C   -0.213405
     6  C   -0.148286
     7  C   -0.462803
     8  C    0.260635
     9  C   -0.125304
    10  C    0.209757
    11  C    0.111929
    12  C    0.184425
    13  C    0.241439
    14  H    0.138594
    15  H    0.148233
    16  H    0.145227
    17  H    0.156747
    18  H    0.147357
    19  C    0.100782
    20  C   -0.205820
    21  C   -0.203085
    22  C   -0.180057
    23  H    0.137282
    24  C   -0.181396
    25  H    0.137519
    26  C   -0.118784
    27  H    0.140251
    28  H    0.140137
    29  H    0.143070
    30  O   -0.287620
    31  O   -0.121119
    32  C   -0.234161
    33  C   -0.275282
    34  C   -0.117702
    35  H    0.149660
    36  C   -0.150255
    37  H    0.147524
    38  H    0.146916
    39  H    0.138958
 Sum of Mulliken charges =  -0.00000

 Dipole moment (field-independent basis, Debye):
    X=             -1.3483    Y=              6.1357    Z=              0.1502  Tot=              6.2839
 Quadrupole moment (field-independent basis, Debye-Ang):
   XX=           -113.7460   YY=           -136.0714   ZZ=           -142.3437
   XY=             -1.7577   XZ=             -0.3199   YZ=             -0.7249

 Normal termination of Gaussian 09 at Tue Nov 23 13:03:54 2021.
