                         Program Version 5.0.2 -  RELEASE  -
|  1> %maxcore 20000
|  2> %pal
|  3>  nprocs= 4
|  4> end
|  5> ! RI-B2GP-PLYP   def2-TZVP def2/J def2-TZVP/C RIJCOSX CPCM TightSCF
|  6> %TDDFT
|  7>    NROOTS   30
|  8>    dcorr 4
|  9>    TDA      FALSE
| 10> END
| 11>
| 12> %CPCM
| 13>    SMD          TRUE
| 14>    SMDsolvent   "ACETONITRILE"
| 15> END
| 16>
| 17>
| 18> * xyz 0 1
| 19> C                   1.88629500    4.20967500    0.00975300
| 20> C                   0.58312800    3.79831200    0.00210500
| 21> C                   0.25769100    2.42219400   -0.00134700
| 22> C                   1.30920500    1.45669500    0.00107500
| 23> C                   2.64691800    1.92250500    0.01243900
| 24> C                   2.92695500    3.26158300    0.01602800
| 25> C                  -1.07371400    1.98976500   -0.00338400
| 26> C                   0.98468200    0.07504500   -0.00581700
| 27> C                  -0.35228100   -0.31916500   -0.01347600
| 28> C                  -1.40159000    0.65276500   -0.00694200
| 29> C                  -2.78227100    0.19662400   -0.00248100
| 30> C                  -3.03132000   -1.17416000   -0.00726700
| 31> C                  -0.68796500   -1.74830700   -0.03892000
| 32> H                  -1.84891700    2.74447200   -0.00088500
| 33> H                   2.12316200    5.26611500    0.01239500
| 34> H                  -0.22628700    4.51846200   -0.00072200
| 35> H                   3.45640600    1.20471800    0.01849500
| 36> H                   3.95616700    3.59676900    0.02445700
| 37> C                   2.11411600   -0.89034300    0.00271100
| 38> C                   2.72559400   -1.27145900   -1.18861100
| 39> C                   2.62603400   -1.36512600    1.20739000
| 40> C                   3.80945300   -2.13635800   -1.17698700
| 41> H                   2.34182200   -0.89323000   -2.12894300
| 42> C                   3.71094200   -2.22830500    1.21828200
| 43> H                   2.16267700   -1.06177500    2.13897800
| 44> C                   4.30390800   -2.62059300    0.02608700
| 45> H                   4.27114100   -2.43019900   -2.11161500
| 46> H                   4.09560600   -2.59412600    2.16233200
| 47> H                   5.15107000   -3.29480400    0.03504000
| 48> O                   0.08459400   -2.67312200   -0.07461200
| 49> O                  -2.01530000   -2.08680800   -0.02449300
| 50> C                  -3.89782100    1.04425400    0.01055500
| 51> C                  -4.31611200   -1.69787100    0.00165800
| 52> C                  -5.39467800   -0.83571300    0.01492800
| 53> H                  -6.40094900   -1.23393300    0.02187300
| 54> C                  -5.18255600    0.54027400    0.01893300
| 55> H                  -6.02502100    1.21919700    0.02905900
| 56> H                  -3.75312400    2.11601700    0.01476600
| 57> H                  -4.44577800   -2.77198100   -0.00265200
| 58> *
| 59>
| 60>
| 61>                          ****END OF INPUT****

CARTESIAN COORDINATES (ANGSTROEM)
---------------------------------
  C      1.886295    4.209675    0.009753
  C      0.583128    3.798312    0.002105
  C      0.257691    2.422194   -0.001347
  C      1.309205    1.456695    0.001075
  C      2.646918    1.922505    0.012439
  C      2.926955    3.261583    0.016028
  C     -1.073714    1.989765   -0.003384
  C      0.984682    0.075045   -0.005817
  C     -0.352281   -0.319165   -0.013476
  C     -1.401590    0.652765   -0.006942
  C     -2.782271    0.196624   -0.002481
  C     -3.031320   -1.174160   -0.007267
  C     -0.687965   -1.748307   -0.038920
  H     -1.848917    2.744472   -0.000885
  H      2.123162    5.266115    0.012395
  H     -0.226287    4.518462   -0.000722
  H      3.456406    1.204718    0.018495
  H      3.956167    3.596769    0.024457
  C      2.114116   -0.890343    0.002711
  C      2.725594   -1.271459   -1.188611
  C      2.626034   -1.365126    1.207390
  C      3.809453   -2.136358   -1.176987
  H      2.341822   -0.893230   -2.128943
  C      3.710942   -2.228305    1.218282
  H      2.162677   -1.061775    2.138978
  C      4.303908   -2.620593    0.026087
  H      4.271141   -2.430199   -2.111615
  H      4.095606   -2.594126    2.162332
  H      5.151070   -3.294804    0.035040
  O      0.084594   -2.673122   -0.074612
  O     -2.015300   -2.086808   -0.024493
  C     -3.897821    1.044254    0.010555
  C     -4.316112   -1.697871    0.001658
  C     -5.394678   -0.835713    0.014928
  H     -6.400949   -1.233933    0.021873
  C     -5.182556    0.540274    0.018933
  H     -6.025021    1.219197    0.029059
  H     -3.753124    2.116017    0.014766
  H     -4.445778   -2.771981   -0.002652

 Total Charge           Charge          ....    0
 Multiplicity           Mult            ....    1
 Number of Electrons    NEL             ....  168
 Basis Dimension        Dim             ....  859

ORBITAL ENERGIES
----------------

  NO   OCC          E(Eh)            E(eV)
   0   2.0000     -20.005221      -544.3697
   1   2.0000     -19.927696      -542.2602
   2   2.0000     -10.930905      -297.4450
   3   2.0000     -10.854777      -295.3735
   4   2.0000     -10.816876      -294.3422
   5   2.0000     -10.810114      -294.1582
   6   2.0000     -10.807773      -294.0945
   7   2.0000     -10.799634      -293.8730
   8   2.0000     -10.798081      -293.8307
   9   2.0000     -10.797395      -293.8120
  10   2.0000     -10.788842      -293.5793
  11   2.0000     -10.786051      -293.5034
  12   2.0000     -10.784478      -293.4606
  13   2.0000     -10.783927      -293.4456
  14   2.0000     -10.783731      -293.4402
  15   2.0000     -10.782752      -293.4136
  16   2.0000     -10.780934      -293.3641
  17   2.0000     -10.780769      -293.3596
  18   2.0000     -10.779762      -293.3322
  19   2.0000     -10.776747      -293.2502
  20   2.0000     -10.774503      -293.1891
  21   2.0000     -10.774315      -293.1840
  22   2.0000     -10.773219      -293.1542
  23   2.0000     -10.773111      -293.1513
  24   2.0000     -10.772337      -293.1302
  25   2.0000      -1.329250       -36.1707
  26   2.0000      -1.232774       -33.5455
  27   2.0000      -1.074805       -29.2469
  28   2.0000      -1.043851       -28.4046
  29   2.0000      -1.032091       -28.0846
  30   2.0000      -1.010572       -27.4991
  31   2.0000      -0.967236       -26.3198
  32   2.0000      -0.938594       -25.5404
  33   2.0000      -0.917624       -24.9698
  34   2.0000      -0.909370       -24.7452
  35   2.0000      -0.903852       -24.5951
  36   2.0000      -0.901228       -24.5237
  37   2.0000      -0.869023       -23.6473
  38   2.0000      -0.814909       -22.1748
  39   2.0000      -0.784853       -21.3569
  40   2.0000      -0.770182       -20.9577
  41   2.0000      -0.748929       -20.3794
  42   2.0000      -0.739158       -20.1135
  43   2.0000      -0.733287       -19.9537
  44   2.0000      -0.697946       -18.9921
  45   2.0000      -0.691565       -18.8184
  46   2.0000      -0.676512       -18.4088
  47   2.0000      -0.638575       -17.3765
  48   2.0000      -0.634319       -17.2607
  49   2.0000      -0.614258       -16.7148
  50   2.0000      -0.595195       -16.1961
  51   2.0000      -0.590252       -16.0616
  52   2.0000      -0.584442       -15.9035
  53   2.0000      -0.573514       -15.6061
  54   2.0000      -0.563859       -15.3434
  55   2.0000      -0.560007       -15.2386
  56   2.0000      -0.557696       -15.1757
  57   2.0000      -0.547188       -14.8897
  58   2.0000      -0.536171       -14.5899
  59   2.0000      -0.533321       -14.5124
  60   2.0000      -0.523192       -14.2368
  61   2.0000      -0.516438       -14.0530
  62   2.0000      -0.514748       -14.0070
  63   2.0000      -0.493383       -13.4256
  64   2.0000      -0.491270       -13.3681
  65   2.0000      -0.487747       -13.2723
  66   2.0000      -0.482152       -13.1200
  67   2.0000      -0.459557       -12.5052
  68   2.0000      -0.453537       -12.3414
  69   2.0000      -0.448743       -12.2109
  70   2.0000      -0.442931       -12.0528
  71   2.0000      -0.440692       -11.9918
  72   2.0000      -0.431017       -11.7286
  73   2.0000      -0.429768       -11.6946
  74   2.0000      -0.414582       -11.2813
  75   2.0000      -0.410087       -11.1590
  76   2.0000      -0.389957       -10.6113
  77   2.0000      -0.361432        -9.8351
  78   2.0000      -0.335907        -9.1405
  79   2.0000      -0.308652        -8.3988
  80   2.0000      -0.302779        -8.2390
  81   2.0000      -0.297819        -8.1041
  82   2.0000      -0.294150        -8.0042
  83   2.0000      -0.258142        -7.0244
  84   0.0000      -0.008835        -0.2404
  85   0.0000       0.006071         0.1652
  86   0.0000       0.055271         1.5040
  87   0.0000       0.061153         1.6641
  88   0.0000       0.063965         1.7406

MULLIKEN ATOMIC CHARGES
-----------------------
   0 C :   -0.115919
   1 C :   -0.272653
   2 C :    0.165297
   3 C :    0.072752
   4 C :   -0.262150
   5 C :   -0.172345
   6 C :   -0.426967
   7 C :    0.353571
   8 C :   -0.174299
   9 C :    0.192165
  10 C :    0.119068
  11 C :    0.218722
  12 C :    0.431334
  13 H :    0.162491
  14 H :    0.166964
  15 H :    0.163873
  16 H :    0.180502
  17 H :    0.165401
  18 C :    0.142217
  19 C :   -0.252327
  20 C :   -0.251628
  21 C :   -0.191593
  22 H :    0.159272
  23 C :   -0.191423
  24 H :    0.158976
  25 C :   -0.146120
  26 H :    0.158712
  27 H :    0.158604
  28 H :    0.160693
  29 O :   -0.426386
  30 O :   -0.275200
  31 C :   -0.236088
  32 C :   -0.309096
  33 C :   -0.106332
  34 H :    0.168850
  35 C :   -0.182397
  36 H :    0.163759
  37 H :    0.167649
  38 H :    0.162051
Sum of atomic charges:    0.0000000

LOEWDIN ATOMIC CHARGES
----------------------
   0 C :   -0.126449
   1 C :   -0.098401
   2 C :   -0.083778
   3 C :   -0.054059
   4 C :   -0.088306
   5 C :   -0.137650
   6 C :   -0.049318
   7 C :    0.013543
   8 C :   -0.051285
   9 C :   -0.060904
  10 C :   -0.088818
  11 C :   -0.175809
  12 C :   -0.350766
  13 H :    0.164128
  14 H :    0.154574
  15 H :    0.158030
  16 H :    0.162731
  17 H :    0.153668
  18 C :   -0.098584
  19 C :   -0.102009
  20 C :   -0.101386
  21 C :   -0.146042
  22 H :    0.155884
  23 C :   -0.146018
  24 H :    0.155824
  25 C :   -0.150615
  26 H :    0.150770
  27 H :    0.150755
  28 H :    0.149560
  29 O :    0.075838
  30 O :    0.316684
  31 C :   -0.085118
  32 C :   -0.113961
  33 C :   -0.127747
  34 H :    0.154962
  35 C :   -0.150124
  36 H :    0.152940
  37 H :    0.158633
  38 H :    0.158627

  Mayer bond orders larger than 0.100000
B(  0-C ,  1-C ) :   1.5531 B(  0-C ,  5-C ) :   1.2254 B(  0-C , 14-H ) :   0.9795
B(  1-C ,  2-C ) :   1.2174 B(  1-C , 15-H ) :   0.9895 B(  2-C ,  3-C ) :   1.2914
B(  2-C ,  6-C ) :   1.2546 B(  3-C ,  4-C ) :   1.2031 B(  3-C ,  7-C ) :   1.2012
B(  4-C ,  5-C ) :   1.6006 B(  4-C , 16-H ) :   0.9639 B(  5-C , 17-H ) :   0.9822
B(  6-C ,  9-C ) :   1.4917 B(  6-C , 13-H ) :   0.9763 B(  7-C ,  8-C ) :   1.3639
B(  7-C , 18-C ) :   0.6945 B(  8-C ,  9-C ) :   1.2527 B(  8-C , 12-C ) :   0.9986
B(  9-C , 10-C ) :   0.9615 B( 10-C , 11-C ) :   1.3695 B( 10-C , 31-C ) :   1.3110
B( 11-C , 30-O ) :   0.9939 B( 11-C , 32-C ) :   1.3935 B( 12-C , 29-O ) :   2.0515
B( 12-C , 30-O ) :   1.1647 B( 18-C , 19-C ) :   1.4036 B( 18-C , 20-C ) :   1.4095
B( 19-C , 21-C ) :   1.4438 B( 19-C , 22-H ) :   0.9830 B( 20-C , 23-C ) :   1.4471
B( 20-C , 24-H ) :   0.9836 B( 21-C , 25-C ) :   1.3976 B( 21-C , 26-H ) :   0.9827
B( 23-C , 25-C ) :   1.3966 B( 23-C , 27-H ) :   0.9826 B( 25-C , 28-H ) :   0.9781
B( 31-C , 35-C ) :   1.4782 B( 31-C , 37-H ) :   0.9556 B( 32-C , 33-C ) :   1.4289
B( 32-C , 38-H ) :   0.9933 B( 33-C , 34-H ) :   0.9774 B( 33-C , 35-C ) :   1.3588
B( 35-C , 36-H ) :   0.9852

MP2 TOTAL ENERGY:    -1034.688638342 Eh

-----------------------------------------------------------------------------
         ABSORPTION SPECTRUM VIA TRANSITION ELECTRIC DIPOLE MOMENTS
-----------------------------------------------------------------------------
State   Energy    Wavelength  fosc         T2        TX        TY        TZ
        (cm-1)      (nm)                 (au**2)    (au)      (au)      (au)
-----------------------------------------------------------------------------
   1   29307.3    341.2   0.085344270   0.95868   0.57135  -0.79512   0.00508
   2   31927.3    313.2   0.270864192   2.79296  -1.46826  -0.79820   0.00574
   3   36395.9    274.8   1.040582571   9.41239   2.60140   1.62626   0.01875
   4   34307.3    291.5   0.014285396   0.13708  -0.27066  -0.25207   0.01692
   5   37747.9    264.9   0.151325190   1.31976  -0.87510  -0.74426  -0.00632
   6   39684.8    252.0   0.403049951   3.34357   0.90024  -1.59157  -0.00757
   7   41034.8    243.7   0.001929031   0.01548  -0.06234  -0.00241   0.10763
   8   39835.9    251.0   0.203719963   1.68358   1.04496   0.76865  -0.02840
   9   42090.6    237.6   0.096182030   0.75229  -0.58126  -0.64068  -0.06289
  10   42726.8    234.0   0.011174048   0.08610   0.22855   0.17759   0.04818
  11   43957.2    227.5   0.164161714   1.22947   0.37473   1.04230  -0.05147
  12   46528.1    214.9   0.009248898   0.06544  -0.10520   0.22175   0.07212
  13   44482.1    224.8   0.312155101   2.31026   0.75223  -1.32059  -0.02140
  14   47633.5    209.9   0.188242636   1.30101   1.07832   0.36932   0.04302
  15   43419.2    230.3   0.035067839   0.26589   0.18151   0.29045  -0.38547
  16   44972.7    222.4   0.171049227   1.25213  -0.53238  -0.97259  -0.15087
  17   46918.1    213.1   0.022937347   0.16095   0.30296  -0.26256  -0.01497
  18   46504.6    215.0   0.041232791   0.29189   0.50628  -0.18300  -0.04562
  19   48240.9    207.3   0.523218741   3.57062   1.54830  -1.08180   0.05557
  20   47393.0    211.0   0.004531253   0.03148  -0.09524  -0.12226  -0.08635
  21   49012.0    204.0   0.153251240   1.02938  -0.87464   0.32994   0.39436
  22   49413.9    202.4   0.090129422   0.60047   0.66797   0.30465  -0.24794
  23   52682.4    189.8   0.483597783   3.02200  -0.12201   0.10670  -1.73082
  24   48881.2    204.6   0.105981829   0.71378   0.77913  -0.32152   0.05794
  25   53339.9    187.5   0.336342063   2.07589  -0.95598   1.07757  -0.02858
  26   51481.4    194.2   0.025977624   0.16612  -0.34002   0.12702   0.18540
  27   51195.3    195.3   0.065984222   0.42431   0.59012  -0.25609   0.10243
  28   57279.5    174.6   0.001775564   0.01020   0.04526  -0.02624   0.08642
  29   53122.7    188.2   0.057844027   0.35847   0.51641  -0.29233  -0.07961
  30   53077.2    188.4   0.032363130   0.20073  -0.32258   0.30288  -0.07031

FINAL SINGLE POINT ENERGY     -1032.895383767570

DIPOLE MOMENT
-------------
                                X             Y             Z
Electronic contribution:     -5.28860      -3.61851      -0.14940
Nuclear contribution   :      4.72501       6.17663       0.20653
                        -----------------------------------------
Total Dipole Moment    :     -0.56360       2.55812       0.05713
                        -----------------------------------------
Magnitude (a.u.)       :      2.62009
Magnitude (Debye)      :      6.65975

Rotational constants in cm-1:     0.011605     0.006121     0.004181
Rotational constants in MHz :   347.917303   183.508149   125.354082

                             ****ORCA TERMINATED NORMALLY****
TOTAL RUN TIME: 0 days 4 hours 27 minutes 38 seconds 916 msec
