                         Program Version 5.0.2 -  RELEASE  -
|  1> %maxcore 3200
|  2> %pal
|  3>  nprocs= 8
|  4> end
|  5> ! RI-B2PLYP D3BJ def2-TZVP def2/J def2-TZVP/C RIJCOSX CPCM TightSCF
|  6> %TDDFT DCORR 4
|  7>    NROOTS   30
|  8>
|  9>    TDA      FALSE
| 10> END
| 11>
| 12> %CPCM
| 13>    SMD          TRUE
| 14>    SMDsolvent   "ACETONITRILE"
| 15> END
| 16>
| 17>
| 18> * xyz 0 1
| 19> C                   1.88629500    4.20967500    0.00975300
| 20> C                   0.58312800    3.79831200    0.00210500
| 21> C                   0.25769100    2.42219400   -0.00134700
| 22> C                   1.30920500    1.45669500    0.00107500
| 23> C                   2.64691800    1.92250500    0.01243900
| 24> C                   2.92695500    3.26158300    0.01602800
| 25> C                  -1.07371400    1.98976500   -0.00338400
| 26> C                   0.98468200    0.07504500   -0.00581700
| 27> C                  -0.35228100   -0.31916500   -0.01347600
| 28> C                  -1.40159000    0.65276500   -0.00694200
| 29> C                  -2.78227100    0.19662400   -0.00248100
| 30> C                  -3.03132000   -1.17416000   -0.00726700
| 31> C                  -0.68796500   -1.74830700   -0.03892000
| 32> H                  -1.84891700    2.74447200   -0.00088500
| 33> H                   2.12316200    5.26611500    0.01239500
| 34> H                  -0.22628700    4.51846200   -0.00072200
| 35> H                   3.45640600    1.20471800    0.01849500
| 36> H                   3.95616700    3.59676900    0.02445700
| 37> C                   2.11411600   -0.89034300    0.00271100
| 38> C                   2.72559400   -1.27145900   -1.18861100
| 39> C                   2.62603400   -1.36512600    1.20739000
| 40> C                   3.80945300   -2.13635800   -1.17698700
| 41> H                   2.34182200   -0.89323000   -2.12894300
| 42> C                   3.71094200   -2.22830500    1.21828200
| 43> H                   2.16267700   -1.06177500    2.13897800
| 44> C                   4.30390800   -2.62059300    0.02608700
| 45> H                   4.27114100   -2.43019900   -2.11161500
| 46> H                   4.09560600   -2.59412600    2.16233200
| 47> H                   5.15107000   -3.29480400    0.03504000
| 48> O                   0.08459400   -2.67312200   -0.07461200
| 49> O                  -2.01530000   -2.08680800   -0.02449300
| 50> C                  -3.89782100    1.04425400    0.01055500
| 51> C                  -4.31611200   -1.69787100    0.00165800
| 52> C                  -5.39467800   -0.83571300    0.01492800
| 53> H                  -6.40094900   -1.23393300    0.02187300
| 54> C                  -5.18255600    0.54027400    0.01893300
| 55> H                  -6.02502100    1.21919700    0.02905900
| 56> H                  -3.75312400    2.11601700    0.01476600
| 57> H                  -4.44577800   -2.77198100   -0.00265200
| 58> *
| 59>
| 60>
| 61>                          ****END OF INPUT****

CARTESIAN COORDINATES (ANGSTROEM)
---------------------------------
  C      1.886295    4.209675    0.009753
  C      0.583128    3.798312    0.002105
  C      0.257691    2.422194   -0.001347
  C      1.309205    1.456695    0.001075
  C      2.646918    1.922505    0.012439
  C      2.926955    3.261583    0.016028
  C     -1.073714    1.989765   -0.003384
  C      0.984682    0.075045   -0.005817
  C     -0.352281   -0.319165   -0.013476
  C     -1.401590    0.652765   -0.006942
  C     -2.782271    0.196624   -0.002481
  C     -3.031320   -1.174160   -0.007267
  C     -0.687965   -1.748307   -0.038920
  H     -1.848917    2.744472   -0.000885
  H      2.123162    5.266115    0.012395
  H     -0.226287    4.518462   -0.000722
  H      3.456406    1.204718    0.018495
  H      3.956167    3.596769    0.024457
  C      2.114116   -0.890343    0.002711
  C      2.725594   -1.271459   -1.188611
  C      2.626034   -1.365126    1.207390
  C      3.809453   -2.136358   -1.176987
  H      2.341822   -0.893230   -2.128943
  C      3.710942   -2.228305    1.218282
  H      2.162677   -1.061775    2.138978
  C      4.303908   -2.620593    0.026087
  H      4.271141   -2.430199   -2.111615
  H      4.095606   -2.594126    2.162332
  H      5.151070   -3.294804    0.035040
  O      0.084594   -2.673122   -0.074612
  O     -2.015300   -2.086808   -0.024493
  C     -3.897821    1.044254    0.010555
  C     -4.316112   -1.697871    0.001658
  C     -5.394678   -0.835713    0.014928
  H     -6.400949   -1.233933    0.021873
  C     -5.182556    0.540274    0.018933
  H     -6.025021    1.219197    0.029059
  H     -3.753124    2.116017    0.014766
  H     -4.445778   -2.771981   -0.002652

 Total Charge           Charge          ....    0
 Multiplicity           Mult            ....    1
 Number of Electrons    NEL             ....  168
 Basis Dimension        Dim             ....  859

ORBITAL ENERGIES
----------------

  NO   OCC          E(Eh)            E(eV)
   0   2.0000     -19.789243      -538.4927
   1   2.0000     -19.712134      -536.3944
   2   2.0000     -10.766494      -292.9712
   3   2.0000     -10.693010      -290.9716
   4   2.0000     -10.654763      -289.9309
   5   2.0000     -10.648841      -289.7697
   6   2.0000     -10.647230      -289.7259
   7   2.0000     -10.638596      -289.4909
   8   2.0000     -10.637707      -289.4667
   9   2.0000     -10.636957      -289.4463
  10   2.0000     -10.628232      -289.2089
  11   2.0000     -10.625146      -289.1249
  12   2.0000     -10.623667      -289.0847
  13   2.0000     -10.623426      -289.0781
  14   2.0000     -10.623198      -289.0719
  15   2.0000     -10.622068      -289.0412
  16   2.0000     -10.620734      -289.0049
  17   2.0000     -10.620531      -288.9993
  18   2.0000     -10.619566      -288.9731
  19   2.0000     -10.616579      -288.8918
  20   2.0000     -10.614009      -288.8219
  21   2.0000     -10.613848      -288.8175
  22   2.0000     -10.612851      -288.7904
  23   2.0000     -10.612758      -288.7878
  24   2.0000     -10.612008      -288.7674
  25   2.0000      -1.273102       -34.6429
  26   2.0000      -1.178867       -32.0786
  27   2.0000      -1.026331       -27.9279
  28   2.0000      -0.996497       -27.1161
  29   2.0000      -0.984898       -26.8004
  30   2.0000      -0.964381       -26.2421
  31   2.0000      -0.922323       -25.0977
  32   2.0000      -0.894825       -24.3494
  33   2.0000      -0.874983       -23.8095
  34   2.0000      -0.866466       -23.5777
  35   2.0000      -0.860955       -23.4278
  36   2.0000      -0.858335       -23.3565
  37   2.0000      -0.827508       -22.5176
  38   2.0000      -0.776661       -21.1340
  39   2.0000      -0.747535       -20.3415
  40   2.0000      -0.733717       -19.9655
  41   2.0000      -0.712979       -19.4011
  42   2.0000      -0.703396       -19.1404
  43   2.0000      -0.697538       -18.9810
  44   2.0000      -0.663866       -18.0647
  45   2.0000      -0.657375       -17.8881
  46   2.0000      -0.643798       -17.5186
  47   2.0000      -0.607293       -16.5253
  48   2.0000      -0.603368       -16.4185
  49   2.0000      -0.583461       -15.8768
  50   2.0000      -0.564218       -15.3532
  51   2.0000      -0.560099       -15.2411
  52   2.0000      -0.554839       -15.0979
  53   2.0000      -0.543226       -14.7819
  54   2.0000      -0.534331       -14.5399
  55   2.0000      -0.529635       -14.4121
  56   2.0000      -0.529081       -14.3970
  57   2.0000      -0.518499       -14.1091
  58   2.0000      -0.508268       -13.8307
  59   2.0000      -0.505374       -13.7519
  60   2.0000      -0.495461       -13.4822
  61   2.0000      -0.489086       -13.3087
  62   2.0000      -0.487535       -13.2665
  63   2.0000      -0.467073       -12.7097
  64   2.0000      -0.465200       -12.6587
  65   2.0000      -0.460578       -12.5330
  66   2.0000      -0.457816       -12.4578
  67   2.0000      -0.433836       -11.8053
  68   2.0000      -0.429479       -11.6867
  69   2.0000      -0.423780       -11.5316
  70   2.0000      -0.417897       -11.3716
  71   2.0000      -0.417397       -11.3579
  72   2.0000      -0.405265       -11.0278
  73   2.0000      -0.405079       -11.0228
  74   2.0000      -0.390340       -10.6217
  75   2.0000      -0.388871       -10.5817
  76   2.0000      -0.362941        -9.8761
  77   2.0000      -0.343765        -9.3543
  78   2.0000      -0.320414        -8.7189
  79   2.0000      -0.293736        -7.9930
  80   2.0000      -0.287692        -7.8285
  81   2.0000      -0.282510        -7.6875
  82   2.0000      -0.280113        -7.6223
  83   2.0000      -0.246010        -6.6943
  84   0.0000      -0.025085        -0.6826
  85   0.0000      -0.009613        -0.2616
  86   0.0000       0.037628         1.0239
  87   0.0000       0.043457         1.1825
  88   0.0000       0.045789         1.2460

MULLIKEN ATOMIC CHARGES
-----------------------
   0 C :   -0.116137
   1 C :   -0.258735
   2 C :    0.155536
   3 C :    0.061929
   4 C :   -0.244840
   5 C :   -0.168872
   6 C :   -0.405309
   7 C :    0.328853
   8 C :   -0.172973
   9 C :    0.183752
  10 C :    0.116894
  11 C :    0.218514
  12 C :    0.412286
  13 H :    0.157961
  14 H :    0.162340
  15 H :    0.158262
  16 H :    0.176846
  17 H :    0.161056
  18 C :    0.132517
  19 C :   -0.241405
  20 C :   -0.240094
  21 C :   -0.187753
  22 H :    0.153869
  23 C :   -0.187875
  24 H :    0.153605
  25 C :   -0.141521
  26 H :    0.154233
  27 H :    0.154061
  28 H :    0.156338
  29 O :   -0.402477
  30 O :   -0.260637
  31 C :   -0.232878
  32 C :   -0.297055
  33 C :   -0.109487
  34 H :    0.164299
  35 C :   -0.176265
  36 H :    0.159615
  37 H :    0.164168
  38 H :    0.157378
Sum of atomic charges:    0.0000000

LOEWDIN ATOMIC CHARGES
----------------------
   0 C :   -0.127439
   1 C :   -0.097484
   2 C :   -0.084272
   3 C :   -0.052866
   4 C :   -0.088439
   5 C :   -0.136981
   6 C :   -0.048112
   7 C :    0.011276
   8 C :   -0.050109
   9 C :   -0.061226
  10 C :   -0.087844
  11 C :   -0.178728
  12 C :   -0.363018
  13 H :    0.164039
  14 H :    0.154331
  15 H :    0.157908
  16 H :    0.162660
  17 H :    0.153569
  18 C :   -0.098969
  19 C :   -0.102104
  20 C :   -0.101491
  21 C :   -0.146305
  22 H :    0.155690
  23 C :   -0.146272
  24 H :    0.155632
  25 C :   -0.150731
  26 H :    0.150604
  27 H :    0.150592
  28 H :    0.149409
  29 O :    0.085066
  30 O :    0.325460
  31 C :   -0.086232
  32 C :   -0.113582
  33 C :   -0.129038
  34 H :    0.154700
  35 C :   -0.149392
  36 H :    0.152850
  37 H :    0.158405
  38 H :    0.158447

  Mayer bond orders larger than 0.100000
B(  0-C ,  1-C ) :   1.5447 B(  0-C ,  5-C ) :   1.2290 B(  0-C , 14-H ) :   0.9798
B(  1-C ,  2-C ) :   1.2134 B(  1-C , 15-H ) :   0.9894 B(  2-C ,  3-C ) :   1.2759
B(  2-C ,  6-C ) :   1.2593 B(  3-C ,  4-C ) :   1.2054 B(  3-C ,  7-C ) :   1.1965
B(  4-C ,  5-C ) :   1.5888 B(  4-C , 16-H ) :   0.9621 B(  5-C , 17-H ) :   0.9824
B(  6-C ,  9-C ) :   1.4857 B(  6-C , 13-H ) :   0.9748 B(  7-C ,  8-C ) :   1.3594
B(  7-C , 18-C ) :   0.7145 B(  8-C ,  9-C ) :   1.2483 B(  8-C , 12-C ) :   0.9947
B(  9-C , 10-C ) :   0.9707 B( 10-C , 11-C ) :   1.3586 B( 10-C , 31-C ) :   1.3036
B( 11-C , 30-O ) :   0.9942 B( 11-C , 32-C ) :   1.3826 B( 12-C , 29-O ) :   2.0648
B( 12-C , 30-O ) :   1.1671 B( 18-C , 19-C ) :   1.3905 B( 18-C , 20-C ) :   1.3961
B( 19-C , 21-C ) :   1.4364 B( 19-C , 22-H ) :   0.9844 B( 20-C , 23-C ) :   1.4396
B( 20-C , 24-H ) :   0.9850 B( 21-C , 25-C ) :   1.3915 B( 21-C , 26-H ) :   0.9828
B( 23-C , 25-C ) :   1.3905 B( 23-C , 27-H ) :   0.9829 B( 25-C , 28-H ) :   0.9778
B( 31-C , 35-C ) :   1.4712 B( 31-C , 37-H ) :   0.9541 B( 32-C , 33-C ) :   1.4247
B( 32-C , 38-H ) :   0.9947 B( 33-C , 34-H ) :   0.9780 B( 33-C , 35-C ) :   1.3563
B( 35-C , 36-H ) :   0.9852

MP2 TOTAL ENERGY:    -1034.897731095 Eh

-----------------------------------------------------------------------------
         ABSORPTION SPECTRUM VIA TRANSITION ELECTRIC DIPOLE MOMENTS
-----------------------------------------------------------------------------
State   Energy    Wavelength  fosc         T2        TX        TY        TZ
        (cm-1)      (nm)                 (au**2)    (au)      (au)      (au)
-----------------------------------------------------------------------------
   1   28223.4    354.3   0.084852580   0.98976   0.66567  -0.73935   0.00377
   2   31449.9    318.0   0.267716031   2.80241  -1.42491  -0.87863   0.00613
   3   32721.2    305.6   0.010646379   0.10711   0.30403   0.11941   0.02049
   4   35410.8    282.4   0.951825479   8.84907  -2.52047  -1.57991  -0.01395
   5   36996.9    270.3   0.204281455   1.81777   1.01408   0.88847   0.00579
   6   37678.5    265.4   0.303793332   2.65437  -1.17656   1.12692   0.01066
   7   37766.2    264.8   0.022212262   0.19363   0.02048   0.43945  -0.00930
   8   38374.0    260.6   0.114498437   0.98229   0.53735   0.83154  -0.04575
   9   39468.3    253.4   0.019541835   0.16300  -0.20063  -0.31423  -0.15494
  10   40816.1    245.0   0.000733947   0.00592  -0.06506  -0.00631  -0.04058
  11   43895.6    227.8   0.305373694   2.29027   0.63122   1.37537  -0.01376
  12   41982.7    238.2   0.065387750   0.51275   0.39851  -0.59456  -0.02079
  13   47297.1    211.4   0.053428290   0.37189  -0.19517   0.57632   0.04062
  14   41570.9    240.6   0.007136016   0.05651   0.11284  -0.09544   0.18620
  15   43397.1    230.4   0.170164837   1.29088   0.15078  -1.12582  -0.02593
  16   45645.0    219.1   0.142660353   1.02893  -0.89308  -0.48009  -0.02928
  17   45786.4    218.4   0.151616630   1.09015   0.95043   0.43213  -0.00910
  18   44928.9    222.6   0.164031989   1.20193   1.01272  -0.41908   0.02657
  19   46771.0    213.8   0.079384314   0.55877   0.30828  -0.68098   0.00017
  20   45546.4    219.6   0.009390653   0.06788   0.25048   0.03655   0.06165
  21   46698.9    214.1   0.199909753   1.40930   0.95441  -0.70514  -0.03425
  22   47155.3    212.1   0.031261556   0.21825   0.03359   0.46480  -0.03291
  23   49872.1    200.5   0.435415876   2.87424  -1.61478   0.49555   0.14547
  24   52076.6    192.0   0.460500057   2.91114   0.03277  -0.11089   1.70228
  25   49648.6    201.4   0.123626055   0.81974  -0.54390   0.72097  -0.06427
  26   49997.6    200.0   0.033449108   0.22025   0.08705  -0.05978  -0.45727
  27   52561.3    190.3   0.300289217   1.88083   0.96560  -0.96926   0.09480
  28   50444.0    198.2   0.040418591   0.26378   0.40420  -0.27737  -0.15321
  29   51187.1    195.4   0.068753706   0.44219   0.38938  -0.53904   0.00342
  30   51080.7    195.8   0.016998419   0.10955  -0.13838   0.29898  -0.03187

Dispersion correction           -0.048037768
FINAL SINGLE POINT ENERGY     -1033.501811324779

DIPOLE MOMENT
-------------
                                X             Y             Z
Electronic contribution:     -5.28891      -3.63905      -0.15015
Nuclear contribution   :      4.72501       6.17663       0.20653
                        -----------------------------------------
Total Dipole Moment    :     -0.56391       2.53758       0.05638
                        -----------------------------------------
Magnitude (a.u.)       :      2.60010
Magnitude (Debye)      :      6.60892

Rotational constants in cm-1:     0.011605     0.006121     0.004181
Rotational constants in MHz :   347.917303   183.508149   125.354082

                             ****ORCA TERMINATED NORMALLY****
TOTAL RUN TIME: 0 days 0 hours 41 minutes 32 seconds 911 msec
