                         Program Version 5.0.2 -  RELEASE  -
|  1> %maxcore 20000
|  2> %pal
|  3>  nprocs= 6
|  4> end
|  5> ! RI-SCS-PBE-QIDH   def2-TZVP def2/J def2-TZVP/C RIJCOSX CPCM TightSCF
|  6> %TDDFT
|  7>    NROOTS   30
|  8>    dcorr 4
|  9>    doscs true
| 10>    TDA      FALSE
| 11> END
| 12>
| 13> %CPCM
| 14>    SMD          TRUE
| 15>    SMDsolvent   "ACETONITRILE"
| 16> END
| 17>
| 18>
| 19> * xyz 0 1
| 20> C                   1.88629500    4.20967500    0.00975300
| 21> C                   0.58312800    3.79831200    0.00210500
| 22> C                   0.25769100    2.42219400   -0.00134700
| 23> C                   1.30920500    1.45669500    0.00107500
| 24> C                   2.64691800    1.92250500    0.01243900
| 25> C                   2.92695500    3.26158300    0.01602800
| 26> C                  -1.07371400    1.98976500   -0.00338400
| 27> C                   0.98468200    0.07504500   -0.00581700
| 28> C                  -0.35228100   -0.31916500   -0.01347600
| 29> C                  -1.40159000    0.65276500   -0.00694200
| 30> C                  -2.78227100    0.19662400   -0.00248100
| 31> C                  -3.03132000   -1.17416000   -0.00726700
| 32> C                  -0.68796500   -1.74830700   -0.03892000
| 33> H                  -1.84891700    2.74447200   -0.00088500
| 34> H                   2.12316200    5.26611500    0.01239500
| 35> H                  -0.22628700    4.51846200   -0.00072200
| 36> H                   3.45640600    1.20471800    0.01849500
| 37> H                   3.95616700    3.59676900    0.02445700
| 38> C                   2.11411600   -0.89034300    0.00271100
| 39> C                   2.72559400   -1.27145900   -1.18861100
| 40> C                   2.62603400   -1.36512600    1.20739000
| 41> C                   3.80945300   -2.13635800   -1.17698700
| 42> H                   2.34182200   -0.89323000   -2.12894300
| 43> C                   3.71094200   -2.22830500    1.21828200
| 44> H                   2.16267700   -1.06177500    2.13897800
| 45> C                   4.30390800   -2.62059300    0.02608700
| 46> H                   4.27114100   -2.43019900   -2.11161500
| 47> H                   4.09560600   -2.59412600    2.16233200
| 48> H                   5.15107000   -3.29480400    0.03504000
| 49> O                   0.08459400   -2.67312200   -0.07461200
| 50> O                  -2.01530000   -2.08680800   -0.02449300
| 51> C                  -3.89782100    1.04425400    0.01055500
| 52> C                  -4.31611200   -1.69787100    0.00165800
| 53> C                  -5.39467800   -0.83571300    0.01492800
| 54> H                  -6.40094900   -1.23393300    0.02187300
| 55> C                  -5.18255600    0.54027400    0.01893300
| 56> H                  -6.02502100    1.21919700    0.02905900
| 57> H                  -3.75312400    2.11601700    0.01476600
| 58> H                  -4.44577800   -2.77198100   -0.00265200
| 59> *
| 60>
| 61>
| 62>                          ****END OF INPUT****

CARTESIAN COORDINATES (ANGSTROEM)
---------------------------------
  C      1.886295    4.209675    0.009753
  C      0.583128    3.798312    0.002105
  C      0.257691    2.422194   -0.001347
  C      1.309205    1.456695    0.001075
  C      2.646918    1.922505    0.012439
  C      2.926955    3.261583    0.016028
  C     -1.073714    1.989765   -0.003384
  C      0.984682    0.075045   -0.005817
  C     -0.352281   -0.319165   -0.013476
  C     -1.401590    0.652765   -0.006942
  C     -2.782271    0.196624   -0.002481
  C     -3.031320   -1.174160   -0.007267
  C     -0.687965   -1.748307   -0.038920
  H     -1.848917    2.744472   -0.000885
  H      2.123162    5.266115    0.012395
  H     -0.226287    4.518462   -0.000722
  H      3.456406    1.204718    0.018495
  H      3.956167    3.596769    0.024457
  C      2.114116   -0.890343    0.002711
  C      2.725594   -1.271459   -1.188611
  C      2.626034   -1.365126    1.207390
  C      3.809453   -2.136358   -1.176987
  H      2.341822   -0.893230   -2.128943
  C      3.710942   -2.228305    1.218282
  H      2.162677   -1.061775    2.138978
  C      4.303908   -2.620593    0.026087
  H      4.271141   -2.430199   -2.111615
  H      4.095606   -2.594126    2.162332
  H      5.151070   -3.294804    0.035040
  O      0.084594   -2.673122   -0.074612
  O     -2.015300   -2.086808   -0.024493
  C     -3.897821    1.044254    0.010555
  C     -4.316112   -1.697871    0.001658
  C     -5.394678   -0.835713    0.014928
  H     -6.400949   -1.233933    0.021873
  C     -5.182556    0.540274    0.018933
  H     -6.025021    1.219197    0.029059
  H     -3.753124    2.116017    0.014766
  H     -4.445778   -2.771981   -0.002652

 Total Charge           Charge          ....    0
 Multiplicity           Mult            ....    1
 Number of Electrons    NEL             ....  168
 Basis Dimension        Dim             ....  859

ORBITAL ENERGIES
----------------

  NO   OCC          E(Eh)            E(eV)
   0   2.0000     -20.071784      -546.1810
   1   2.0000     -19.992550      -544.0250
   2   2.0000     -10.975261      -298.6520
   3   2.0000     -10.900641      -296.6215
   4   2.0000     -10.864241      -295.6310
   5   2.0000     -10.857075      -295.4360
   6   2.0000     -10.854463      -295.3649
   7   2.0000     -10.846276      -295.1422
   8   2.0000     -10.844252      -295.0871
   9   2.0000     -10.844181      -295.0852
  10   2.0000     -10.835570      -294.8508
  11   2.0000     -10.831705      -294.7457
  12   2.0000     -10.829823      -294.6945
  13   2.0000     -10.829811      -294.6941
  14   2.0000     -10.829291      -294.6800
  15   2.0000     -10.828369      -294.6549
  16   2.0000     -10.826176      -294.5952
  17   2.0000     -10.825920      -294.5883
  18   2.0000     -10.825139      -294.5670
  19   2.0000     -10.821756      -294.4749
  20   2.0000     -10.819703      -294.4191
  21   2.0000     -10.819549      -294.4149
  22   2.0000     -10.818648      -294.3904
  23   2.0000     -10.818488      -294.3860
  24   2.0000     -10.817473      -294.3584
  25   2.0000      -1.357698       -36.9448
  26   2.0000      -1.259627       -34.2762
  27   2.0000      -1.100993       -29.9596
  28   2.0000      -1.069175       -29.0937
  29   2.0000      -1.057339       -28.7717
  30   2.0000      -1.035425       -28.1754
  31   2.0000      -0.991332       -26.9755
  32   2.0000      -0.962073       -26.1793
  33   2.0000      -0.940355       -25.5884
  34   2.0000      -0.932149       -25.3651
  35   2.0000      -0.926572       -25.2133
  36   2.0000      -0.923795       -25.1378
  37   2.0000      -0.891112       -24.2484
  38   2.0000      -0.836021       -22.7493
  39   2.0000      -0.805339       -21.9144
  40   2.0000      -0.790310       -21.5054
  41   2.0000      -0.768787       -20.9198
  42   2.0000      -0.758521       -20.6404
  43   2.0000      -0.752517       -20.4770
  44   2.0000      -0.716586       -19.4993
  45   2.0000      -0.710261       -19.3272
  46   2.0000      -0.694909       -18.9094
  47   2.0000      -0.656157       -17.8550
  48   2.0000      -0.652177       -17.7466
  49   2.0000      -0.631366       -17.1803
  50   2.0000      -0.612234       -16.6597
  51   2.0000      -0.608415       -16.5558
  52   2.0000      -0.600675       -16.3452
  53   2.0000      -0.589816       -16.0497
  54   2.0000      -0.579443       -15.7674
  55   2.0000      -0.576317       -15.6824
  56   2.0000      -0.573618       -15.6089
  57   2.0000      -0.562249       -15.2996
  58   2.0000      -0.550856       -14.9896
  59   2.0000      -0.547874       -14.9084
  60   2.0000      -0.537760       -14.6332
  61   2.0000      -0.530759       -14.4427
  62   2.0000      -0.528634       -14.3849
  63   2.0000      -0.508768       -13.8443
  64   2.0000      -0.508270       -13.8307
  65   2.0000      -0.501821       -13.6553
  66   2.0000      -0.498807       -13.5732
  67   2.0000      -0.472337       -12.8529
  68   2.0000      -0.468976       -12.7615
  69   2.0000      -0.461994       -12.5715
  70   2.0000      -0.456920       -12.4334
  71   2.0000      -0.455783       -12.4025
  72   2.0000      -0.443848       -12.0777
  73   2.0000      -0.442070       -12.0293
  74   2.0000      -0.426763       -11.6128
  75   2.0000      -0.425744       -11.5851
  76   2.0000      -0.404494       -11.0069
  77   2.0000      -0.375973       -10.2308
  78   2.0000      -0.349894        -9.5211
  79   2.0000      -0.321958        -8.7609
  80   2.0000      -0.316029        -8.5996
  81   2.0000      -0.311192        -8.4680
  82   2.0000      -0.307224        -8.3600
  83   2.0000      -0.270676        -7.3655
  84   0.0000      -0.011235        -0.3057
  85   0.0000       0.003584         0.0975
  86   0.0000       0.054640         1.4868
  87   0.0000       0.060187         1.6378
  88   0.0000       0.063319         1.7230

MULLIKEN ATOMIC CHARGES
-----------------------
   0 C :   -0.116904
   1 C :   -0.312861
   2 C :    0.206634
   3 C :    0.104278
   4 C :   -0.295499
   5 C :   -0.176665
   6 C :   -0.507555
   7 C :    0.383609
   8 C :   -0.154287
   9 C :    0.225533
  10 C :    0.120140
  11 C :    0.209241
  12 C :    0.400420
  13 H :    0.170259
  14 H :    0.176357
  15 H :    0.175830
  16 H :    0.189325
  17 H :    0.174489
  18 C :    0.117090
  19 C :   -0.257393
  20 C :   -0.256634
  21 C :   -0.203482
  22 H :    0.169563
  23 C :   -0.203447
  24 H :    0.169366
  25 C :   -0.150612
  26 H :    0.168148
  27 H :    0.168042
  28 H :    0.170415
  29 O :   -0.429529
  30 O :   -0.241897
  31 C :   -0.250294
  32 C :   -0.338508
  33 C :   -0.106581
  34 H :    0.177860
  35 C :   -0.191434
  36 H :    0.173158
  37 H :    0.173035
  38 H :    0.170788
Sum of atomic charges:    0.0000000

LOEWDIN ATOMIC CHARGES
----------------------
   0 C :   -0.128141
   1 C :   -0.100221
   2 C :   -0.087402
   3 C :   -0.056994
   4 C :   -0.090395
   5 C :   -0.139222
   6 C :   -0.050121
   7 C :    0.011047
   8 C :   -0.052637
   9 C :   -0.064160
  10 C :   -0.092554
  11 C :   -0.178692
  12 C :   -0.351892
  13 H :    0.167472
  14 H :    0.157870
  15 H :    0.161479
  16 H :    0.165812
  17 H :    0.157026
  18 C :   -0.104513
  19 C :   -0.103821
  20 C :   -0.103141
  21 C :   -0.148153
  22 H :    0.159470
  23 C :   -0.148146
  24 H :    0.159406
  25 C :   -0.152538
  26 H :    0.154064
  27 H :    0.154051
  28 H :    0.152825
  29 O :    0.079234
  30 O :    0.319525
  31 C :   -0.086660
  32 C :   -0.115840
  33 C :   -0.129457
  34 H :    0.158220
  35 C :   -0.152800
  36 H :    0.156204
  37 H :    0.161728
  38 H :    0.162067

  Mayer bond orders larger than 0.100000
B(  0-C ,  1-C ) :   1.5475 B(  0-C ,  5-C ) :   1.2239 B(  0-C , 14-H ) :   0.9761
B(  1-C ,  2-C ) :   1.2082 B(  1-C , 15-H ) :   0.9945 B(  2-C ,  3-C ) :   1.2943
B(  2-C ,  6-C ) :   1.2381 B(  3-C ,  4-C ) :   1.1949 B(  3-C ,  7-C ) :   1.2080
B(  4-C ,  5-C ) :   1.6035 B(  4-C , 16-H ) :   0.9653 B(  5-C , 17-H ) :   0.9786
B(  6-C ,  9-C ) :   1.4625 B(  6-C , 13-H ) :   0.9915 B(  7-C ,  8-C ) :   1.3464
B(  7-C , 18-C ) :   0.6785 B(  8-C ,  9-C ) :   1.2552 B(  8-C , 12-C ) :   1.0085
B(  9-C , 10-C ) :   0.9485 B( 10-C , 11-C ) :   1.3804 B( 10-C , 31-C ) :   1.3162
B( 11-C , 30-O ) :   1.0153 B( 11-C , 32-C ) :   1.3971 B( 12-C , 29-O ) :   2.0482
B( 12-C , 30-O ) :   1.1689 B( 18-C , 19-C ) :   1.4201 B( 18-C , 20-C ) :   1.4268
B( 19-C , 21-C ) :   1.4457 B( 19-C , 22-H ) :   0.9794 B( 20-C , 23-C ) :   1.4494
B( 20-C , 24-H ) :   0.9803 B( 21-C , 25-C ) :   1.3984 B( 21-C , 26-H ) :   0.9800
B( 23-C , 25-C ) :   1.3975 B( 23-C , 27-H ) :   0.9799 B( 25-C , 28-H ) :   0.9758
B( 31-C , 35-C ) :   1.4774 B( 31-C , 37-H ) :   0.9615 B( 32-C , 33-C ) :   1.4250
B( 32-C , 38-H ) :   0.9942 B( 33-C , 34-H ) :   0.9741 B( 33-C , 35-C ) :   1.3578
B( 35-C , 36-H ) :   0.9821

MP2 TOTAL ENERGY:    -1034.380578816 Eh

-----------------------------------------------------------------------------
         ABSORPTION SPECTRUM VIA TRANSITION ELECTRIC DIPOLE MOMENTS
-----------------------------------------------------------------------------
State   Energy    Wavelength  fosc         T2        TX        TY        TZ
        (cm-1)      (nm)                 (au**2)    (au)      (au)      (au)
-----------------------------------------------------------------------------
   1   29276.5    341.6   0.084850348   0.95414   0.55616  -0.80299   0.00525
   2   31271.1    319.8   0.264392311   2.78343  -1.46801  -0.79268   0.00556
   3   36272.4    275.7   1.061546877   9.63471  -2.62504  -1.65637  -0.01804
   4   35180.0    284.3   0.007529595   0.07046  -0.17791  -0.19643   0.01503
   5   36934.9    270.7   0.141241141   1.25893   0.85838   0.72254   0.00630
   6   39841.1    251.0   0.426611267   3.52514  -0.87362   1.66189   0.00748
   7   39669.0    252.1   0.001540416   0.01278   0.05962  -0.00853  -0.09569
   8   41789.5    239.3   0.328646246   2.58903   1.29807   0.95075  -0.01018
   9   43767.6    228.5   0.021671645   0.16301  -0.22199  -0.33107  -0.06420
  10   42927.6    233.0   0.021443694   0.16445  -0.00052  -0.40154   0.05673
  11   46249.7    216.2   0.052114557   0.37096  -0.02618  -0.60566  -0.05873
  12   43592.4    229.4   0.071946671   0.54334   0.30686   0.66774  -0.05752
  13   47092.5    212.3   0.343830328   2.40363   1.26891  -0.89077   0.00686
  14   46162.6    216.6   0.241025941   1.71889  -0.43758  -1.23483  -0.05121
  15   44641.0    224.0   0.047863311   0.35298  -0.17448  -0.34198   0.45341
  16   45468.8    219.9   0.118550870   0.85835  -0.40655  -0.79921  -0.23309
  17   46489.5    215.1   0.022183394   0.15709  -0.37194   0.13429   0.02675
  18   48613.3    205.7   0.250264886   1.69481  -1.13706   0.63275   0.03912
  19   48924.1    204.4   0.401495028   2.70167   1.33591  -0.95433   0.07912
  20   49361.8    202.6   0.022265202   0.14849   0.28640   0.24153  -0.09019
  21   51268.7    195.1   0.302949669   1.94533   0.71425  -0.09101  -1.19453
  22   51781.3    193.1   0.313690835   1.99436  -0.55716   0.12292  -1.29183
  23   49775.7    200.9   0.045203329   0.29897  -0.38700  -0.30965   0.23091
  24   49323.5    202.7   0.066587428   0.44444  -0.61134   0.26582  -0.00676
  25   53405.3    187.2   0.312148266   1.92421   0.92233  -1.03574   0.02776
  26   52473.2    190.6   0.009708763   0.06091  -0.00153  -0.02638   0.24538
  27   52051.8    192.1   0.092928953   0.58775  -0.72770   0.24122   0.00357
  28   54220.1    184.4   0.073309084   0.44512   0.58039  -0.32660  -0.03996
  29   54866.0    182.3   0.009762100   0.05858   0.16777  -0.17373   0.01562
  30   55118.0    181.4   0.002618485   0.01564  -0.03730   0.05908  -0.10372

FINAL SINGLE POINT ENERGY     -1032.755111552386

DIPOLE MOMENT
-------------
                                X             Y             Z
Electronic contribution:     -5.27973      -3.63618      -0.14950
Nuclear contribution   :      4.72501       6.17663       0.20653
                        -----------------------------------------
Total Dipole Moment    :     -0.55472       2.54045       0.05704
                        -----------------------------------------
Magnitude (a.u.)       :      2.60094
Magnitude (Debye)      :      6.61106

Rotational constants in cm-1:     0.011605     0.006121     0.004181
Rotational constants in MHz :   347.917303   183.508149   125.354082

                             ****ORCA TERMINATED NORMALLY****
TOTAL RUN TIME: 0 days 2 hours 58 minutes 5 seconds 459 msec
