 Gaussian 09, Revision E.01,

 ----------------------------------------------------------------------
 #p TPSSTPSS/def2TZVP opt=tight freq=noraman nosymm int=ultrafine scrf=
 (SMD,solvent=Acetonitrile)
 ----------------------------------------------------------------------

 -----
 Title
 -----
 Symbolic Z-matrix:
 Charge =  0 Multiplicity = 1

 SCF Done:  E(RTPSS-TPSS) =  -1035.94348079     A.U. after   15 cycles
 SCF Done:  E(RTPSS-TPSS) =  -1035.94348085     A.U. after    6 cycles
 SCF Done:  E(RTPSS-TPSS) =  -1035.94348086     A.U. after    6 cycles
 SCF Done:  E(RTPSS-TPSS) =  -1035.94348086     A.U. after    6 cycles
 SCF Done:  E(RTPSS-TPSS) =  -1035.94348086     A.U. after    5 cycles
 SCF Done:  E(RTPSS-TPSS) =  -1035.94348087     A.U. after    5 cycles
 SCF Done:  E(RTPSS-TPSS) =  -1035.94348087     A.U. after    5 cycles
 SCF Done:  E(RTPSS-TPSS) =  -1035.94348087     A.U. after    5 cycles
 SCF Done:  E(RTPSS-TPSS) =  -1035.94348087     A.U. after    6 cycles
 SCF Done:  E(RTPSS-TPSS) =  -1035.94348087     A.U. after    5 cycles
 SCF Done:  E(RTPSS-TPSS) =  -1035.94348216     A.U. after    9 cycles
 SCF Done:  E(RTPSS-TPSS) =  -1035.94348207     A.U. after    8 cycles
 SCF Done:  E(RTPSS-TPSS) =  -1035.94348228     A.U. after    8 cycles
 SCF Done:  E(RTPSS-TPSS) =  -1035.94348228     A.U. after    7 cycles
 SCF Done:  E(RTPSS-TPSS) =  -1035.94348226     A.U. after    7 cycles
 SCF Done:  E(RTPSS-TPSS) =  -1035.94348220     A.U. after    7 cycles
 SCF Done:  E(RTPSS-TPSS) =  -1035.94348229     A.U. after    7 cycles
 SCF Done:  E(RTPSS-TPSS) =  -1035.94348229     A.U. after    5 cycles
 Optimization completed.
    -- Stationary point found.
 Normal termination of Gaussian 09 at Tue Nov 23 06:36:23 2021.

 ----------------------------------------------------------------------
 #P Geom=AllCheck Guess=TCheck SCRF=Check GenChk RTPSSTPSS/def2TZVP Fre
 q
 ----------------------------------------------------------------------

 Structure from the checkpoint file:  "cp.chk"
 -----
 Title
 -----
 Charge =  0 Multiplicity = 1

 SCF Done:  E(RTPSS-TPSS) =  -1035.94348229     A.U. after    1 cycles

  Exact polarizability: 618.490  39.229 511.435  -3.597  -1.998 256.065
 Approx polarizability: 767.355  48.368 692.553  -5.173  -2.380 326.772

                      1                      2                      3
                      A                      A                      A
 Frequencies --     14.4029                41.5969                52.5291
 Red. masses --      5.2422                 4.8765                 4.8264
 Frc consts  --      0.0006                 0.0050                 0.0078
 IR Inten    --      1.9261                 0.1816                 1.2582

                      4                      5                      6
                      A                      A                      A
 Frequencies --     63.8950                67.0424                95.0703
 Red. masses --      5.3928                 4.4122                 6.3292
 Frc consts  --      0.0130                 0.0117                 0.0337
 IR Inten    --      0.9357                 0.0048                 0.0611

                      7                      8                      9
                      A                      A                      A
 Frequencies --    137.8714               152.5144               198.1452
 Red. masses --      5.1082                 5.4428                 4.5072
 Frc consts  --      0.0572                 0.0746                 0.1043
 IR Inten    --      0.0023                 1.3613                 0.3473

                     10                     11                     12
                      A                      A                      A
 Frequencies --    229.6031               245.2336               248.6848
 Red. masses --      6.5914                 6.2095                 4.4234
 Frc consts  --      0.2047                 0.2200                 0.1612
 IR Inten    --      0.0543                 0.6680                 2.2633

                     13                     14                     15
                      A                      A                      A
 Frequencies --    297.8315               300.7965               323.2787
 Red. masses --      8.6212                 4.1637                 5.4770
 Frc consts  --      0.4506                 0.2220                 0.3372
 IR Inten    --     11.8372                 1.4648                 0.1637

                     16                     17                     18
                      A                      A                      A
 Frequencies --    353.9069               356.7456               400.5926
 Red. masses --      6.8645                 5.7141                 2.9221
 Frc consts  --      0.5066                 0.4285                 0.2763
 IR Inten    --      0.8650                 3.9160                 0.2047

                     19                     20                     21
                      A                      A                      A
 Frequencies --    435.9139               441.9109               459.9493
 Red. masses --      3.2342                 7.3503                 3.5391
 Frc consts  --      0.3621                 0.8457                 0.4411
 IR Inten    --      0.6742                 0.3693                22.2086

                     22                     23                     24
                      A                      A                      A
 Frequencies --    478.8064               510.7897               536.5562
 Red. masses --      6.1268                 3.6944                 3.4817
 Frc consts  --      0.8276                 0.5679                 0.5906
 IR Inten    --     10.4631                 6.3018                 3.3268

                     25                     26                     27
                      A                      A                      A
 Frequencies --    544.7169               565.2475               595.6161
 Red. masses --      5.3215                 6.6915                 7.0639
 Frc consts  --      0.9303                 1.2596                 1.4765
 IR Inten    --      8.9810                19.5660                43.2667

                     28                     29                     30
                      A                      A                      A
 Frequencies --    607.4804               616.6986               632.8645
 Red. masses --      5.7993                 7.0869                 4.5277
 Frc consts  --      1.2609                 1.5880                 1.0684
 IR Inten    --      0.1220                13.0156                 3.4441

                     31                     32                     33
                      A                      A                      A
 Frequencies --    645.5631               662.2239               666.8409
 Red. masses --      5.8973                 6.2154                 5.6461
 Frc consts  --      1.4481                 1.6059                 1.4793
 IR Inten    --      4.0744                 2.9126                 0.0809

                     34                     35                     36
                      A                      A                      A
 Frequencies --    690.3083               704.5402               732.8756
 Red. masses --      7.3359                 1.6872                 3.1541
 Frc consts  --      2.0596                 0.4934                 0.9981
 IR Inten    --      2.9818                77.6220                 1.5828

                     37                     38                     39
                      A                      A                      A
 Frequencies --    747.0678               754.5645               758.9046
 Red. masses --      2.6061                 1.5598                 1.5149
 Frc consts  --      0.8569                 0.5233                 0.5140
 IR Inten    --     67.0556                51.7050               173.8990

                     40                     41                     42
                      A                      A                      A
 Frequencies --    771.0506               797.0506               818.7014
 Red. masses --      3.0024                 4.1013                 3.9899
 Frc consts  --      1.0517                 1.5351                 1.5757
 IR Inten    --      0.4033                11.7861                 4.3101

                     43                     44                     45
                      A                      A                      A
 Frequencies --    845.0500               847.7426               861.8477
 Red. masses --      5.5879                 1.2531                 1.4835
 Frc consts  --      2.3511                 0.5306                 0.6492
 IR Inten    --      0.4870                 0.0399                 0.1712

                     46                     47                     48
                      A                      A                      A
 Frequencies --    864.7186               886.8451               897.4300
 Red. masses --      1.4831                 6.2702                 1.7737
 Frc consts  --      0.6534                 2.9055                 0.8417
 IR Inten    --     12.4541                29.5318                26.4931

                     49                     50                     51
                      A                      A                      A
 Frequencies --    904.1810               925.4570               942.6909
 Red. masses --      2.8011                 2.1745                 1.3589
 Frc consts  --      1.3493                 1.0973                 0.7115
 IR Inten    --     18.0674                23.1226                 4.3574

                     52                     53                     54
                      A                      A                      A
 Frequencies --    961.3362               964.4739               966.4804
 Red. masses --      1.3641                 1.3454                 1.2675
 Frc consts  --      0.7428                 0.7374                 0.6976
 IR Inten    --      0.2024                 2.3151                 0.1928

                     55                     56                     57
                      A                      A                      A
 Frequencies --    973.9750               984.1789               986.2285
 Red. masses --      6.6174                 1.2612                 1.2936
 Frc consts  --      3.6986                 0.7197                 0.7413
 IR Inten    --    110.6313                 0.3659                 0.0259

                     58                     59                     60
                      A                      A                      A
 Frequencies --    998.8809              1027.9915              1034.1315
 Red. masses --      6.2970                 2.5365                 2.2553
 Frc consts  --      3.7018                 1.5793                 1.4210
 IR Inten    --      6.3903                 8.4960                 9.3238

                     61                     62                     63
                      A                      A                      A
 Frequencies --   1045.6486              1069.3588              1080.6527
 Red. masses --      2.0360                 5.2417                 1.6072
 Frc consts  --      1.3116                 3.5316                 1.1058
 IR Inten    --     11.6035               514.3368                15.4634

                     64                     65                     66
                      A                      A                      A
 Frequencies --   1108.1086              1130.6106              1155.6073
 Red. masses --      2.3151                 1.8700                 1.2627
 Frc consts  --      1.6749                 1.4084                 0.9935
 IR Inten    --     57.1494                34.3841                29.6741

                     67                     68                     69
                      A                      A                      A
 Frequencies --   1156.5685              1158.2052              1174.8732
 Red. masses --      1.0792                 1.1469                 1.9534
 Frc consts  --      0.8505                 0.9064                 1.5886
 IR Inten    --      0.0503                54.2492                68.6014

                     70                     71                     72
                      A                      A                      A
 Frequencies --   1178.3158              1193.5503              1221.3468
 Red. masses --      1.1434                 2.3893                 2.4417
 Frc consts  --      0.9354                 2.0054                 2.1459
 IR Inten    --      1.4514               187.7390                36.3023

                     73                     74                     75
                      A                      A                      A
 Frequencies --   1233.4945              1258.1069              1274.1710
 Red. masses --      2.3424                 2.7710                 2.1032
 Frc consts  --      2.0998                 2.5841                 2.0118
 IR Inten    --    106.1207                75.0352                44.6930

                     76                     77                     78
                      A                      A                      A
 Frequencies --   1307.0754              1327.1372              1335.1943
 Red. masses --      3.3315                 2.7605                 3.6552
 Frc consts  --      3.3534                 2.8646                 3.8393
 IR Inten    --      0.0431                13.5339                62.8872

                     79                     80                     81
                      A                      A                      A
 Frequencies --   1337.7283              1353.6202              1380.2301
 Red. masses --      1.8153                 4.5057                 5.1596
 Frc consts  --      1.9139                 4.8641                 5.7912
 IR Inten    --      0.3651                 8.1313                 3.7400

                     82                     83                     84
                      A                      A                      A
 Frequencies --   1389.3684              1408.8257              1449.0461
 Red. masses --      3.8570                 3.5999                 2.4145
 Frc consts  --      4.3866                 4.2097                 2.9870
 IR Inten    --      5.1336                12.0327                16.8436

                     85                     86                     87
                      A                      A                      A
 Frequencies --   1449.8814              1469.6511              1496.1134
 Red. masses --      2.1180                 2.4867                 2.6757
 Frc consts  --      2.6232                 3.1645                 3.5287
 IR Inten    --      6.8997                82.9813                 5.8001

                     88                     89                     90
                      A                      A                      A
 Frequencies --   1500.9976              1508.6847              1555.9075
 Red. masses --      2.2761                 2.8571                 7.8239
 Frc consts  --      3.0214                 3.8316                11.1595
 IR Inten    --     38.9446                28.1251                63.5823

                     91                     92                     93
                      A                      A                      A
 Frequencies --   1584.3156              1587.4048              1595.1575
 Red. masses --      5.2763                 4.8313                 6.7993
 Frc consts  --      7.8031                 7.1729                10.1935
 IR Inten    --      1.5616                29.9856               132.5483

                     94                     95                     96
                      A                      A                      A
 Frequencies --   1606.0133              1611.9686              1620.3243
 Red. masses --      5.5594                 6.0611                 5.7400
 Frc consts  --      8.4484                 9.2793                 8.8791
 IR Inten    --     12.6964                39.8650                44.1108

                     97                     98                     99
                      A                      A                      A
 Frequencies --   1708.3725              3127.4360              3132.2699
 Red. masses --     12.8502                 1.0848                 1.0869
 Frc consts  --     22.0966                 6.2516                 6.2826
 IR Inten    --    881.4898                 2.8973                 0.0846

                    100                    101                    102
                      A                      A                      A
 Frequencies --   3134.4479              3141.2396              3143.2617
 Red. masses --      1.0862                 1.0909                 1.0861
 Frc consts  --      6.2877                 6.3420                 6.3223
 IR Inten    --      0.8623                16.2527                 0.7200

                    103                    104                    105
                      A                      A                      A
 Frequencies --   3143.9002              3146.9026              3151.3810
 Red. masses --      1.0895                 1.0946                 1.0901
 Frc consts  --      6.3447                 6.3864                 6.3784
 IR Inten    --     15.9803                59.0780                14.7768

                    106                    107                    108
                      A                      A                      A
 Frequencies --   3155.7588              3156.0196              3156.5124
 Red. masses --      1.0945                 1.0973                 1.0912
 Frc consts  --      6.4218                 6.4398                 6.4058
 IR Inten    --     44.7454                15.0968                 4.0906

                    109                    110                    111
                      A                      A                      A
 Frequencies --   3165.0577              3168.4757              3171.0933
 Red. masses --      1.0938                 1.0939                 1.0936
 Frc consts  --      6.4558                 6.4704                 6.4795
 IR Inten    --     19.0360                26.9205                25.0708

 - Thermochemistry -
 -------------------
 Temperature   298.150 Kelvin.  Pressure   1.00000 Atm.
 Atom     1 has atomic number  6 and mass  12.00000

 Molecular mass:   322.09938 amu.
 Principal axes and moments of inertia in atomic units:
                           1         2         3
     Eigenvalues --  5232.333199994.54277**********
           X            0.99998  -0.00596   0.00297
           Y            0.00595   0.99998   0.00311
           Z           -0.00299  -0.00309   0.99999
 This molecule is an asymmetric top.
 Rotational symmetry number  1.
 Warning -- assumption of classical behavior for rotation
           may cause significant error
 Rotational temperatures (Kelvin)      0.01655     0.00867     0.00593
 Rotational constants (GHZ):           0.34492     0.18057     0.12366
 Zero-point vibrational energy     776047.5 (Joules/Mol)
                                  185.47981 (Kcal/Mol)
 Warning -- explicit consideration of  29 degrees of freedom as
           vibrations may cause significant error
 Vibrational temperatures:     20.72    59.85    75.58    91.93    96.46
          (Kelvin)            136.78   198.37   219.43   285.09   330.35
                              352.84   357.80   428.51   432.78   465.13
                              509.19   513.28   576.36   627.18   635.81
                              661.76   688.89   734.91   771.98   783.73
                              813.26   856.96   874.03   887.29   910.55
                              928.82   952.79   959.43   993.20  1013.67
                             1054.44  1074.86  1085.65  1091.89  1109.37
                             1146.78  1177.93  1215.84  1219.71  1240.01
                             1244.14  1275.97  1291.20  1300.91  1331.52
                             1356.32  1383.15  1387.66  1390.55  1401.33
                             1416.01  1418.96  1437.17  1479.05  1487.88
                             1504.45  1538.57  1554.82  1594.32  1626.69
                             1662.66  1664.04  1666.40  1690.38  1695.33
                             1717.25  1757.24  1774.72  1810.13  1833.25
                             1880.59  1909.45  1921.04  1924.69  1947.56
                             1985.84  1998.99  2026.98  2084.85  2086.05
                             2114.50  2152.57  2159.60  2170.66  2238.60
                             2279.47  2283.92  2295.07  2310.69  2319.26
                             2331.28  2457.96  4499.68  4506.63  4509.77
                             4519.54  4522.45  4523.37  4527.69  4534.13
                             4540.43  4540.80  4541.51  4553.81  4558.72
                             4562.49

 Zero-point correction=                           0.295581 (Hartree/Particle)
 Thermal correction to Energy=                    0.313951
 Thermal correction to Enthalpy=                  0.314895
 Thermal correction to Gibbs Free Energy=         0.247589
 Sum of electronic and zero-point Energies=          -1035.647901
 Sum of electronic and thermal Energies=             -1035.629532
 Sum of electronic and thermal Enthalpies=           -1035.628587
 Sum of electronic and thermal Free Energies=        -1035.695893

                     E (Thermal)             CV                S
                      KCal/Mol        Cal/Mol-Kelvin    Cal/Mol-Kelvin
 Total                  197.007             75.393            141.657
 Electronic               0.000              0.000              0.000
 Translational            0.889              2.981             43.205
 Rotational               0.889              2.981             34.989
 Vibrational            195.230             69.432             63.463
 Vibration     1          0.593              1.986              7.286
 Vibration     2          0.594              1.981              5.182
 Vibration     3          0.596              1.977              4.720
 Vibration     4          0.597              1.972              4.333
 Vibration     5          0.598              1.970              4.238
 Vibration     6          0.603              1.953              3.553
 Vibration     7          0.614              1.915              2.833
 Vibration     8          0.619              1.900              2.641
 Vibration     9          0.637              1.842              2.150
 Vibration    10          0.652              1.796              1.882
 Vibration    11          0.660              1.771              1.765
 Vibration    12          0.662              1.765              1.740
 Vibration    13          0.691              1.678              1.429
 Vibration    14          0.693              1.672              1.412
 Vibration    15          0.708              1.629              1.293
 Vibration    16          0.730              1.567              1.149
 Vibration    17          0.732              1.561              1.136
 Vibration    18          0.766              1.469              0.960
 Vibration    19          0.796              1.392              0.840
 Vibration    20          0.802              1.379              0.821
 Vibration    21          0.818              1.339              0.766
 Vibration    22          0.835              1.297              0.713
 Vibration    23          0.866              1.226              0.632
 Vibration    24          0.892              1.169              0.573
 Vibration    25          0.900              1.151              0.555
 Vibration    26          0.921              1.106              0.513
 Vibration    27          0.953              1.041              0.457
 Vibration    28          0.966              1.016              0.437
 Vibration    29          0.976              0.997              0.422

 Optimization completed.
    -- Stationary point found.
 Normal termination of Gaussian 09 at Tue Nov 23 09:29:54 2021.
 Gaussian 09:  ES64L-G09RevE.01 30-Nov-2015

 ----------------------------------------------------------------------
 #p TPSSTPSS chkbasis geom=allcheck Guess=Read int=ultrafine scrf=(SMD,
 solvent=Acetonitrile) td=(NStates=30)
 ----------------------------------------------------------------------

 Structure from the checkpoint file:  "cp.chk"
 -----
 Title
 -----
 Charge =  0 Multiplicity = 1

                         Standard orientation:
 ---------------------------------------------------------------------
 Center     Atomic      Atomic             Coordinates (Angstroms)
 Number     Number       Type             X           Y           Z
 ---------------------------------------------------------------------
      1          6           0        1.884911    4.234422    0.007150
      2          6           0        0.574064    3.816825   -0.000892
      3          6           0        0.253297    2.430815   -0.003715
      4          6           0        1.313068    1.461840   -0.000231
      5          6           0        2.657253    1.933436    0.011458
      6          6           0        2.934393    3.282604    0.014400
      7          6           0       -1.085680    1.995101   -0.005764
      8          6           0        0.991035    0.070216   -0.007439
      9          6           0       -0.354947   -0.326846   -0.016367
     10          6           0       -1.413006    0.649463   -0.009075
     11          6           0       -2.804422    0.193351   -0.002619
     12          6           0       -3.059858   -1.183641   -0.007141
     13          6           0       -0.693644   -1.763494   -0.043508
     14          1           0       -1.863500    2.752235   -0.003194
     15          1           0        2.120686    5.295319    0.009207
     16          1           0       -0.240280    4.537398   -0.004567
     17          1           0        3.470882    1.215818    0.017655
     18          1           0        3.966534    3.622297    0.022769
     19          6           0        2.133625   -0.897481    0.002913
     20          6           0        2.750354   -1.282225   -1.195433
     21          6           0        2.658556   -1.361139    1.217090
     22          6           0        3.852717   -2.138429   -1.180681
     23          1           0        2.360948   -0.915906   -2.142014
     24          6           0        3.761865   -2.215886    1.230366
     25          1           0        2.197183   -1.056283    2.153084
     26          6           0        4.360742   -2.610917    0.031705
     27          1           0        4.316697   -2.433309   -2.118706
     28          1           0        4.155019   -2.571039    2.179792
     29          1           0        5.220179   -3.276327    0.042674
     30          8           0        0.081743   -2.698832   -0.082212
     31          8           0       -2.034744   -2.107958   -0.027334
     32          6           0       -3.925367    1.049047    0.013234
     33          6           0       -4.351544   -1.711497    0.004742
     34          6           0       -5.435702   -0.841497    0.020916
     35          1           0       -6.446489   -1.239312    0.030347
     36          6           0       -5.218940    0.542889    0.024611
     37          1           0       -6.063211    1.226264    0.036905
     38          1           0       -3.782029    2.124630    0.017486
     39          1           0       -4.485215   -2.789196    0.000603
 ---------------------------------------------------------------------

 SCF Done:  E(RTPSS-TPSS) =  -1035.94348283     A.U. after    6 cycles

 Excitation energies and oscillator strengths:

 Excited State   1:      Singlet-A      3.0255 eV  409.80 nm  f=0.0555  <S**2>=0.000
      82 -> 85         0.10885
      84 -> 85         0.67278
      84 -> 86         0.11773
 This state for optimization and/or second-order correction.
 Total Energy, E(TD-HF/TD-KS) =  -1035.83229756
 Copying the excited state density for this state as the 1-particle RhoCI density.

 Excited State   2:      Singlet-A      3.2432 eV  382.29 nm  f=0.0002  <S**2>=0.000
      83 -> 85         0.70582

 Excited State   3:      Singlet-A      3.4465 eV  359.74 nm  f=0.0515  <S**2>=0.000
      80 -> 85        -0.13328
      81 -> 85         0.40876
      82 -> 85         0.42716
      84 -> 86        -0.35784

 Excited State   4:      Singlet-A      3.5506 eV  349.19 nm  f=0.0907  <S**2>=0.000
      81 -> 85        -0.12473
      82 -> 85         0.47632
      84 -> 85        -0.15907
      84 -> 86         0.44895

 Excited State   5:      Singlet-A      3.6233 eV  342.19 nm  f=0.0440  <S**2>=0.000
      80 -> 85         0.57076
      81 -> 85         0.36369
      84 -> 86         0.19277

 Excited State   6:      Singlet-A      3.7083 eV  334.35 nm  f=0.0008  <S**2>=0.000
      83 -> 86         0.70426

 Excited State   7:      Singlet-A      3.9344 eV  315.13 nm  f=0.3896  <S**2>=0.000
      78 -> 85        -0.12843
      80 -> 85        -0.29182
      81 -> 85         0.30663
      81 -> 86         0.12784
      82 -> 85        -0.14970
      82 -> 86         0.39627
      84 -> 86         0.24221
      84 -> 87        -0.14021
      84 -> 89        -0.12742

 Excited State   8:      Singlet-A      4.0789 eV  303.96 nm  f=0.0772  <S**2>=0.000
      78 -> 85         0.26390
      80 -> 85         0.17839
      80 -> 86        -0.14726
      81 -> 85        -0.20379
      81 -> 86        -0.11500
      82 -> 85         0.16214
      82 -> 86         0.51812

 Excited State   9:      Singlet-A      4.0846 eV  303.54 nm  f=0.0807  <S**2>=0.000
      80 -> 86         0.49843
      81 -> 85        -0.10086
      81 -> 86         0.45035

 Excited State  10:      Singlet-A      4.2465 eV  291.97 nm  f=0.0003  <S**2>=0.000
      79 -> 85         0.70545

 Excited State  11:      Singlet-A      4.2854 eV  289.32 nm  f=0.0710  <S**2>=0.000
      80 -> 86         0.27718
      81 -> 86        -0.25870
      84 -> 87         0.53944
      84 -> 89        -0.15308

 Excited State  12:      Singlet-A      4.3588 eV  284.45 nm  f=0.2379  <S**2>=0.000
      78 -> 85        -0.24506
      80 -> 86        -0.34492
      81 -> 86         0.38119
      84 -> 86        -0.10856
      84 -> 87         0.29616
      84 -> 89        -0.18740

 Excited State  13:      Singlet-A      4.3705 eV  283.69 nm  f=0.0016  <S**2>=0.000
      84 -> 88         0.68911
      84 -> 89         0.14852

 Excited State  14:      Singlet-A      4.4944 eV  275.87 nm  f=0.0054  <S**2>=0.000
      78 -> 85        -0.28109
      82 -> 86         0.12069
      84 -> 89         0.50178
      84 -> 90         0.33218

 Excited State  15:      Singlet-A      4.6044 eV  269.27 nm  f=0.3446  <S**2>=0.000
      78 -> 85        -0.31329
      80 -> 85         0.10283
      81 -> 85        -0.13708
      82 -> 85         0.11058
      82 -> 89         0.10333
      84 -> 86        -0.10292
      84 -> 87        -0.21126
      84 -> 89        -0.34218
      84 -> 90         0.35444

 Excited State  16:      Singlet-A      4.7023 eV  263.67 nm  f=0.0006  <S**2>=0.000
      79 -> 86         0.70391

 Excited State  17:      Singlet-A      4.7779 eV  259.49 nm  f=0.0017  <S**2>=0.000
      83 -> 87         0.66807
      83 -> 89         0.17847

 Excited State  18:      Singlet-A      4.8142 eV  257.54 nm  f=0.1971  <S**2>=0.000
      77 -> 85         0.29976
      78 -> 85         0.27647
      78 -> 86         0.15755
      81 -> 86         0.12841
      82 -> 89        -0.14099
      84 -> 87         0.10440
      84 -> 90         0.37889
      84 -> 91        -0.20783

 Excited State  19:      Singlet-A      4.8901 eV  253.54 nm  f=0.0229  <S**2>=0.000
      77 -> 85         0.42443
      78 -> 86        -0.35457
      81 -> 87         0.15200
      82 -> 87        -0.18378
      82 -> 89         0.13136
      84 -> 91        -0.25507

 Excited State  20:      Singlet-A      4.9718 eV  249.37 nm  f=0.0304  <S**2>=0.000
      80 -> 88         0.10357
      81 -> 88         0.11754
      82 -> 87         0.20106
      83 -> 87        -0.11290
      83 -> 88        -0.13630
      83 -> 89         0.53828
      83 -> 90        -0.25778

 Excited State  21:      Singlet-A      4.9849 eV  248.72 nm  f=0.0757  <S**2>=0.000
      78 -> 86        -0.15138
      82 -> 87         0.42257
      82 -> 88         0.28390
      82 -> 89        -0.26567
      82 -> 90        -0.14099
      83 -> 89        -0.22289
      83 -> 90         0.16183

 Excited State  22:      Singlet-A      4.9944 eV  248.24 nm  f=0.0175  <S**2>=0.000
      82 -> 87        -0.17664
      82 -> 88         0.62249
      82 -> 89         0.24873

 Excited State  23:      Singlet-A      5.0782 eV  244.15 nm  f=0.0455  <S**2>=0.000
      77 -> 85         0.34633
      78 -> 85        -0.10200
      78 -> 86         0.34899
      81 -> 87        -0.15393
      82 -> 87         0.10861
      82 -> 89         0.20286
      82 -> 90        -0.10271
      82 -> 91         0.10209
      84 -> 89         0.10003
      84 -> 90        -0.20141
      84 -> 91         0.19258
      84 -> 92         0.15595

 Excited State  24:      Singlet-A      5.1219 eV  242.07 nm  f=0.0010  <S**2>=0.000
      80 -> 88         0.15828
      81 -> 88         0.30924
      83 -> 89         0.17750
      83 -> 90         0.57036

 Excited State  25:      Singlet-A      5.1549 eV  240.52 nm  f=0.0143  <S**2>=0.000
      77 -> 86        -0.12985
      78 -> 86         0.18161
      80 -> 87         0.32653
      80 -> 89         0.13814
      80 -> 90         0.10735
      81 -> 87         0.44013
      81 -> 89         0.23452
      82 -> 89        -0.10102
      82 -> 90        -0.13481

 Excited State  26:      Singlet-A      5.1945 eV  238.68 nm  f=0.0229  <S**2>=0.000
      77 -> 86         0.26977
      78 -> 86        -0.17415
      80 -> 87         0.36892
      80 -> 88        -0.10315
      80 -> 89         0.22172
      81 -> 89        -0.13727
      81 -> 90         0.14975
      82 -> 87         0.12676
      82 -> 89         0.20845
      82 -> 90         0.17520
      84 -> 91         0.17989

 Excited State  27:      Singlet-A      5.2203 eV  237.51 nm  f=0.0102  <S**2>=0.000
      76 -> 85         0.15388
      80 -> 87        -0.18789
      80 -> 88        -0.35157
      81 -> 87         0.16195
      81 -> 88         0.45993
      82 -> 90        -0.13534
      83 -> 90        -0.11305

 Excited State  28:      Singlet-A      5.2319 eV  236.98 nm  f=0.0702  <S**2>=0.000
      76 -> 85         0.10684
      77 -> 86        -0.18011
      80 -> 87         0.20929
      80 -> 88        -0.16575
      80 -> 89        -0.15713
      81 -> 87        -0.22919
      81 -> 88         0.21951
      81 -> 89         0.32104
      82 -> 90         0.23861
      84 -> 91        -0.20764

 Excited State  29:      Singlet-A      5.2489 eV  236.21 nm  f=0.0223  <S**2>=0.000
      77 -> 86        -0.21579
      78 -> 86         0.13065
      80 -> 87        -0.10706
      80 -> 89         0.14485
      80 -> 90         0.12818
      81 -> 87         0.12694
      81 -> 89        -0.33726
      81 -> 90        -0.16182
      82 -> 87         0.13671
      82 -> 89         0.10861
      82 -> 90         0.35284
      84 -> 91        -0.15942
      84 -> 92         0.10246

 Excited State  30:      Singlet-A      5.2631 eV  235.57 nm  f=0.0003  <S**2>=0.000
      76 -> 85         0.67629
      80 -> 88         0.15819

 The electronic state is 1-A.
 Alpha  occ. eigenvalues --  -18.94366 -18.87054 -10.11665 -10.05817 -10.02172
 Alpha  occ. eigenvalues --  -10.01945 -10.01811 -10.01012 -10.00922 -10.00853
 Alpha  occ. eigenvalues --  -10.00114  -9.99676  -9.99674  -9.99533  -9.99514
 Alpha  occ. eigenvalues --   -9.99432  -9.99428  -9.99396  -9.99318  -9.99016
 Alpha  occ. eigenvalues --   -9.98675  -9.98673  -9.98634  -9.98629  -9.98522
 Alpha  occ. eigenvalues --   -1.04259  -0.95962  -0.83109  -0.80582  -0.79507
 Alpha  occ. eigenvalues --   -0.77819  -0.74196  -0.71891  -0.70211  -0.69466
 Alpha  occ. eigenvalues --   -0.68955  -0.68749  -0.66146  -0.61977  -0.59443
 Alpha  occ. eigenvalues --   -0.58398  -0.56711  -0.55840  -0.55362  -0.52579
 Alpha  occ. eigenvalues --   -0.51908  -0.50708  -0.47897  -0.47451  -0.45772
 Alpha  occ. eigenvalues --   -0.43605  -0.43225  -0.43023  -0.41924  -0.41547
 Alpha  occ. eigenvalues --   -0.40685  -0.40385  -0.39776  -0.39206  -0.38966
 Alpha  occ. eigenvalues --   -0.37916  -0.37523  -0.37511  -0.36477  -0.35465
 Alpha  occ. eigenvalues --   -0.35307  -0.34340  -0.33078  -0.32723  -0.32129
 Alpha  occ. eigenvalues --   -0.31926  -0.31433  -0.30414  -0.29799  -0.29749
 Alpha  occ. eigenvalues --   -0.28970  -0.26898  -0.25513  -0.25189  -0.23101
 Alpha  occ. eigenvalues --   -0.22682  -0.21989  -0.21570  -0.19697
 Alpha virt. eigenvalues --   -0.09699  -0.07974  -0.04122  -0.03644  -0.03534
 Alpha virt. eigenvalues --   -0.02940  -0.01261   0.00691   0.04431   0.04816
 Alpha virt. eigenvalues --    0.05321   0.06476   0.06599   0.06646   0.07973

 Mulliken charges:
               1
     1  C   -0.099038
     2  C   -0.259851
     3  C    0.190651
     4  C    0.069408
     5  C   -0.201402
     6  C   -0.138574
     7  C   -0.427419
     8  C    0.290516
     9  C   -0.120642
    10  C    0.209063
    11  C    0.079883
    12  C    0.219161
    13  C    0.265272
    14  H    0.131317
    15  H    0.144421
    16  H    0.139862
    17  H    0.156908
    18  H    0.142390
    19  C   -0.002190
    20  C   -0.168248
    21  C   -0.165766
    22  C   -0.178877
    23  H    0.128228
    24  C   -0.179841
    25  H    0.128484
    26  C   -0.110844
    27  H    0.135673
    28  H    0.135597
    29  H    0.139426
    30  O   -0.319686
    31  O   -0.152829
    32  C   -0.215074
    33  C   -0.281815
    34  C   -0.098316
    35  H    0.146248
    36  C   -0.148799
    37  H    0.143009
    38  H    0.139517
    39  H    0.134176
 Sum of Mulliken charges =  -0.00000

 Dipole moment (field-independent basis, Debye):
    X=             -1.3614    Y=              6.2366    Z=              0.1493  Tot=              6.3853
 Quadrupole moment (field-independent basis, Debye-Ang):
   XX=           -113.1050   YY=           -135.8667   ZZ=           -141.7322
   XY=             -1.7199   XZ=             -0.3021   YZ=             -0.6974

 1\1\GINC-CN066\SP\RTPSSTPSS TD-FC\Gen\C23H14O2\PNG4RJV\23-Nov-2021\0\\
 #p TPSSTPSS chkbasis geom=allcheck Guess=Read int=ultrafine scrf=(SMD,
 solvent=Acetonitrile) td=(NStates=30)\\Title\\0,1\C,0,1.9019142291,4.2
 238829219,-0.0193658533\C,0,0.5891941656,3.8121415094,-0.0217531034\C,
 0,0.2622246129,2.4275820271,-0.0184690426\C,0,1.3176571648,1.453884707
 ,-0.0147505619\C,0,2.6639678816,1.9194886748,-0.0090198142\C,0,2.94714
 6761,3.2674027684,-0.0119123721\C,0,-1.0786877161,1.9978713669,-0.0147
 083297\C,0,0.9893826952,0.0637016035,-0.0158271658\C,0,-0.3583834228,-

 Normal termination of Gaussian 09 at Tue Nov 23 12:27:08 2021.
