                         Program Version 5.0.2 -  RELEASE  -
|  1> %maxcore 57600
|  2> %pal
|  3>  nprocs= 4
|  4> end
|  5> !STEOM-DLPNO-CCSD DEF2-TZVP DEF2-TZVP/C def2/J TightSCF TightPNO CPCM
|  6> %MDCI
|  7>    Dorootwise true
|  8>    OTHRESH 0.005
|  9>    VTHRESH 0.005
| 10>    TCutPNOSingles 1e-11
| 11>    DTol 1e-5
| 12>    NROOTS  25
| 13>    DOSOLV  TRUE
| 14>    MAXITER 500
| 15> END
| 16> %CPCM
| 17>    SMD          TRUE
| 18>    SMDsolvent   "ACETONITRILE"
| 19> END
| 20>
| 21>
| 22> * xyz 0 1
| 23> C                   1.88629500    4.20967500    0.00975300
| 24> C                   0.58312800    3.79831200    0.00210500
| 25> C                   0.25769100    2.42219400   -0.00134700
| 26> C                   1.30920500    1.45669500    0.00107500
| 27> C                   2.64691800    1.92250500    0.01243900
| 28> C                   2.92695500    3.26158300    0.01602800
| 29> C                  -1.07371400    1.98976500   -0.00338400
| 30> C                   0.98468200    0.07504500   -0.00581700
| 31> C                  -0.35228100   -0.31916500   -0.01347600
| 32> C                  -1.40159000    0.65276500   -0.00694200
| 33> C                  -2.78227100    0.19662400   -0.00248100
| 34> C                  -3.03132000   -1.17416000   -0.00726700
| 35> C                  -0.68796500   -1.74830700   -0.03892000
| 36> H                  -1.84891700    2.74447200   -0.00088500
| 37> H                   2.12316200    5.26611500    0.01239500
| 38> H                  -0.22628700    4.51846200   -0.00072200
| 39> H                   3.45640600    1.20471800    0.01849500
| 40> H                   3.95616700    3.59676900    0.02445700
| 41> C                   2.11411600   -0.89034300    0.00271100
| 42> C                   2.72559400   -1.27145900   -1.18861100
| 43> C                   2.62603400   -1.36512600    1.20739000
| 44> C                   3.80945300   -2.13635800   -1.17698700
| 45> H                   2.34182200   -0.89323000   -2.12894300
| 46> C                   3.71094200   -2.22830500    1.21828200
| 47> H                   2.16267700   -1.06177500    2.13897800
| 48> C                   4.30390800   -2.62059300    0.02608700
| 49> H                   4.27114100   -2.43019900   -2.11161500
| 50> H                   4.09560600   -2.59412600    2.16233200
| 51> H                   5.15107000   -3.29480400    0.03504000
| 52> O                   0.08459400   -2.67312200   -0.07461200
| 53> O                  -2.01530000   -2.08680800   -0.02449300
| 54> C                  -3.89782100    1.04425400    0.01055500
| 55> C                  -4.31611200   -1.69787100    0.00165800
| 56> C                  -5.39467800   -0.83571300    0.01492800
| 57> H                  -6.40094900   -1.23393300    0.02187300
| 58> C                  -5.18255600    0.54027400    0.01893300
| 59> H                  -6.02502100    1.21919700    0.02905900
| 60> H                  -3.75312400    2.11601700    0.01476600
| 61> H                  -4.44577800   -2.77198100   -0.00265200
| 62> *
| 63>
| 64>
| 65>                          ****END OF INPUT****

CARTESIAN COORDINATES (ANGSTROEM)
---------------------------------
  C      1.886295    4.209675    0.009753
  C      0.583128    3.798312    0.002105
  C      0.257691    2.422194   -0.001347
  C      1.309205    1.456695    0.001075
  C      2.646918    1.922505    0.012439
  C      2.926955    3.261583    0.016028
  C     -1.073714    1.989765   -0.003384
  C      0.984682    0.075045   -0.005817
  C     -0.352281   -0.319165   -0.013476
  C     -1.401590    0.652765   -0.006942
  C     -2.782271    0.196624   -0.002481
  C     -3.031320   -1.174160   -0.007267
  C     -0.687965   -1.748307   -0.038920
  H     -1.848917    2.744472   -0.000885
  H      2.123162    5.266115    0.012395
  H     -0.226287    4.518462   -0.000722
  H      3.456406    1.204718    0.018495
  H      3.956167    3.596769    0.024457
  C      2.114116   -0.890343    0.002711
  C      2.725594   -1.271459   -1.188611
  C      2.626034   -1.365126    1.207390
  C      3.809453   -2.136358   -1.176987
  H      2.341822   -0.893230   -2.128943
  C      3.710942   -2.228305    1.218282
  H      2.162677   -1.061775    2.138978
  C      4.303908   -2.620593    0.026087
  H      4.271141   -2.430199   -2.111615
  H      4.095606   -2.594126    2.162332
  H      5.151070   -3.294804    0.035040
  O      0.084594   -2.673122   -0.074612
  O     -2.015300   -2.086808   -0.024493
  C     -3.897821    1.044254    0.010555
  C     -4.316112   -1.697871    0.001658
  C     -5.394678   -0.835713    0.014928
  H     -6.400949   -1.233933    0.021873
  C     -5.182556    0.540274    0.018933
  H     -6.025021    1.219197    0.029059
  H     -3.753124    2.116017    0.014766
  H     -4.445778   -2.771981   -0.002652

 Total Charge           Charge          ....    0
 Multiplicity           Mult            ....    1
 Number of Electrons    NEL             ....  168
 Basis Dimension        Dim             ....  859

ORBITAL ENERGIES
----------------

  NO   OCC          E(Eh)            E(eV)
   0   2.0000     -20.621282      -561.1336
   1   2.0000     -20.541841      -558.9719
   2   2.0000     -11.394392      -310.0572
   3   2.0000     -11.312401      -307.8261
   4   2.0000     -11.275491      -306.8217
   5   2.0000     -11.266152      -306.5676
   6   2.0000     -11.260598      -306.4164
   7   2.0000     -11.255164      -306.2686
   8   2.0000     -11.251120      -306.1585
   9   2.0000     -11.250347      -306.1375
  10   2.0000     -11.243151      -305.9417
  11   2.0000     -11.241893      -305.9075
  12   2.0000     -11.240293      -305.8639
  13   2.0000     -11.239424      -305.8403
  14   2.0000     -11.237867      -305.7979
  15   2.0000     -11.236367      -305.7571
  16   2.0000     -11.234275      -305.7002
  17   2.0000     -11.234022      -305.6933
  18   2.0000     -11.233016      -305.6659
  19   2.0000     -11.230039      -305.5849
  20   2.0000     -11.229157      -305.5609
  21   2.0000     -11.228886      -305.5535
  22   2.0000     -11.227345      -305.5116
  23   2.0000     -11.227215      -305.5081
  24   2.0000     -11.226462      -305.4876
  25   2.0000      -1.480102       -40.2756
  26   2.0000      -1.377018       -37.4706
  27   2.0000      -1.203286       -32.7431
  28   2.0000      -1.169345       -31.8195
  29   2.0000      -1.157229       -31.4898
  30   2.0000      -1.132497       -30.8168
  31   2.0000      -1.085544       -29.5392
  32   2.0000      -1.053557       -28.6688
  33   2.0000      -1.029478       -28.0135
  34   2.0000      -1.021921       -27.8079
  35   2.0000      -1.016617       -27.6636
  36   2.0000      -1.014096       -27.5950
  37   2.0000      -0.977589       -26.6016
  38   2.0000      -0.913652       -24.8617
  39   2.0000      -0.880890       -23.9702
  40   2.0000      -0.863574       -23.4990
  41   2.0000      -0.841252       -22.8916
  42   2.0000      -0.830866       -22.6090
  43   2.0000      -0.825267       -22.4567
  44   2.0000      -0.784892       -21.3580
  45   2.0000      -0.779051       -21.1991
  46   2.0000      -0.758395       -20.6370
  47   2.0000      -0.717359       -19.5203
  48   2.0000      -0.711998       -19.3744
  49   2.0000      -0.691674       -18.8214
  50   2.0000      -0.672951       -18.3119
  51   2.0000      -0.665947       -18.1214
  52   2.0000      -0.658407       -17.9162
  53   2.0000      -0.649509       -17.6740
  54   2.0000      -0.638207       -17.3665
  55   2.0000      -0.634697       -17.2710
  56   2.0000      -0.628474       -17.1016
  57   2.0000      -0.618733       -16.8366
  58   2.0000      -0.605280       -16.4705
  59   2.0000      -0.602964       -16.4075
  60   2.0000      -0.591677       -16.1004
  61   2.0000      -0.584229       -15.8977
  62   2.0000      -0.582460       -15.8495
  63   2.0000      -0.564264       -15.3544
  64   2.0000      -0.553971       -15.0743
  65   2.0000      -0.549157       -14.9433
  66   2.0000      -0.540520       -14.7083
  67   2.0000      -0.522886       -14.2285
  68   2.0000      -0.513450       -13.9717
  69   2.0000      -0.508873       -13.8471
  70   2.0000      -0.504287       -13.7224
  71   2.0000      -0.496741       -13.5170
  72   2.0000      -0.494011       -13.4427
  73   2.0000      -0.490407       -13.3447
  74   2.0000      -0.473501       -12.8846
  75   2.0000      -0.458969       -12.4892
  76   2.0000      -0.455539       -12.3958
  77   2.0000      -0.399903       -10.8819
  78   2.0000      -0.368373       -10.0239
  79   2.0000      -0.339768        -9.2456
  80   2.0000      -0.334644        -9.1061
  81   2.0000      -0.329598        -8.9688
  82   2.0000      -0.322313        -8.7706
  83   2.0000      -0.281483        -7.6595
  84   0.0000       0.051424         1.3993
  85   0.0000       0.064307         1.7499
  86   0.0000       0.117821         3.2061
  87   0.0000       0.123906         3.3717
  88   0.0000       0.128367         3.4930

E(0)                                       ...  -1029.277761312
E(0)                                       ...  -1029.277761312
E(CORR)(strong-pairs)                      ...     -4.005523575
E(CORR)(weak-pairs)                        ...     -0.009032145
E(CORR)(corrected)                         ...     -4.014555720
E(TOT)                                     ...  -1033.292317032

MULLIKEN ATOMIC CHARGES
-----------------------
   0 C :   -0.131484
   1 C :   -0.277266
   2 C :    0.158122
   3 C :    0.109488
   4 C :   -0.277139
   5 C :   -0.164795
   6 C :   -0.396567
   7 C :    0.291426
   8 C :   -0.125411
   9 C :    0.153026
  10 C :    0.116837
  11 C :    0.178065
  12 C :    0.303658
  13 H :    0.168069
  14 H :    0.175032
  15 H :    0.172069
  16 H :    0.182195
  17 H :    0.171398
  18 C :    0.105353
  19 C :   -0.253039
  20 C :   -0.276608
  21 C :   -0.192694
  22 H :    0.165898
  23 C :   -0.186771
  24 H :    0.165745
  25 C :   -0.155155
  26 H :    0.167552
  27 H :    0.167973
  28 H :    0.169263
  29 O :   -0.325196
  30 O :   -0.185693
  31 C :   -0.257635
  32 C :   -0.311319
  33 C :   -0.117859
  34 H :    0.176006
  35 C :   -0.170829
  36 H :    0.172607
  37 H :    0.169795
  38 H :    0.165882
Sum of atomic charges:    0.0000000

LOEWDIN ATOMIC CHARGES
----------------------
   0 C :   -0.133928
   1 C :   -0.101200
   2 C :   -0.088542
   3 C :   -0.052911
   4 C :   -0.095486
   5 C :   -0.139102
   6 C :   -0.049014
   7 C :   -0.000451
   8 C :   -0.051810
   9 C :   -0.065568
  10 C :   -0.090418
  11 C :   -0.189465
  12 C :   -0.396640
  13 H :    0.169047
  14 H :    0.159452
  15 H :    0.162915
  16 H :    0.167044
  17 H :    0.158729
  18 C :   -0.106495
  19 C :   -0.107069
  20 C :   -0.106770
  21 C :   -0.150925
  22 H :    0.161099
  23 C :   -0.151175
  24 H :    0.161036
  25 C :   -0.153846
  26 H :    0.155834
  27 H :    0.155903
  28 H :    0.154616
  29 O :    0.134012
  30 O :    0.345826
  31 C :   -0.094237
  32 C :   -0.117589
  33 C :   -0.135735
  34 H :    0.160024
  35 C :   -0.152039
  36 H :    0.158278
  37 H :    0.163275
  38 H :    0.163324

  Mayer bond orders larger than 0.100000
B(  0-C ,  1-C ) :   1.4202 B(  0-C ,  5-C ) :   1.1129 B(  0-C , 14-H ) :   0.9332
B(  1-C ,  2-C ) :   1.1316 B(  1-C , 15-H ) :   0.9438 B(  2-C ,  3-C ) :   1.2170
B(  2-C ,  6-C ) :   1.1627 B(  3-C ,  4-C ) :   1.1359 B(  3-C ,  7-C ) :   1.1470
B(  4-C ,  5-C ) :   1.4513 B(  4-C , 16-H ) :   0.9236 B(  5-C , 17-H ) :   0.9345
B(  6-C ,  9-C ) :   1.3558 B(  6-C , 13-H ) :   0.9346 B(  7-C ,  8-C ) :   1.3042
B(  7-C , 18-C ) :   0.6640 B(  8-C ,  9-C ) :   1.1717 B(  8-C , 12-C ) :   0.9076
B(  9-C , 10-C ) :   0.9399 B( 10-C , 11-C ) :   1.2758 B( 10-C , 31-C ) :   1.2306
B( 11-C , 30-O ) :   0.9829 B( 11-C , 32-C ) :   1.2830 B( 12-C , 29-O ) :   2.0009
B( 12-C , 30-O ) :   1.1190 B( 18-C , 19-C ) :   1.3094 B( 18-C , 20-C ) :   1.3032
B( 19-C , 21-C ) :   1.3369 B( 19-C , 22-H ) :   0.9350 B( 20-C , 23-C ) :   1.3340
B( 20-C , 24-H ) :   0.9385 B( 21-C , 25-C ) :   1.2845 B( 21-C , 26-H ) :   0.9332
B( 23-C , 25-C ) :   1.2870 B( 23-C , 27-H ) :   0.9333 B( 25-C , 28-H ) :   0.9311
B( 31-C , 35-C ) :   1.3530 B( 31-C , 37-H ) :   0.9159 B( 32-C , 33-C ) :   1.3184
B( 32-C , 38-H ) :   0.9445 B( 33-C , 34-H ) :   0.9297 B( 33-C , 35-C ) :   1.2419
B( 35-C , 36-H ) :   0.9346

-----------------------------------------------------------------------------
         ABSORPTION SPECTRUM VIA TRANSITION ELECTRIC DIPOLE MOMENTS
-----------------------------------------------------------------------------
State   Energy  Wavelength   fosc         T2         TX        TY        TZ
        (cm-1)    (nm)                  (au**2)     (au)      (au)      (au)
-----------------------------------------------------------------------------
   1   27461.9    364.1   0.044130013   0.52903   0.67424   0.26740   0.00259
   2   33114.6    302.0   0.111123735   1.10475   0.56773   0.88444   0.00636
   3   35127.1    284.7   0.076126903   0.71346   0.83516   0.12597   0.00957
   4   35468.5    281.9   0.002385763   0.02214   0.13177   0.04286   0.04332
   5   38361.9    260.7   0.000855512   0.00734   0.06494   0.02281   0.03237
   6   39298.0    254.5   1.076214417   9.01578   2.38945   1.81556   0.01839
   7   39752.9    251.6   0.414591357   3.43342   1.83406   0.21375   0.00769
   8   42007.3    238.1   0.110319205   0.86457   0.27308   0.88856   0.01511
   9   41803.6    239.2   0.103080092   0.81178   0.37056   0.82074   0.02528
  10   44845.1    223.0   0.083506933   0.61303   0.12277   0.76831   0.04086
  11   42363.2    236.1   0.010556419   0.08204   0.08413   0.21230   0.17023
  12   46401.9    215.5   0.027595238   0.19578   0.25374   0.33163   0.00572
  13   48105.6    207.9   0.192627426   1.31825   0.08209   1.13464   0.00286
  14   48240.8    207.3   0.109686602   0.74854   0.77062   0.37147   0.01300
  15   48428.9    206.5   0.002750868   0.01870   0.03354   0.12699   0.03444
  16   51157.4    195.5   0.035872216   0.23085   0.41099   0.23537   0.01249
  17   51146.8    195.5   0.060586734   0.38997   0.58053   0.21164   0.01053
  18   52179.1    191.6   0.115971073   0.73169   0.79495   0.31578   0.00497
  19   52109.3    191.9   0.003746295   0.02367   0.10146   0.08427   0.07433
  20   55054.1    181.6   0.290789216   1.73886   0.81114   1.03187   0.12364
  21   57077.7    175.2   0.013962622   0.08053   0.02143   0.03908   0.28000
  22   59369.1    168.4   0.002371623   0.01315   0.02546   0.00608   0.11102
  23   65501.6    152.7   0.005022062   0.02524   0.05178   0.09217   0.11655

FINAL SINGLE POINT ENERGY     -1033.167191375315

DIPOLE MOMENT
-------------
                                X             Y             Z
Electronic contribution:     -5.23775      -3.81178      -0.15505
Nuclear contribution   :      4.72501       6.17663       0.20653
                        -----------------------------------------
Total Dipole Moment    :     -0.51274       2.36485       0.05148
                        -----------------------------------------
Magnitude (a.u.)       :      2.42034
Magnitude (Debye)      :      6.15202

Rotational constants in cm-1:     0.011605     0.006121     0.004181
Rotational constants in MHz :   347.917303   183.508149   125.354082

                             ****ORCA TERMINATED NORMALLY****
TOTAL RUN TIME: 0 days 10 hours 54 minutes 35 seconds 68 msec
