 Gaussian 09, Revision E.01,

 ----------------------------------------------------------------------
 #p cam-b3lyp/def2TZVP opt freq=noraman nosymm int=ultrafine scrf=(SMD,
 solvent=Acetonitrile) EmpiricalDispersion=GD3BJ
 ----------------------------------------------------------------------

 -----
 Title
 -----
 Symbolic Z-matrix:
 Charge =  0 Multiplicity = 1

 SCF Done:  E(RCAM-B3LYP) =  -1035.26127133     A.U. after   14 cycles
 SCF Done:  E(RCAM-B3LYP) =  -1035.26599698     A.U. after   12 cycles
 SCF Done:  E(RCAM-B3LYP) =  -1035.26611197     A.U. after   10 cycles
 SCF Done:  E(RCAM-B3LYP) =  -1035.26613102     A.U. after    9 cycles
 SCF Done:  E(RCAM-B3LYP) =  -1035.26613404     A.U. after    8 cycles
 SCF Done:  E(RCAM-B3LYP) =  -1035.26613348     A.U. after    9 cycles
 SCF Done:  E(RCAM-B3LYP) =  -1035.26613671     A.U. after    8 cycles
 Optimization completed.
    -- Stationary point found.
 Normal termination of Gaussian 09 at Thu Feb 25 00:31:33 2021.

 ----------------------------------------------------------------------
 #P Geom=AllCheck Guess=TCheck SCRF=Check GenChk RCAM-B3LYP/def2TZVP Fr
 eq
 ----------------------------------------------------------------------

 Structure from the checkpoint file:  "cp.chk"
 -----
 Title
 -----
 Charge =  0 Multiplicity = 1

 SCF Done:  E(RCAM-B3LYP) =  -1035.26613671     A.U. after    1 cycles

  Exact polarizability: 536.674  23.667 464.315  -0.017  -0.015 249.039
 Approx polarizability: 414.464   8.670 387.903  -0.015  -0.011 232.159

                      1                      2                      3
                      A                      A                      A
 Frequencies --     13.5223                42.6564                56.1417
 Red. masses --      5.1414                 5.1056                 4.7735
 Frc consts  --      0.0006                 0.0055                 0.0089
 IR Inten    --      1.8945                 0.2172                 1.3577

                      4                      5                      6
                      A                      A                      A
 Frequencies --     63.8202                70.4066                98.0569
 Red. masses --      5.3967                 4.4486                 6.2483
 Frc consts  --      0.0130                 0.0130                 0.0354
 IR Inten    --      1.0159                 0.0003                 0.0892

                      7                      8                      9
                      A                      A                      A
 Frequencies --    144.1117               160.3402               207.0830
 Red. masses --      5.0268                 5.4318                 4.4575
 Frc consts  --      0.0615                 0.0823                 0.1126
 IR Inten    --      0.0001                 1.0104                 0.3109

                     10                     11                     12
                      A                      A                      A
 Frequencies --    239.3256               255.8005               261.4352
 Red. masses --      6.5996                 6.1617                 4.3639
 Frc consts  --      0.2227                 0.2375                 0.1757
 IR Inten    --      0.0226                 0.7163                 1.7265

                     13                     14                     15
                      A                      A                      A
 Frequencies --    312.1027               316.4737               339.4782
 Red. masses --      8.6363                 4.1843                 5.3688
 Frc consts  --      0.4956                 0.2469                 0.3645
 IR Inten    --     11.4514                 1.5164                 0.2072

                     16                     17                     18
                      A                      A                      A
 Frequencies --    370.1726               374.4011               420.1535
 Red. masses --      6.5568                 5.9695                 2.8405
 Frc consts  --      0.5294                 0.4930                 0.2954
 IR Inten    --      2.0426                 4.6617                 0.1020

                     19                     20                     21
                      A                      A                      A
 Frequencies --    457.9639               462.9226               483.2411
 Red. masses --      3.1573                 7.4229                 3.4013
 Frc consts  --      0.3901                 0.9372                 0.4680
 IR Inten    --      0.7395                 0.0390                25.7150

                     22                     23                     24
                      A                      A                      A
 Frequencies --    502.5930               536.3848               562.0972
 Red. masses --      5.7988                 3.5296                 3.2921
 Frc consts  --      0.8630                 0.5983                 0.6128
 IR Inten    --      8.8175                 6.5839                 4.5386

                     25                     26                     27
                      A                      A                      A
 Frequencies --    571.7475               589.6726               621.1481
 Red. masses --      5.1033                 6.6639                 7.0449
 Frc consts  --      0.9829                 1.3652                 1.6015
 IR Inten    --     14.1148                15.8367                38.2773

                     28                     29                     30
                      A                      A                      A
 Frequencies --    635.4547               645.7625               662.1248
 Red. masses --      5.8445                 7.0616                 4.1054
 Frc consts  --      1.3905                 1.7350                 1.0604
 IR Inten    --      0.1293                12.6985                 4.8648

                     31                     32                     33
                      A                      A                      A
 Frequencies --    675.5139               692.2313               701.5116
 Red. masses --      5.7877                 6.1775                 5.0144
 Frc consts  --      1.5560                 1.7441                 1.4539
 IR Inten    --      4.0381                 2.8984                 0.3987

                     34                     35                     36
                      A                      A                      A
 Frequencies --    722.0013               728.2090               769.8534
 Red. masses --      7.1123                 1.5327                 2.0511
 Frc consts  --      2.1844                 0.4789                 0.7162
 IR Inten    --      9.5797                94.0341                 8.1530

                     37                     38                     39
                      A                      A                      A
 Frequencies --    780.2854               785.1901               789.8367
 Red. masses --      2.8547                 1.3758                 1.8258
 Frc consts  --      1.0241                 0.4997                 0.6711
 IR Inten    --     47.4059               110.8704               138.1683

                     40                     41                     42
                      A                      A                      A
 Frequencies --    811.6113               832.0969               865.0799
 Red. masses --      3.3072                 3.8288                 3.1436
 Frc consts  --      1.2835                 1.5619                 1.3861
 IR Inten    --      6.6033                13.2758                 0.4248

                     43                     44                     45
                      A                      A                      A
 Frequencies --    878.3304               882.1684               900.0848
 Red. masses --      1.2541                 5.4889                 1.5703
 Frc consts  --      0.5700                 2.5167                 0.7496
 IR Inten    --      0.0216                 0.1052                 8.0207

                     46                     47                     48
                      A                      A                      A
 Frequencies --    905.4298               920.2392               945.8916
 Red. masses --      1.6969                 6.0639                 2.4613
 Frc consts  --      0.8196                 3.0255                 1.2975
 IR Inten    --      2.4645                17.5891                 5.6372

                     49                     50                     51
                      A                      A                      A
 Frequencies --    949.8986               970.8748               993.0710
 Red. masses --      2.0252                 2.6170                 1.3833
 Frc consts  --      1.0767                 1.4534                 0.8037
 IR Inten    --     30.6291                16.0047                 3.7089

                     52                     53                     54
                      A                      A                      A
 Frequencies --   1011.4116              1013.7588              1019.1977
 Red. masses --      1.3822                 1.3641                 1.3166
 Frc consts  --      0.8330                 0.8260                 0.8058
 IR Inten    --      0.2828                 3.0344                 0.0198

                     55                     56                     57
                      A                      A                      A
 Frequencies --   1020.7395              1031.9668              1033.8277
 Red. masses --      6.2040                 1.3536                 5.6986
 Frc consts  --      3.8085                 0.8494                 3.5885
 IR Inten    --     53.4160                 0.5958                 1.5076

                     58                     59                     60
                      A                      A                      A
 Frequencies --   1035.6574              1057.6130              1066.1186
 Red. masses --      1.3440                 2.3029                 2.0727
 Frc consts  --      0.8493                 1.5177                 1.3880
 IR Inten    --      0.1243                12.8148                 8.4494

                     61                     62                     63
                      A                      A                      A
 Frequencies --   1077.7896              1110.8070              1138.7099
 Red. masses --      1.8987                 1.5151                 2.8802
 Frc consts  --      1.2995                 1.1014                 2.2004
 IR Inten    --     10.0772                16.0716                82.9970

                     64                     65                     66
                      A                      A                      A
 Frequencies --   1146.5845              1168.4940              1174.4056
 Red. masses --      2.0002                 1.4909                 1.1332
 Frc consts  --      1.5493                 1.1994                 0.9208
 IR Inten    --     93.7874                31.0290                 0.0116

                     67                     68                     69
                      A                      A                      A
 Frequencies --   1176.7618              1185.1698              1200.7647
 Red. masses --      1.2859                 1.3869                 1.1236
 Frc consts  --      1.0491                 1.1478                 0.9545
 IR Inten    --     28.5356               184.2011                 0.1636

                     70                     71                     72
                      A                      A                      A
 Frequencies --   1216.9246              1235.9387              1259.6934
 Red. masses --      2.6813                 1.8543                 2.7055
 Frc consts  --      2.3395                 1.6689                 2.5294
 IR Inten    --    101.2709               219.8560                97.8260

                     73                     74                     75
                      A                      A                      A
 Frequencies --   1278.2150              1284.6395              1306.5991
 Red. masses --      2.9269                 2.8646                 5.1928
 Frc consts  --      2.8175                 2.7853                 5.2232
 IR Inten    --     84.4076               379.3597                 0.0175

                     76                     77                     78
                      A                      A                      A
 Frequencies --   1317.5086              1343.3814              1362.8459
 Red. masses --      2.0942                 5.7954                 1.3891
 Frc consts  --      2.1418                 6.1622                 1.5201
 IR Inten    --     47.9861               111.7051                 0.0227

                     79                     80                     81
                      A                      A                      A
 Frequencies --   1367.3850              1385.4935              1430.6607
 Red. masses --      2.4225                 2.6372                 3.4063
 Frc consts  --      2.6686                 2.9826                 4.1078
 IR Inten    --     14.4704                44.7870                 3.0831

                     82                     83                     84
                      A                      A                      A
 Frequencies --   1431.7063              1461.4992              1494.2871
 Red. masses --      4.8212                 3.2069                 2.2638
 Frc consts  --      5.8226                 4.0358                 2.9783
 IR Inten    --      9.1957                21.0784                 9.6863

                     85                     86                     87
                      A                      A                      A
 Frequencies --   1497.5099              1520.7982              1548.1598
 Red. masses --      2.8490                 2.7457                 2.7673
 Frc consts  --      3.7643                 3.7415                 3.9078
 IR Inten    --     27.3306                83.7240                29.2864

                     88                     89                     90
                      A                      A                      A
 Frequencies --   1552.5417              1563.2676              1641.0609
 Red. masses --      2.8802                 3.5261                 8.6418
 Frc consts  --      4.0903                 5.0770                13.7121
 IR Inten    --     53.1144                26.0230                53.6816

                     91                     92                     93
                      A                      A                      A
 Frequencies --   1654.4296              1660.9413              1677.2558
 Red. masses --      5.9392                 5.7644                 7.2409
 Frc consts  --      9.5780                 9.3695                12.0017
 IR Inten    --      1.6872                35.1210               110.2080

                     94                     95                     96
                      A                      A                      A
 Frequencies --   1682.3102              1689.6214              1699.9543
 Red. masses --      6.1309                 6.9407                 6.1918
 Frc consts  --     10.2233                11.6743                10.5424
 IR Inten    --     19.7790                61.0521                64.8303

                     97                     98                     99
                      A                      A                      A
 Frequencies --   1802.6998              3189.4135              3193.4515
 Red. masses --     12.9549                 1.0867                 1.0886
 Frc consts  --     24.8045                 6.5128                 6.5410
 IR Inten    --    934.2067                 2.4066                 0.0422

                    100                    101                    102
                      A                      A                      A
 Frequencies --   3196.4102              3201.3759              3204.5446
 Red. masses --      1.0878                 1.0922                 1.0879
 Frc consts  --      6.5479                 6.5951                 6.5824
 IR Inten    --      0.0804                 9.0095                 0.4418

                    103                    104                    105
                      A                      A                      A
 Frequencies --   3205.9202              3207.7461              3213.9519
 Red. masses --      1.0915                 1.0955                 1.0913
 Frc consts  --      6.6096                 6.6417                 6.6418
 IR Inten    --      9.1636                29.2369                 8.8494

                    106                    107                    108
                      A                      A                      A
 Frequencies --   3216.6332              3217.1456              3219.3409
 Red. masses --      1.0989                 1.0963                 1.0937
 Frc consts  --      6.6988                 6.6852                 6.6788
 IR Inten    --     15.2632                15.6754                 0.4376

                    109                    110                    111
                      A                      A                      A
 Frequencies --   3225.7370              3235.9094              3239.5738
 Red. masses --      1.0972                 1.0941                 1.0914
 Frc consts  --      6.7266                 6.7501                 6.7485
 IR Inten    --      4.7161                 7.8567                 6.9094

 - Thermochemistry -
 -------------------
 Temperature   298.150 Kelvin.  Pressure   1.00000 Atm.
 Atom     1 has atomic number  6 and mass  12.00000

 Molecular mass:   322.09938 amu.
 Principal axes and moments of inertia in atomic units:
                           1         2         3
     Eigenvalues --  5161.156359815.45980**********
           X            0.99996  -0.00844   0.00001
           Y            0.00844   0.99996   0.00002
           Z           -0.00001  -0.00002   1.00000
 This molecule is an asymmetric top.
 Rotational symmetry number  1.
 Warning -- assumption of classical behavior for rotation
           may cause significant error
 Rotational temperatures (Kelvin)      0.01678     0.00882     0.00603
 Rotational constants (GHZ):           0.34968     0.18387     0.12574
 Zero-point vibrational energy     801379.9 (Joules/Mol)
                                  191.53440 (Kcal/Mol)
 Warning -- explicit consideration of  26 degrees of freedom as
           vibrations may cause significant error
 Vibrational temperatures:     19.46    61.37    80.78    91.82   101.30
          (Kelvin)            141.08   207.34   230.69   297.95   344.34
                              368.04   376.15   449.05   455.33   488.43
                              532.60   538.68   604.51   658.91   666.04
                              695.28   723.12   771.74   808.73   822.62
                              848.41   893.69   914.28   929.11   952.65
                              971.91   995.97  1009.32  1038.80  1047.73
                             1107.65  1122.66  1129.71  1136.40  1167.73
                             1197.20  1244.66  1263.72  1269.24  1295.02
                             1302.71  1324.02  1360.93  1366.69  1396.87
                             1428.81  1455.19  1458.57  1466.40  1468.61
                             1484.77  1487.45  1490.08  1521.67  1533.90
                             1550.70  1598.20  1638.35  1649.68  1681.20
                             1689.71  1693.10  1705.19  1727.63  1750.88
                             1778.24  1812.42  1839.06  1848.31  1879.90
                             1895.60  1932.82  1960.83  1967.36  1993.41
                             2058.40  2059.90  2102.77  2149.94  2154.58
                             2188.09  2227.45  2233.76  2249.19  2361.12
                             2380.35  2389.72  2413.19  2420.47  2430.99
                             2445.85  2593.68  4588.85  4594.66  4598.92
                             4606.06  4610.62  4612.60  4615.23  4624.15
                             4628.01  4628.75  4631.91  4641.11  4655.75
                             4661.02

 Zero-point correction=                           0.305230 (Hartree/Particle)
 Thermal correction to Energy=                    0.322860
 Thermal correction to Enthalpy=                  0.323804
 Thermal correction to Gibbs Free Energy=         0.257807
 Sum of electronic and zero-point Energies=          -1034.960907
 Sum of electronic and thermal Energies=             -1034.943276
 Sum of electronic and thermal Enthalpies=           -1034.942332
 Sum of electronic and thermal Free Energies=        -1035.008330

                     E (Thermal)             CV                S
                      KCal/Mol        Cal/Mol-Kelvin    Cal/Mol-Kelvin
 Total                  202.598             72.165            138.904
 Electronic               0.000              0.000              0.000
 Translational            0.889              2.981             43.205
 Rotational               0.889              2.981             34.941
 Vibrational            200.820             66.203             60.759
 Vibration     1          0.593              1.987              7.412
 Vibration     2          0.595              1.980              5.132
 Vibration     3          0.596              1.975              4.588
 Vibration     4          0.597              1.972              4.335
 Vibration     5          0.598              1.968              4.142
 Vibration     6          0.603              1.951              3.493
 Vibration     7          0.616              1.909              2.749
 Vibration     8          0.622              1.891              2.546
 Vibration     9          0.641              1.830              2.069
 Vibration    10          0.657              1.780              1.808
 Vibration    11          0.666              1.753              1.690
 Vibration    12          0.669              1.743              1.652
 Vibration    13          0.700              1.651              1.351
 Vibration    14          0.703              1.642              1.328
 Vibration    15          0.719              1.597              1.215
 Vibration    16          0.742              1.533              1.079
 Vibration    17          0.746              1.525              1.062
 Vibration    18          0.783              1.426              0.891
 Vibration    19          0.816              1.343              0.772
 Vibration    20          0.821              1.332              0.758
 Vibration    21          0.839              1.287              0.701
 Vibration    22          0.858              1.244              0.652
 Vibration    23          0.891              1.170              0.573
 Vibration    24          0.918              1.113              0.520
 Vibration    25          0.928              1.092              0.501
 Vibration    26          0.947              1.054              0.468

 Optimization completed.
    -- Stationary point found.
 Normal termination of Gaussian 09 at Thu Feb 25 04:54:47 2021.
 Gaussian 09:  ES64L-G09RevE.01 30-Nov-2015

 ----------------------------------------------------------------------
 #p cam-b3lyp chkbasis geom=allcheck Guess=Read int=ultrafine scrf=(SMD
 ,solvent=Acetonitrile) td=(NStates=30) EmpiricalDispersion=GD3BJ
 ----------------------------------------------------------------------

 Structure from the checkpoint file:  "cp.chk"
 -----
 Title
 -----
 Charge =  0 Multiplicity = 1

                         Standard orientation:
 ---------------------------------------------------------------------
 Center     Atomic      Atomic             Coordinates (Angstroms)
 Number     Number       Type             X           Y           Z
 ---------------------------------------------------------------------
      1          6           0        1.880538    4.202293    0.000012
      2          6           0        0.583374    3.791486   -0.000048
      3          6           0        0.263231    2.412064   -0.000065
      4          6           0        1.306620    1.454376   -0.000035
      5          6           0        2.647194    1.919333    0.000050
      6          6           0        2.924087    3.252834    0.000069
      7          6           0       -1.071177    1.982275   -0.000077
      8          6           0        0.981411    0.072186   -0.000077
      9          6           0       -0.347430   -0.317298   -0.000128
     10          6           0       -1.394326    0.653130   -0.000090
     11          6           0       -2.784675    0.195086   -0.000034
     12          6           0       -3.032213   -1.167647    0.000088
     13          6           0       -0.695768   -1.753075   -0.000262
     14          1           0       -1.841763    2.739348   -0.000056
     15          1           0        2.117911    5.258153    0.000025
     16          1           0       -0.227291    4.509166   -0.000078
     17          1           0        3.456382    1.204559    0.000099
     18          1           0        3.952217    3.590024    0.000132
     19          6           0        2.115489   -0.892400    0.000009
     20          6           0        2.673745   -1.316155   -1.197726
     21          6           0        2.673059   -1.316725    1.197863
     22          6           0        3.760349   -2.174575   -1.198024
     23          1           0        2.250662   -0.976611   -2.134698
     24          6           0        3.759668   -2.175138    1.198375
     25          1           0        2.249432   -0.977632    2.134752
     26          6           0        4.304607   -2.609754    0.000228
     27          1           0        4.184516   -2.503312   -2.138165
     28          1           0        4.183301   -2.504315    2.138603
     29          1           0        5.154186   -3.280352    0.000311
     30          8           0        0.076037   -2.672748   -0.000663
     31          8           0       -2.012507   -2.080238    0.000065
     32          6           0       -3.894925    1.043886   -0.000055
     33          6           0       -4.313163   -1.693085    0.000217
     34          6           0       -5.390536   -0.833002    0.000208
     35          1           0       -6.396576   -1.230607    0.000305
     36          6           0       -5.178248    0.541118    0.000063
     37          1           0       -6.020040    1.220341    0.000045
     38          1           0       -3.754122    2.114701   -0.000164
     39          1           0       -4.442532   -2.766864    0.000312
 ---------------------------------------------------------------------

 SCF Done:  E(RCAM-B3LYP) =  -1035.26613635     A.U. after    4 cycles

 Excitation energies and oscillator strengths:

 Excited State   1:      Singlet-A      3.8802 eV  319.53 nm  f=0.0864  <S**2>=0.000
      83 -> 86        -0.12730
      84 -> 85         0.65275
      84 -> 86         0.16763
 This state for optimization and/or second-order correction.
 Total Energy, E(TD-HF/TD-KS) =  -1035.12354326
 Copying the excited state density for this state as the 1-particle RhoCI density.

 Excited State   2:      Singlet-A      4.1811 eV  296.53 nm  f=0.2223  <S**2>=0.000
      81 -> 85         0.13844
      83 -> 85         0.26138
      84 -> 85        -0.19014
      84 -> 86         0.58580

 Excited State   3:      Singlet-A      4.5479 eV  272.62 nm  f=0.0000  <S**2>=0.000
      77 -> 85         0.18898
      77 -> 86         0.10781
      82 -> 85         0.61748
      82 -> 86         0.18054

 Excited State   4:      Singlet-A      4.7391 eV  261.62 nm  f=0.8680  <S**2>=0.000
      81 -> 86         0.11598
      83 -> 85         0.54798
      83 -> 86        -0.19855
      84 -> 86        -0.26508
      84 -> 87         0.16960

 Excited State   5:      Singlet-A      5.0129 eV  247.33 nm  f=0.4198  <S**2>=0.000
      81 -> 85        -0.31447
      81 -> 86         0.34627
      83 -> 85        -0.17841
      83 -> 86        -0.25923
      83 -> 87         0.10615
      84 -> 86         0.16460
      84 -> 87         0.21067
      84 -> 89        -0.14376

 Excited State   6:      Singlet-A      5.2098 eV  237.98 nm  f=0.3009  <S**2>=0.000
      79 -> 85        -0.15881
      81 -> 85        -0.34571
      81 -> 86         0.10539
      83 -> 85         0.21994
      83 -> 86         0.47042
      84 -> 85         0.14484

 Excited State   7:      Singlet-A      5.3578 eV  231.41 nm  f=0.0660  <S**2>=0.000
      80 -> 85         0.32140
      81 -> 85         0.42218
      81 -> 86         0.28581
      83 -> 86         0.24205
      84 -> 87         0.13687
      84 -> 89        -0.12213

 Excited State   8:      Singlet-A      5.3685 eV  230.95 nm  f=0.0024  <S**2>=0.000
      77 -> 85         0.19146
      77 -> 86         0.12513
      80 -> 88        -0.30098
      81 -> 88        -0.12766
      82 -> 85        -0.18773
      82 -> 86         0.35224
      82 -> 87         0.23893
      82 -> 89         0.28569
      82 -> 90         0.12057

 Excited State   9:      Singlet-A      5.4154 eV  228.95 nm  f=0.1304  <S**2>=0.000
      79 -> 85        -0.12045
      80 -> 85         0.58097
      80 -> 86         0.15914
      81 -> 85        -0.11381
      81 -> 86        -0.12930
      83 -> 85         0.11807
      83 -> 86        -0.14928
      84 -> 87        -0.10891
      84 -> 89         0.11638

 Excited State  10:      Singlet-A      5.5126 eV  224.91 nm  f=0.0000  <S**2>=0.000
      77 -> 85         0.39154
      77 -> 86         0.22969
      77 -> 92        -0.13347
      80 -> 88         0.23290
      82 -> 85        -0.24175
      82 -> 87        -0.19496
      82 -> 89        -0.16684
      82 -> 90        -0.19343

 Excited State  11:      Singlet-A      5.7620 eV  215.17 nm  f=0.2365  <S**2>=0.000
      78 -> 85         0.10567
      79 -> 85         0.26612
      81 -> 87        -0.13861
      83 -> 85         0.10646
      84 -> 87        -0.33239
      84 -> 89        -0.24473
      84 -> 90         0.36905
      84 -> 91         0.12865

 Excited State  12:      Singlet-A      5.8286 eV  212.72 nm  f=0.0039  <S**2>=0.000
      77 -> 85        -0.30024
      80 -> 88         0.18267
      82 -> 86         0.55443
      82 -> 89        -0.14115

 Excited State  13:      Singlet-A      5.8349 eV  212.49 nm  f=0.0834  <S**2>=0.000
      78 -> 85         0.12460
      79 -> 85         0.28118
      80 -> 85         0.10345
      81 -> 85        -0.12299
      81 -> 86        -0.36846
      83 -> 86         0.14612
      84 -> 87         0.39740
      84 -> 89        -0.14810

 Excited State  14:      Singlet-A      5.9704 eV  207.67 nm  f=0.2226  <S**2>=0.000
      78 -> 85         0.18455
      79 -> 85         0.40652
      81 -> 86         0.18603
      83 -> 87        -0.11382
      84 -> 87        -0.10503
      84 -> 89         0.36360
      84 -> 90        -0.20920

 Excited State  15:      Singlet-A      6.0060 eV  206.43 nm  f=0.0230  <S**2>=0.000
      78 -> 85         0.14078
      80 -> 86         0.28744
      80 -> 87         0.19840
      80 -> 89         0.21541
      80 -> 90         0.12072
      81 -> 87         0.10392
      81 -> 89         0.10699
      82 -> 88         0.48757

 Excited State  16:      Singlet-A      6.1448 eV  201.77 nm  f=0.2614  <S**2>=0.000
      78 -> 86         0.12374
      79 -> 86         0.40571
      81 -> 87         0.26543
      81 -> 89        -0.19643
      83 -> 87        -0.10260
      84 -> 91         0.30804

 Excited State  17:      Singlet-A      6.1486 eV  201.65 nm  f=0.0006  <S**2>=0.000
      78 -> 88        -0.12003
      83 -> 88        -0.15668
      84 -> 88         0.66521

 Excited State  18:      Singlet-A      6.2471 eV  198.47 nm  f=0.0727  <S**2>=0.000
      78 -> 85         0.51705
      78 -> 86        -0.15266
      79 -> 86        -0.11812
      80 -> 87        -0.14371
      81 -> 87         0.15542
      81 -> 89        -0.11562
      83 -> 89         0.14753
      83 -> 90        -0.20590

 Excited State  19:      Singlet-A      6.2956 eV  196.94 nm  f=0.3127  <S**2>=0.000
      78 -> 85        -0.18732
      78 -> 86        -0.16074
      79 -> 85         0.15372
      80 -> 86         0.45548
      81 -> 87         0.18288
      81 -> 89        -0.10646
      82 -> 88        -0.28770
      84 -> 89        -0.12487

 Excited State  20:      Singlet-A      6.3432 eV  195.46 nm  f=0.0035  <S**2>=0.000
      79 -> 85        -0.13934
      80 -> 86         0.23615
      81 -> 86         0.15072
      83 -> 87        -0.15771
      84 -> 87         0.22897
      84 -> 89         0.28839
      84 -> 90         0.41929

 Excited State  21:      Singlet-A      6.4533 eV  192.13 nm  f=0.0779  <S**2>=0.000
      78 -> 85         0.25386
      78 -> 86         0.14671
      79 -> 85        -0.17162
      79 -> 86         0.22093
      80 -> 86         0.21909
      81 -> 87        -0.16486
      83 -> 89        -0.10915
      83 -> 90         0.16739
      84 -> 87        -0.10453
      84 -> 89        -0.23070
      84 -> 90        -0.20628
      84 -> 91        -0.18803

 Excited State  22:      Singlet-A      6.5513 eV  189.25 nm  f=0.0236  <S**2>=0.000
      78 -> 86        -0.29094
      79 -> 85         0.10478
      79 -> 86         0.38879
      80 -> 86        -0.11170
      83 -> 87         0.14710
      83 -> 92         0.10102
      84 -> 90         0.17201
      84 -> 91        -0.34039

 Excited State  23:      Singlet-A      6.5546 eV  189.16 nm  f=0.0117  <S**2>=0.000
      72 -> 85         0.12584
      76 -> 85         0.63284

 Excited State  24:      Singlet-A      6.6402 eV  186.72 nm  f=0.4745  <S**2>=0.000
      79 -> 86         0.18365
      80 -> 89        -0.16733
      81 -> 87        -0.23346
      81 -> 89         0.11103
      83 -> 87         0.36521
      84 -> 89         0.14264
      84 -> 91         0.33291
      84 -> 92        -0.13432

 Excited State  25:      Singlet-A      6.7578 eV  183.47 nm  f=0.3091  <S**2>=0.000
      74 -> 85        -0.17260
      77 -> 85         0.17596
      77 -> 86        -0.23315
      80 -> 88         0.39358
      81 -> 88         0.19058
      82 -> 87         0.29495
      82 -> 89         0.23255

 Excited State  26:      Singlet-A      6.8157 eV  181.91 nm  f=0.0792  <S**2>=0.000
      78 -> 86         0.20443
      78 -> 87         0.10642
      80 -> 89         0.21487
      81 -> 86        -0.12523
      81 -> 89        -0.10206
      81 -> 90         0.19548
      82 -> 88        -0.13628
      83 -> 87         0.31990
      83 -> 89        -0.16375
      83 -> 91         0.11971
      84 -> 87        -0.10069
      84 -> 89         0.14820
      84 -> 91        -0.13137
      84 -> 92        -0.14916

 Excited State  27:      Singlet-A      6.8495 eV  181.01 nm  f=0.1059  <S**2>=0.000
      72 -> 85        -0.12602
      74 -> 85         0.27547
      76 -> 85        -0.13904
      76 -> 86        -0.13421
      77 -> 85        -0.20975
      77 -> 86         0.37774
      80 -> 88         0.20423
      81 -> 88         0.10946
      82 -> 87         0.13579
      82 -> 89         0.19021

 Excited State  28:      Singlet-A      6.9419 eV  178.60 nm  f=0.3824  <S**2>=0.000
      78 -> 85        -0.10807
      80 -> 87        -0.28496
      80 -> 89        -0.22201
      80 -> 90        -0.15268
      81 -> 89        -0.28273
      82 -> 88         0.32411
      83 -> 89        -0.15730
      84 -> 91        -0.19064

 Excited State  29:      Singlet-A      6.9458 eV  178.50 nm  f=0.0044  <S**2>=0.000
      80 -> 88        -0.17414
      81 -> 88         0.11852
      83 -> 88         0.63587
      84 -> 88         0.16429

 Excited State  30:      Singlet-A      6.9811 eV  177.60 nm  f=0.0000  <S**2>=0.000
      69 -> 85         0.11490
      71 -> 85         0.17361
      72 -> 85        -0.15318
      74 -> 85         0.37640
      74 -> 86         0.16196
      76 -> 86         0.15540
      77 -> 86        -0.31442
      82 -> 87        -0.10033
      82 -> 89         0.18033
      82 -> 90        -0.19538

 The electronic state is 1-A.
 Alpha  occ. eigenvalues --  -19.26353 -19.18662 -10.38986 -10.32075 -10.28146
 Alpha  occ. eigenvalues --  -10.27711 -10.27659 -10.26817 -10.26699 -10.26626
 Alpha  occ. eigenvalues --  -10.25763 -10.25440 -10.25298 -10.25277 -10.25186
 Alpha  occ. eigenvalues --  -10.25125 -10.25079 -10.25008 -10.24921 -10.24696
 Alpha  occ. eigenvalues --  -10.24358 -10.24350 -10.24249 -10.24247 -10.24189
 Alpha  occ. eigenvalues --   -1.21210  -1.12039  -0.98558  -0.95820  -0.94652
 Alpha  occ. eigenvalues --   -0.92773  -0.88758  -0.86198  -0.84593  -0.83531
 Alpha  occ. eigenvalues --   -0.83010  -0.82768  -0.79984  -0.75534  -0.72778
 Alpha  occ. eigenvalues --   -0.71561  -0.69679  -0.68671  -0.68108  -0.65128
 Alpha  occ. eigenvalues --   -0.64366  -0.63287  -0.59982  -0.59763  -0.57637
 Alpha  occ. eigenvalues --   -0.56127  -0.55674  -0.54994  -0.53604  -0.52766
 Alpha  occ. eigenvalues --   -0.52696  -0.52210  -0.51363  -0.50547  -0.50236
 Alpha  occ. eigenvalues --   -0.49235  -0.48650  -0.48638  -0.47818  -0.46860
 Alpha  occ. eigenvalues --   -0.46199  -0.45622  -0.44030  -0.43251  -0.42702
 Alpha  occ. eigenvalues --   -0.42398  -0.41780  -0.40660  -0.40386  -0.40165
 Alpha  occ. eigenvalues --   -0.39136  -0.36092  -0.36017  -0.33859  -0.31316
 Alpha  occ. eigenvalues --   -0.30623  -0.30017  -0.29902  -0.26751
 Alpha virt. eigenvalues --   -0.03198  -0.01644   0.02770   0.03459   0.03525
 Alpha virt. eigenvalues --    0.04492   0.06364   0.09115   0.09215   0.10016
 Alpha virt. eigenvalues --    0.10544   0.11216   0.11562   0.12682   0.12990

 Mulliken charges:
               1
     1  C   -0.136630
     2  C   -0.224145
     3  C    0.095087
     4  C    0.033866
     5  C   -0.205392
     6  C   -0.176428
     7  C   -0.303031
     8  C    0.196113
     9  C   -0.147846
    10  C    0.138907
    11  C    0.078134
    12  C    0.213902
    13  C    0.334367
    14  H    0.163036
    15  H    0.168909
    16  H    0.163120
    17  H    0.190789
    18  H    0.167990
    19  C   -0.003826
    20  C   -0.193660
    21  C   -0.193642
    22  C   -0.191381
    23  H    0.159849
    24  C   -0.191380
    25  H    0.159848
    26  C   -0.147377
    27  H    0.162164
    28  H    0.162164
    29  H    0.164101
    30  O   -0.309558
    31  O   -0.202470
    32  C   -0.223761
    33  C   -0.270038
    34  C   -0.132431
    35  H    0.171217
    36  C   -0.179090
    37  H    0.167470
    38  H    0.175179
    39  H    0.165874
 Sum of Mulliken charges =  -0.00000

 Dipole moment (field-independent basis, Debye):
    X=             -1.5691    Y=              6.1741    Z=              0.0011  Tot=              6.3704
 Quadrupole moment (field-independent basis, Debye-Ang):
   XX=           -114.6497   YY=           -137.9739   ZZ=           -142.8856
   XY=             -2.0564   XZ=             -0.0018   YZ=             -0.0064

 Normal termination of Gaussian 09 at Thu Feb 25 07:26:13 2021.
