 Gaussian 09, Revision E.01,

 ----------------------------------------------------------------------
 #p m06/def2TZVP opt=tight freq=noraman nosymm int=ultrafine scrf=(SMD,
 solvent=Acetonitrile)
 ----------------------------------------------------------------------

 -----
 Title
 -----
 Symbolic Z-matrix:
 Charge =  0 Multiplicity = 1

 SCF Done:  E(RM06) =  -1035.00524016     A.U. after   14 cycles
 SCF Done:  E(RM06) =  -1035.00524017     A.U. after    5 cycles
 SCF Done:  E(RM06) =  -1035.00524017     A.U. after    5 cycles
 SCF Done:  E(RM06) =  -1035.00524017     A.U. after    5 cycles
 SCF Done:  E(RM06) =  -1035.00524017     A.U. after    3 cycles
 Optimization completed.
    -- Stationary point found.
 Normal termination of Gaussian 09 at Tue Nov 23 01:39:09 2021.

 ------------------------------------------------------------------
 #P Geom=AllCheck Guess=TCheck SCRF=Check GenChk RM06/def2TZVP Freq
 ------------------------------------------------------------------

 Structure from the checkpoint file:  "cp.chk"
 -----
 Title
 -----
 Charge =  0 Multiplicity = 1

 SCF Done:  E(RM06) =  -1035.00524017     A.U. after    1 cycles

  Exact polarizability: 571.887  31.093 488.572  -0.027  -0.021 257.927
 Approx polarizability: 545.261  21.637 504.374  -0.030  -0.021 275.493

                      1                      2                      3
                      A                      A                      A
 Frequencies --      6.4303                45.3312                55.7953
 Red. masses --      4.8046                 5.0437                 4.9305
 Frc consts  --      0.0001                 0.0061                 0.0090
 IR Inten    --      1.4400                 0.4502                 1.1343

                      4                      5                      6
                      A                      A                      A
 Frequencies --     57.7765                71.9278                98.3082
 Red. masses --      5.3835                 4.4110                 6.5034
 Frc consts  --      0.0106                 0.0134                 0.0370
 IR Inten    --      0.7486                 0.0013                 0.1519

                      7                      8                      9
                      A                      A                      A
 Frequencies --    142.3943               158.1128               204.5530
 Red. masses --      5.0337                 5.4346                 4.4814
 Frc consts  --      0.0601                 0.0800                 0.1105
 IR Inten    --      0.0001                 1.0091                 0.3617

                     10                     11                     12
                      A                      A                      A
 Frequencies --    234.7861               253.5309               255.3647
 Red. masses --      6.5797                 6.1860                 4.3670
 Frc consts  --      0.2137                 0.2343                 0.1678
 IR Inten    --      0.0514                 0.7313                 1.9711

                     13                     14                     15
                      A                      A                      A
 Frequencies --    307.5758               312.0634               333.7615
 Red. masses --      8.5856                 4.2120                 5.3225
 Frc consts  --      0.4785                 0.2417                 0.3493
 IR Inten    --     11.4942                 1.3191                 0.1637

                     16                     17                     18
                      A                      A                      A
 Frequencies --    365.7382               369.0818               408.0171
 Red. masses --      6.4207                 6.0871                 2.8348
 Frc consts  --      0.5060                 0.4885                 0.2781
 IR Inten    --      1.7313                 4.6985                 0.1124

                     19                     20                     21
                      A                      A                      A
 Frequencies --    448.7018               456.6088               473.4973
 Red. masses --      3.1685                 7.1321                 3.4288
 Frc consts  --      0.3759                 0.8761                 0.4529
 IR Inten    --      0.7375                 0.1113                20.7698

                     22                     23                     24
                      A                      A                      A
 Frequencies --    493.8432               526.8403               552.5823
 Red. masses --      5.8677                 3.5114                 3.2909
 Frc consts  --      0.8431                 0.5742                 0.5921
 IR Inten    --      9.2399                 5.9003                 3.5060

                     25                     26                     27
                      A                      A                      A
 Frequencies --    560.0185               578.4526               610.0341
 Red. masses --      5.1420                 6.4727                 7.0180
 Frc consts  --      0.9501                 1.2761                 1.5388
 IR Inten    --     10.3842                18.6968                37.6266

                     28                     29                     30
                      A                      A                      A
 Frequencies --    619.5779               630.8315               652.4778
 Red. masses --      5.9478                 7.0460                 4.0690
 Frc consts  --      1.3452                 1.6520                 1.0206
 IR Inten    --      0.0384                14.3751                 3.9108

                     31                     32                     33
                      A                      A                      A
 Frequencies --    662.8988               678.3509               691.2599
 Red. masses --      5.8519                 5.9991                 4.8828
 Frc consts  --      1.5151                 1.6265                 1.3747
 IR Inten    --      1.4621                 2.8430                 0.4864

                     34                     35                     36
                      A                      A                      A
 Frequencies --    710.4509               712.8665               756.9153
 Red. masses --      6.1227                 1.5510                 1.8423
 Frc consts  --      1.8208                 0.4644                 0.6219
 IR Inten    --     15.5492                76.4010                11.3164

                     37                     38                     39
                      A                      A                      A
 Frequencies --    766.0655               767.8632               775.8849
 Red. masses --      2.8921                 1.3604                 2.0320
 Frc consts  --      1.0000                 0.4726                 0.7207
 IR Inten    --     44.5682               112.4270               103.0735

                     40                     41                     42
                      A                      A                      A
 Frequencies --    800.3148               819.6126               847.1002
 Red. masses --      3.2321                 4.0572                 3.0513
 Frc consts  --      1.2197                 1.6058                 1.2900
 IR Inten    --      6.8584                 9.3839                 0.0550

                     43                     44                     45
                      A                      A                      A
 Frequencies --    855.5744               868.0230               879.6161
 Red. masses --      1.2578                 5.3703                 1.5565
 Frc consts  --      0.5425                 2.3840                 0.7095
 IR Inten    --      0.0388                 0.2356                 5.7585

                     46                     47                     48
                      A                      A                      A
 Frequencies --    886.6324               902.3880               923.2191
 Red. masses --      1.7746                 5.5592                 1.9067
 Frc consts  --      0.8219                 2.6672                 0.9575
 IR Inten    --      3.1532                19.2106                 1.6484

                     49                     50                     51
                      A                      A                      A
 Frequencies --    932.0963               951.6108               968.3966
 Red. masses --      2.0524                 4.0588                 1.3871
 Frc consts  --      1.0506                 2.1656                 0.7664
 IR Inten    --     27.4445                14.7605                 3.1174

                     52                     53                     54
                      A                      A                      A
 Frequencies --    985.6363               987.3884               997.2865
 Red. masses --      1.3682                 1.3821                 1.3106
 Frc consts  --      0.7831                 0.7939                 0.7680
 IR Inten    --      4.0989                 0.0510                 0.0042

                     55                     56                     57
                      A                      A                      A
 Frequencies --   1003.3117              1010.9029              1013.2537
 Red. masses --      6.1508                 1.3514                 5.2715
 Frc consts  --      3.6480                 0.8137                 3.1888
 IR Inten    --     58.6367                 0.2290                 2.0261

                     58                     59                     60
                      A                      A                      A
 Frequencies --   1014.2265              1050.1210              1050.5293
 Red. masses --      1.3444                 2.1047                 2.0700
 Frc consts  --      0.8148                 1.3675                 1.3460
 IR Inten    --      0.2267                 2.6927                14.5539

                     61                     62                     63
                      A                      A                      A
 Frequencies --   1062.1593              1090.9026              1117.8404
 Red. masses --      1.8183                 1.4539                 2.1022
 Frc consts  --      1.2087                 1.0194                 1.5477
 IR Inten    --      8.0617                15.6366                62.3290

                     64                     65                     66
                      A                      A                      A
 Frequencies --   1130.5506              1145.2871              1147.9244
 Red. masses --      2.1167                 1.4177                 1.0845
 Frc consts  --      1.5940                 1.0956                 0.8420
 IR Inten    --    161.1207                46.6973                 0.0090

                     67                     68                     69
                      A                      A                      A
 Frequencies --   1151.7974              1160.0594              1171.9513
 Red. masses --      1.2034                 1.3362                 1.1074
 Frc consts  --      0.9406                 1.0594                 0.8962
 IR Inten    --      2.7761               160.8259                 0.1706

                     70                     71                     72
                      A                      A                      A
 Frequencies --   1198.8391              1220.2094              1247.7752
 Red. masses --      2.6090                 1.8345                 2.2727
 Frc consts  --      2.2092                 1.6093                 2.0848
 IR Inten    --     75.8040               206.6539               191.9176

                     73                     74                     75
                      A                      A                      A
 Frequencies --   1265.3838              1274.6724              1294.2362
 Red. masses --      2.5668                 3.0718                 2.2789
 Frc consts  --      2.4215                 2.9406                 2.2491
 IR Inten    --     62.6215               356.3612                72.5417

                     76                     77                     78
                      A                      A                      A
 Frequencies --   1310.0631              1338.7891              1342.2456
 Red. masses --      2.0968                 2.4978                 2.5399
 Frc consts  --      2.1203                 2.6377                 2.6961
 IR Inten    --      0.0102                 0.0001                27.4830

                     79                     80                     81
                      A                      A                      A
 Frequencies --   1357.9132              1371.9687              1412.7610
 Red. masses --      4.7951                 4.0075                 3.5605
 Frc consts  --      5.2094                 4.4443                 4.1869
 IR Inten    --    109.9345                11.2647                 0.5424

                     82                     83                     84
                      A                      A                      A
 Frequencies --   1422.0970              1444.8147              1465.0680
 Red. masses --      3.5542                 5.1687                 2.3892
 Frc consts  --      4.2349                 6.3571                 3.0214
 IR Inten    --      2.6087                28.2943                 5.9078

                     85                     86                     87
                      A                      A                      A
 Frequencies --   1474.0288              1495.1304              1520.7413
 Red. masses --      3.1228                 2.9853                 2.9270
 Frc consts  --      3.9977                 3.9318                 3.9883
 IR Inten    --     32.5922                80.0235                38.9417

                     88                     89                     90
                      A                      A                      A
 Frequencies --   1527.8631              1542.6192              1615.4736
 Red. masses --      3.3864                 4.1235                 8.8759
 Frc consts  --      4.6576                 5.7815                13.6477
 IR Inten    --     31.3549                30.2019                58.3861

                     91                     92                     93
                      A                      A                      A
 Frequencies --   1629.8490              1636.4554              1652.1857
 Red. masses --      6.3579                 6.2165                 7.8621
 Frc consts  --      9.9507                 9.8085                12.6447
 IR Inten    --      1.8223                48.2136               122.6604

                     94                     95                     96
                      A                      A                      A
 Frequencies --   1657.6366              1665.2635              1674.1075
 Red. masses --      6.5487                 7.0761                 6.8095
 Frc consts  --     10.6019                11.5614                11.2442
 IR Inten    --     16.6636                56.7164                57.3258

                     97                     98                     99
                      A                      A                      A
 Frequencies --   1808.2882              3157.7456              3158.8728
 Red. masses --     13.0559                 1.0873                 1.0885
 Frc consts  --     25.1531                 6.3878                 6.3993
 IR Inten    --    998.6299                 6.9855                 6.4591

                    100                    101                    102
                      A                      A                      A
 Frequencies --   3168.0337              3170.1748              3176.0291
 Red. masses --      1.0873                 1.0897                 1.0872
 Frc consts  --      6.4292                 6.4525                 6.4613
 IR Inten    --      1.2068                 3.3066                 1.4148

                    103                    104                    105
                      A                      A                      A
 Frequencies --   3178.0278              3178.0361              3180.0695
 Red. masses --      1.0945                 1.0891                 1.0906
 Frc consts  --      6.5129                 6.4810                 6.4984
 IR Inten    --     35.7680                 7.6323                 4.9530

                    106                    107                    108
                      A                      A                      A
 Frequencies --   3186.6307              3186.8969              3188.0389
 Red. masses --      1.0934                 1.0907                 1.0989
 Frc consts  --      6.5418                 6.5270                 6.5803
 IR Inten    --     17.1348                 1.6062                19.2909

                    109                    110                    111
                      A                      A                      A
 Frequencies --   3194.5993              3195.3745              3200.0892
 Red. masses --      1.0944                 1.0977                 1.0960
 Frc consts  --      6.5802                 6.6033                 6.6128
 IR Inten    --     10.2143                26.7502                14.7480

 - Thermochemistry -
 -------------------
 Temperature   298.150 Kelvin.  Pressure   1.00000 Atm.
 Atom     1 has atomic number  6 and mass  12.00000

 Molecular mass:   322.09938 amu.
 Principal axes and moments of inertia in atomic units:
                           1         2         3
     Eigenvalues --  5174.199139784.70633**********
           X            0.99996  -0.00895   0.00001
           Y            0.00895   0.99996   0.00003
           Z           -0.00001  -0.00003   1.00000
 This molecule is an asymmetric top.
 Rotational symmetry number  1.
 Warning -- assumption of classical behavior for rotation
           may cause significant error
 Rotational temperatures (Kelvin)      0.01674     0.00885     0.00604
 Rotational constants (GHZ):           0.34880     0.18445     0.12590
 Zero-point vibrational energy     790237.4 (Joules/Mol)
                                  188.87128 (Kcal/Mol)
 Warning -- explicit consideration of  28 degrees of freedom as
           vibrations may cause significant error
 Vibrational temperatures:      9.25    65.22    80.28    83.13   103.49
          (Kelvin)            141.44   204.87   227.49   294.31   337.80
                              364.77   367.41   442.53   448.99   480.21
                              526.21   531.03   587.04   645.58   656.96
                              681.26   710.53   758.00   795.04   805.74
                              832.26   877.70   891.43   907.62   938.77
                              953.76   975.99   994.57  1022.18  1025.65
                             1089.03  1102.20  1104.78  1116.32  1151.47
                             1179.24  1218.79  1230.98  1248.89  1265.57
                             1275.66  1298.33  1328.30  1341.08  1369.15
                             1393.30  1418.11  1420.63  1434.87  1443.54
                             1454.46  1457.84  1459.24  1510.89  1511.48
                             1528.21  1569.56  1608.32  1626.61  1647.81
                             1651.61  1657.18  1669.06  1686.17  1724.86
                             1755.61  1795.27  1820.60  1833.97  1862.11
                             1884.89  1926.22  1931.19  1953.73  1973.95
                             2032.65  2046.08  2078.76  2107.90  2120.80
                             2151.16  2188.00  2198.25  2219.48  2324.30
                             2344.99  2354.49  2377.12  2384.97  2395.94
                             2408.66  2601.72  4543.29  4544.91  4558.09
                             4561.17  4569.59  4572.47  4572.48  4575.41
                             4584.85  4585.23  4586.87  4596.31  4597.43
                             4604.21

 Zero-point correction=                           0.300986 (Hartree/Particle)
 Thermal correction to Energy=                    0.318925
 Thermal correction to Enthalpy=                  0.319869
 Thermal correction to Gibbs Free Energy=         0.252693
 Sum of electronic and zero-point Energies=          -1034.704255
 Sum of electronic and thermal Energies=             -1034.686315
 Sum of electronic and thermal Enthalpies=           -1034.685371
 Sum of electronic and thermal Free Energies=        -1034.752547

                     E (Thermal)             CV                S
                      KCal/Mol        Cal/Mol-Kelvin    Cal/Mol-Kelvin
 Total                  200.128             73.552            141.384
 Electronic               0.000              0.000              0.000
 Translational            0.889              2.981             43.205
 Rotational               0.889              2.981             34.939
 Vibrational            198.351             67.591             63.241
 Vibration     1          0.593              1.987              8.888
 Vibration     2          0.595              1.979              5.011
 Vibration     3          0.596              1.975              4.601
 Vibration     4          0.596              1.974              4.532
 Vibration     5          0.598              1.967              4.100
 Vibration     6          0.604              1.950              3.488
 Vibration     7          0.616              1.911              2.771
 Vibration     8          0.621              1.894              2.572
 Vibration     9          0.640              1.833              2.092
 Vibration    10          0.655              1.788              1.842
 Vibration    11          0.665              1.757              1.706
 Vibration    12          0.666              1.754              1.693
 Vibration    13          0.697              1.659              1.375
 Vibration    14          0.700              1.651              1.351
 Vibration    15          0.715              1.608              1.242
 Vibration    16          0.739              1.543              1.098
 Vibration    17          0.741              1.536              1.084
 Vibration    18          0.773              1.453              0.934
 Vibration    19          0.808              1.364              0.800
 Vibration    20          0.815              1.346              0.776
 Vibration    21          0.830              1.309              0.728
 Vibration    22          0.849              1.264              0.674
 Vibration    23          0.882              1.191              0.594
 Vibration    24          0.908              1.134              0.539
 Vibration    25          0.916              1.118              0.524
 Vibration    26          0.935              1.078              0.488
 Vibration    27          0.969              1.011              0.433
 Vibration    28          0.980              0.991              0.417

 Normal termination of Gaussian 09 at Tue Nov 23 05:59:26 2021.
 Gaussian 09:  ES64L-G09RevE.01 30-Nov-2015

 ----------------------------------------------------------------------
 #p m06 chkbasis geom=allcheck Guess=Read int=ultrafine scrf=(SMD,solve
 nt=Acetonitrile) td=(NStates=30)
 ----------------------------------------------------------------------

 Structure from the checkpoint file:  "cp.chk"
 -----
 Title
 -----
 Charge =  0 Multiplicity = 1

                         Standard orientation:
 ---------------------------------------------------------------------
 Center     Atomic      Atomic             Coordinates (Angstroms)
 Number     Number       Type             X           Y           Z
 ---------------------------------------------------------------------
      1          6           0        1.879541    4.206488   -0.000062
      2          6           0        0.581037    3.792704   -0.000119
      3          6           0        0.261763    2.416041   -0.000114
      4          6           0        1.309254    1.456658   -0.000070
      5          6           0        2.646315    1.924132    0.000022
      6          6           0        2.922292    3.260363    0.000020
      7          6           0       -1.069621    1.984251   -0.000109
      8          6           0        0.984480    0.075935   -0.000095
      9          6           0       -0.347220   -0.317904   -0.000139
     10          6           0       -1.394588    0.652059   -0.000096
     11          6           0       -2.778473    0.195634   -0.000008
     12          6           0       -3.024738   -1.170488    0.000056
     13          6           0       -0.688778   -1.752035   -0.000321
     14          1           0       -1.843269    2.743145   -0.000096
     15          1           0        2.114746    5.264640   -0.000066
     16          1           0       -0.233181    4.509896   -0.000162
     17          1           0        3.459889    1.208921    0.000098
     18          1           0        3.952023    3.598359    0.000089
     19          6           0        2.114438   -0.886991    0.000015
     20          6           0        2.670718   -1.314215   -1.198413
     21          6           0        2.669789   -1.314988    1.198599
     22          6           0        3.749104   -2.183007   -1.198380
     23          1           0        2.246355   -0.968031   -2.135788
     24          6           0        3.748184   -2.183767    1.198842
     25          1           0        2.244676   -0.969433    2.135865
     26          6           0        4.287873   -2.624050    0.000298
     27          1           0        4.171896   -2.516148   -2.139691
     28          1           0        4.170253   -2.517505    2.140265
     29          1           0        5.131978   -3.304372    0.000405
     30          8           0        0.081531   -2.671765   -0.000695
     31          8           0       -2.008022   -2.077683   -0.000056
     32          6           0       -3.890818    1.042344    0.000065
     33          6           0       -4.306867   -1.694325    0.000208
     34          6           0       -5.384994   -0.834838    0.000287
     35          1           0       -6.392452   -1.233765    0.000404
     36          6           0       -5.173761    0.539215    0.000209
     37          1           0       -6.017375    1.219082    0.000264
     38          1           0       -3.748965    2.116001    0.000014
     39          1           0       -4.434236   -2.770476    0.000254
 ---------------------------------------------------------------------

 SCF Done:  E(RM06) =  -1035.00524002     A.U. after    4 cycles

 Excitation energies and oscillator strengths:

 Excited State   1:      Singlet-A      3.4763 eV  356.65 nm  f=0.0716  <S**2>=0.000
      84 -> 85         0.67961
      84 -> 86         0.11625
 This state for optimization and/or second-order correction.
 Total Energy, E(TD-HF/TD-KS) =  -1034.87748733
 Copying the excited state density for this state as the 1-particle RhoCI density.

 Excited State   2:      Singlet-A      3.8269 eV  323.98 nm  f=0.2194  <S**2>=0.000
      81 -> 85         0.20313
      82 -> 85         0.21542
      84 -> 85        -0.13043
      84 -> 86         0.61224

 Excited State   3:      Singlet-A      3.9738 eV  312.00 nm  f=0.0000  <S**2>=0.000
      83 -> 85         0.68140
      83 -> 86         0.12614

 Excited State   4:      Singlet-A      4.3028 eV  288.15 nm  f=0.3283  <S**2>=0.000
      82 -> 85         0.62304
      82 -> 86        -0.17467
      84 -> 86        -0.18265
      84 -> 87         0.12200

 Excited State   5:      Singlet-A      4.4595 eV  278.02 nm  f=0.3391  <S**2>=0.000
      80 -> 85        -0.26861
      81 -> 85         0.61654
      84 -> 86        -0.17411

 Excited State   6:      Singlet-A      4.5627 eV  271.73 nm  f=0.2422  <S**2>=0.000
      80 -> 85         0.58164
      81 -> 85         0.17419
      82 -> 86        -0.27802
      84 -> 86        -0.12002
      84 -> 87         0.10653

 Excited State   7:      Singlet-A      4.6294 eV  267.82 nm  f=0.2336  <S**2>=0.000
      79 -> 85         0.15047
      80 -> 85         0.25649
      81 -> 85         0.14424
      81 -> 86        -0.27140
      82 -> 85         0.20175
      82 -> 86         0.43179
      84 -> 86        -0.12576
      84 -> 87        -0.17253
      84 -> 89         0.13001

 Excited State   8:      Singlet-A      4.6704 eV  265.47 nm  f=0.0014  <S**2>=0.000
      78 -> 85         0.10323
      83 -> 85        -0.14565
      83 -> 86         0.66616

 Excited State   9:      Singlet-A      4.8073 eV  257.91 nm  f=0.1497  <S**2>=0.000
      79 -> 85         0.13181
      80 -> 86         0.13431
      81 -> 86         0.49947
      82 -> 86         0.33703
      84 -> 85         0.10276
      84 -> 87         0.18849
      84 -> 89        -0.12324

 Excited State  10:      Singlet-A      5.0516 eV  245.44 nm  f=0.0242  <S**2>=0.000
      79 -> 85        -0.29593
      81 -> 86        -0.22772
      82 -> 86         0.18529
      84 -> 87         0.53750
      84 -> 90         0.11983

 Excited State  11:      Singlet-A      5.0997 eV  243.12 nm  f=0.0002  <S**2>=0.000
      78 -> 85         0.60279
      78 -> 86         0.21402
      83 -> 86        -0.14555
      83 -> 87        -0.10687

 Excited State  12:      Singlet-A      5.1483 eV  240.83 nm  f=0.0085  <S**2>=0.000
      79 -> 85         0.10969
      80 -> 86         0.63122
      81 -> 86        -0.21863
      84 -> 89        -0.13610

 Excited State  13:      Singlet-A      5.2144 eV  237.77 nm  f=0.0001  <S**2>=0.000
      80 -> 88         0.15952
      81 -> 88        -0.10108
      83 -> 87         0.17497
      83 -> 89         0.16517
      84 -> 88         0.61103

 Excited State  14:      Singlet-A      5.2183 eV  237.60 nm  f=0.0444  <S**2>=0.000
      79 -> 85         0.29634
      80 -> 86         0.10164
      82 -> 86        -0.14174
      84 -> 87         0.12665
      84 -> 89         0.54567
      84 -> 90         0.14622

 Excited State  15:      Singlet-A      5.2709 eV  235.23 nm  f=0.0010  <S**2>=0.000
      80 -> 88         0.33953
      81 -> 88        -0.16269
      83 -> 87         0.33068
      83 -> 89         0.29962
      83 -> 90        -0.15441
      84 -> 88        -0.33147

 Excited State  16:      Singlet-A      5.2748 eV  235.05 nm  f=0.3208  <S**2>=0.000
      77 -> 85        -0.11371
      79 -> 85         0.43218
      80 -> 86        -0.20411
      81 -> 86        -0.16031
      84 -> 87         0.28818
      84 -> 89        -0.18355
      84 -> 90        -0.29930

 Excited State  17:      Singlet-A      5.4212 eV  228.70 nm  f=0.2216  <S**2>=0.000
      79 -> 85         0.16913
      81 -> 86        -0.11814
      81 -> 87         0.10348
      84 -> 89        -0.26943
      84 -> 90         0.56259

 Excited State  18:      Singlet-A      5.5964 eV  221.54 nm  f=0.1102  <S**2>=0.000
      77 -> 85         0.62390
      83 -> 88         0.16273
      84 -> 91        -0.21840

 Excited State  19:      Singlet-A      5.6575 eV  219.15 nm  f=0.1206  <S**2>=0.000
      79 -> 86         0.59362
      81 -> 89         0.14572
      82 -> 87         0.19558
      82 -> 90         0.11862

 Excited State  20:      Singlet-A      5.7036 eV  217.38 nm  f=0.0263  <S**2>=0.000
      80 -> 87        -0.21208
      80 -> 89        -0.19470
      80 -> 90         0.10034
      81 -> 87         0.15624
      81 -> 89         0.10189
      83 -> 88         0.52953
      84 -> 91         0.22862

 Excited State  21:      Singlet-A      5.8088 eV  213.44 nm  f=0.1201  <S**2>=0.000
      77 -> 85        -0.13792
      77 -> 86        -0.17098
      79 -> 86        -0.25890
      82 -> 87         0.43066
      84 -> 91        -0.37308

 Excited State  22:      Singlet-A      5.8428 eV  212.20 nm  f=0.0190  <S**2>=0.000
      77 -> 85         0.20669
      80 -> 87         0.17952
      81 -> 87         0.22077
      81 -> 89        -0.21583
      82 -> 87         0.34741
      82 -> 89         0.13375
      83 -> 88        -0.11356
      84 -> 91         0.34275

 Excited State  23:      Singlet-A      5.8863 eV  210.63 nm  f=0.0000  <S**2>=0.000
      76 -> 85        -0.18967
      78 -> 85        -0.25312
      78 -> 86         0.59096
      83 -> 89         0.11174

 Excited State  24:      Singlet-A      5.9182 eV  209.49 nm  f=0.2719  <S**2>=0.000
      77 -> 86         0.37494
      81 -> 87        -0.29359
      81 -> 90        -0.13932
      82 -> 87         0.26800
      82 -> 89        -0.32959
      82 -> 90        -0.11193

 Excited State  25:      Singlet-A      5.9847 eV  207.17 nm  f=0.0018  <S**2>=0.000
      76 -> 85        -0.18416
      81 -> 88         0.20541
      82 -> 88         0.62282

 Excited State  26:      Singlet-A      6.0086 eV  206.34 nm  f=0.0003  <S**2>=0.000
      76 -> 85         0.47706
      78 -> 86         0.23351
      82 -> 88         0.12863
      83 -> 87         0.25480
      83 -> 89        -0.30410
      83 -> 90        -0.10095

 Excited State  27:      Singlet-A      6.0244 eV  205.80 nm  f=0.0075  <S**2>=0.000
      76 -> 85        -0.39380
      80 -> 88        -0.13390
      82 -> 88        -0.14505
      83 -> 87         0.39461
      83 -> 89        -0.34035

 Excited State  28:      Singlet-A      6.0860 eV  203.72 nm  f=0.0110  <S**2>=0.000
      77 -> 86         0.17453
      80 -> 89         0.14436
      81 -> 89         0.26138
      82 -> 87         0.15663
      82 -> 89         0.42646
      82 -> 90        -0.34788

 Excited State  29:      Singlet-A      6.1178 eV  202.66 nm  f=0.0147  <S**2>=0.000
      80 -> 88        -0.13685
      83 -> 87         0.28666
      83 -> 89         0.17924
      83 -> 90         0.56516
      83 -> 91        -0.11502

 Excited State  30:      Singlet-A      6.1705 eV  200.93 nm  f=0.2435  <S**2>=0.000
      77 -> 86         0.46604
      81 -> 87         0.21742
      82 -> 89         0.11764
      82 -> 90         0.27757
      84 -> 91        -0.23572
      84 -> 92        -0.13131

 The electronic state is 1-A.
 Alpha  occ. eigenvalues --  -19.27304 -19.19517 -10.37929 -10.31272 -10.27367
 Alpha  occ. eigenvalues --  -10.26879 -10.26727 -10.26011 -10.25948 -10.25913
 Alpha  occ. eigenvalues --  -10.25090 -10.24655 -10.24538 -10.24533 -10.24528
 Alpha  occ. eigenvalues --  -10.24460 -10.24315 -10.24272 -10.24269 -10.23935
 Alpha  occ. eigenvalues --  -10.23730 -10.23723 -10.23594 -10.23593 -10.23515
 Alpha  occ. eigenvalues --   -1.15090  -1.06096  -0.91228  -0.88558  -0.87431
 Alpha  occ. eigenvalues --   -0.85582  -0.81672  -0.79224  -0.77652  -0.76583
 Alpha  occ. eigenvalues --   -0.76068  -0.75795  -0.73084  -0.69003  -0.66315
 Alpha  occ. eigenvalues --   -0.65098  -0.63205  -0.62202  -0.61615  -0.58745
 Alpha  occ. eigenvalues --   -0.58093  -0.57126  -0.53857  -0.53643  -0.51571
 Alpha  occ. eigenvalues --   -0.50228  -0.49782  -0.49101  -0.47788  -0.47046
 Alpha  occ. eigenvalues --   -0.46829  -0.46401  -0.45553  -0.44797  -0.44428
 Alpha  occ. eigenvalues --   -0.43655  -0.43066  -0.42922  -0.41930  -0.41175
 Alpha  occ. eigenvalues --   -0.40666  -0.40154  -0.38331  -0.37862  -0.37388
 Alpha  occ. eigenvalues --   -0.37067  -0.36513  -0.35404  -0.35123  -0.34946
 Alpha  occ. eigenvalues --   -0.34078  -0.31190  -0.30927  -0.29352  -0.26975
 Alpha  occ. eigenvalues --   -0.26363  -0.25806  -0.25670  -0.22944
 Alpha virt. eigenvalues --   -0.06890  -0.05294  -0.01288  -0.00632  -0.00630
 Alpha virt. eigenvalues --    0.00232   0.02019   0.04485   0.05095   0.05355
 Alpha virt. eigenvalues --    0.05772   0.06740   0.07263   0.07838   0.08283

 Mulliken charges:
               1
     1  C   -0.088504
     2  C   -0.060418
     3  C   -0.128207
     4  C   -0.105859
     5  C   -0.080172
     6  C   -0.160942
     7  C   -0.040243
     8  C    0.219794
     9  C   -0.182590
    10  C    0.015274
    11  C    0.002987
    12  C    0.274443
    13  C    0.614934
    14  H    0.149047
    15  H    0.129696
    16  H    0.117214
    17  H    0.178239
    18  H    0.127968
    19  C   -0.016142
    20  C   -0.224163
    21  C   -0.224152
    22  C   -0.126829
    23  H    0.137770
    24  C   -0.126817
    25  H    0.137753
    26  C   -0.116807
    27  H    0.128051
    28  H    0.128050
    29  H    0.130448
    30  O   -0.431155
    31  O   -0.371000
    32  C   -0.110452
    33  C   -0.230435
    34  C   -0.072852
    35  H    0.134244
    36  C   -0.157486
    37  H    0.127368
    38  H    0.160705
    39  H    0.141242
 Sum of Mulliken charges =  -0.00000

 Dipole moment (field-independent basis, Debye):
    X=             -1.4615    Y=              5.9698    Z=              0.0011  Tot=              6.1461
 Quadrupole moment (field-independent basis, Debye-Ang):
   XX=           -114.8520   YY=           -136.6955   ZZ=           -141.8164
   XY=             -1.4577   XZ=             -0.0029   YZ=             -0.0071

 Normal termination of Gaussian 09 at Tue Nov 23 08:53:23 2021.
