 Gaussian 09, Revision E.01,

 ----------------------------------------------------------------------
 #p wB97XD/def2TZVP opt freq=noraman nosymm int=ultrafine scrf=(SMD,sol
 vent=Acetonitrile)
 ----------------------------------------------------------------------

 -----
 Title
 -----
 Symbolic Z-matrix:
 Charge =  0 Multiplicity = 1

 SCF Done:  E(RwB97XD) =  -1035.39908791     A.U. after   15 cycles
 SCF Done:  E(RwB97XD) =  -1035.40264810     A.U. after   12 cycles
 SCF Done:  E(RwB97XD) =  -1035.40274914     A.U. after   11 cycles
 SCF Done:  E(RwB97XD) =  -1035.40278729     A.U. after   10 cycles
 SCF Done:  E(RwB97XD) =  -1035.40278825     A.U. after    9 cycles
 SCF Done:  E(RwB97XD) =  -1035.40278956     A.U. after    9 cycles
 SCF Done:  E(RwB97XD) =  -1035.40279136     A.U. after    8 cycles
 Optimization completed.
    -- Stationary point found.
 Normal termination of Gaussian 09 at Thu Apr  1 23:21:43 2021.

 ---------------------------------------------------------------------
 #P Geom=AllCheck Guess=TCheck SCRF=Check GenChk RwB97XD/def2TZVP Freq
 ---------------------------------------------------------------------

 Structure from the checkpoint file:  "cp.chk"
 -----
 Title
 -----
 Charge =  0 Multiplicity = 1

 SCF Done:  E(RwB97XD) =  -1035.40279136     A.U. after    1 cycles

  Exact polarizability: 538.869  22.182 466.228  -0.023  -0.018 252.483
 Approx polarizability: 374.037   3.886 350.700  -0.018  -0.012 214.099

                      1                      2                      3
                      A                      A                      A
 Frequencies --     10.9156                41.7195                56.2527
 Red. masses --      5.3016                 5.1718                 4.6783
 Frc consts  --      0.0004                 0.0053                 0.0087
 IR Inten    --      1.9874                 0.1466                 1.3314

                      4                      5                      6
                      A                      A                      A
 Frequencies --     64.1404                68.9400                97.2200
 Red. masses --      5.3884                 4.4450                 6.0790
 Frc consts  --      0.0131                 0.0124                 0.0339
 IR Inten    --      1.0036                 0.0012                 0.0412

                      7                      8                      9
                      A                      A                      A
 Frequencies --    143.3614               162.2457               205.8389
 Red. masses --      5.0418                 5.4627                 4.4498
 Frc consts  --      0.0611                 0.0847                 0.1111
 IR Inten    --      0.0001                 0.8979                 0.3084

                     10                     11                     12
                      A                      A                      A
 Frequencies --    239.2932               254.0721               261.9509
 Red. masses --      6.6611                 6.1346                 4.3410
 Frc consts  --      0.2247                 0.2333                 0.1755
 IR Inten    --      0.0102                 0.6099                 1.4590

                     13                     14                     15
                      A                      A                      A
 Frequencies --    312.5613               314.3830               337.2626
 Red. masses --      8.6890                 4.1148                 5.4079
 Frc consts  --      0.5001                 0.2396                 0.3624
 IR Inten    --     10.7082                 1.4604                 0.1745

                     16                     17                     18
                      A                      A                      A
 Frequencies --    369.0376               373.9681               417.6264
 Red. masses --      6.4483                 6.1507                 2.8340
 Frc consts  --      0.5174                 0.5068                 0.2912
 IR Inten    --      2.2101                 4.2969                 0.1129

                     19                     20                     21
                      A                      A                      A
 Frequencies --    454.7241               461.8041               480.4279
 Red. masses --      3.1702                 7.5194                 3.4383
 Frc consts  --      0.3862                 0.9448                 0.4676
 IR Inten    --      0.9463                 0.0501                25.8116

                     22                     23                     24
                      A                      A                      A
 Frequencies --    501.5071               533.7552               559.3199
 Red. masses --      5.7773                 3.5290                 3.3125
 Frc consts  --      0.8561                 0.5924                 0.6106
 IR Inten    --      8.4369                 7.5117                 4.1937

                     25                     26                     27
                      A                      A                      A
 Frequencies --    569.7910               586.6063               617.8031
 Red. masses --      5.2065                 6.5724                 7.0961
 Frc consts  --      0.9959                 1.3325                 1.5958
 IR Inten    --     14.2738                17.4406                37.0040

                     28                     29                     30
                      A                      A                      A
 Frequencies --    631.4753               641.3530               658.6306
 Red. masses --      5.8790                 7.0824                 4.1312
 Frc consts  --      1.3812                 1.7164                 1.0559
 IR Inten    --      0.1077                12.5990                 4.6121

                     31                     32                     33
                      A                      A                      A
 Frequencies --    672.1110               687.5277               698.0195
 Red. masses --      5.9052                 6.1822                 5.0325
 Frc consts  --      1.5717                 1.7218                 1.4447
 IR Inten    --      3.0537                 2.9713                 0.5088

                     34                     35                     36
                      A                      A                      A
 Frequencies --    718.3488               726.1939               766.7728
 Red. masses --      7.2479                 1.5389                 2.0708
 Frc consts  --      2.2036                 0.4782                 0.7173
 IR Inten    --      9.4845                95.0208                 7.0941

                     37                     38                     39
                      A                      A                      A
 Frequencies --    776.7479               783.6910               787.3192
 Red. masses --      2.9233                 1.4176                 1.7951
 Frc consts  --      1.0392                 0.5130                 0.6556
 IR Inten    --     46.7544                94.0257               159.4328

                     40                     41                     42
                      A                      A                      A
 Frequencies --    807.3017               827.2560               858.1584
 Red. masses --      3.3117                 3.7952                 3.4185
 Frc consts  --      1.2717                 1.5303                 1.4833
 IR Inten    --      5.0974                15.6174                 0.8552

                     43                     44                     45
                      A                      A                      A
 Frequencies --    876.3926               876.6468               895.2654
 Red. masses --      5.5859                 1.2547                 1.5321
 Frc consts  --      2.5278                 0.5681                 0.7235
 IR Inten    --      0.1065                 0.0279                 9.0689

                     46                     47                     48
                      A                      A                      A
 Frequencies --    901.6328               914.6626               941.7356
 Red. masses --      1.6496                 6.1192                 1.9839
 Frc consts  --      0.7901                 3.0162                 1.0366
 IR Inten    --      1.6897                14.4552                31.3974

                     49                     50                     51
                      A                      A                      A
 Frequencies --    942.0343               965.7087               991.6162
 Red. masses --      2.6163                 2.4351                 1.3807
 Frc consts  --      1.3680                 1.3380                 0.7999
 IR Inten    --      5.8732                15.0420                 3.5709

                     52                     53                     54
                      A                      A                      A
 Frequencies --   1010.0673              1011.8423              1013.5832
 Red. masses --      1.3611                 1.3821                 6.3279
 Frc consts  --      0.8182                 0.8337                 3.8303
 IR Inten    --      3.0634                 0.0358                47.8084

                     55                     56                     57
                      A                      A                      A
 Frequencies --   1022.0857              1025.1497              1032.0179
 Red. masses --      1.3189                 6.1957                 1.3223
 Frc consts  --      0.8118                 3.8364                 0.8298
 IR Inten    --      0.0007                 1.5224                 0.2069

                     58                     59                     60
                      A                      A                      A
 Frequencies --   1035.5684              1056.4783              1061.8211
 Red. masses --      1.3399                 2.3497                 2.0962
 Frc consts  --      0.8466                 1.5452                 1.3925
 IR Inten    --      0.1002                12.1482                 8.5620

                     61                     62                     63
                      A                      A                      A
 Frequencies --   1077.2127              1108.6542              1135.4507
 Red. masses --      1.9253                 1.5271                 3.1013
 Frc consts  --      1.3163                 1.1059                 2.3558
 IR Inten    --      8.7968                16.7021                72.3379

                     64                     65                     66
                      A                      A                      A
 Frequencies --   1146.3978              1167.3153              1176.7143
 Red. masses --      2.0219                 1.6087                 1.1251
 Frc consts  --      1.5656                 1.2916                 0.9179
 IR Inten    --     80.4865                41.0609                 0.0035

                     67                     68                     69
                      A                      A                      A
 Frequencies --   1178.4323              1188.3832              1200.7614
 Red. masses --      1.2851                 1.4011                 1.1228
 Frc consts  --      1.0515                 1.1658                 0.9538
 IR Inten    --     20.7778               182.0155                 0.1672

                     70                     71                     72
                      A                      A                      A
 Frequencies --   1213.5228              1236.0819              1261.8217
 Red. masses --      2.4567                 1.8266                 2.5984
 Frc consts  --      2.1315                 1.6443                 2.4375
 IR Inten    --     88.0585               233.2642                87.9240

                     73                     74                     75
                      A                      A                      A
 Frequencies --   1277.7884              1281.5600              1311.8805
 Red. masses --      2.8109                 3.1378                 4.6056
 Frc consts  --      2.7041                 3.0363                 4.6701
 IR Inten    --    162.6661               332.7451                 0.0178

                     76                     77                     78
                      A                      A                      A
 Frequencies --   1314.5068              1347.7257              1356.8626
 Red. masses --      2.1408                 5.4297                 1.4451
 Frc consts  --      2.1795                 5.8107                 1.5676
 IR Inten    --     52.0933               124.1330                 0.0332

                     79                     80                     81
                      A                      A                      A
 Frequencies --   1369.3895              1380.9687              1425.5744
 Red. masses --      2.5419                 2.3944                 3.2250
 Frc consts  --      2.8084                 2.6903                 3.8615
 IR Inten    --     22.6913                27.8749                 3.0571

                     82                     83                     84
                      A                      A                      A
 Frequencies --   1432.7837              1456.8866              1486.9153
 Red. masses --      4.3821                 3.2804                 2.2477
 Frc consts  --      5.3002                 4.1023                 2.9280
 IR Inten    --      9.1829                21.9233                 9.3472

                     85                     86                     87
                      A                      A                      A
 Frequencies --   1489.6615              1514.3671              1541.1522
 Red. masses --      2.8393                 2.7130                 2.6644
 Frc consts  --      3.7122                 3.6657                 3.7286
 IR Inten    --     26.9195                85.2573                43.3633

                     88                     89                     90
                      A                      A                      A
 Frequencies --   1548.1996              1557.8574              1636.3240
 Red. masses --      2.8949                 3.4373                 8.5695
 Frc consts  --      4.0883                 4.9150                13.5191
 IR Inten    --     37.7665                35.9867                50.5738

                     91                     92                     93
                      A                      A                      A
 Frequencies --   1649.0973              1656.9048              1671.9443
 Red. masses --      5.9279                 5.5803                 7.2107
 Frc consts  --      9.4982                 9.0262                11.8760
 IR Inten    --      1.6980                33.7007                96.8688

                     94                     95                     96
                      A                      A                      A
 Frequencies --   1676.8862              1685.4943              1696.0004
 Red. masses --      6.1072                 6.7023                 6.1726
 Frc consts  --     10.1180                11.2184                10.4610
 IR Inten    --     16.5309                61.8598                71.7055

                     97                     98                     99
                      A                      A                      A
 Frequencies --   1806.8806              3191.5767              3195.6135
 Red. masses --     12.9988                 1.0863                 1.0886
 Frc consts  --     25.0042                 6.5195                 6.5500
 IR Inten    --    940.8952                 2.3207                 0.3882

                    100                    101                    102
                      A                      A                      A
 Frequencies --   3197.8462              3203.2273              3206.1573
 Red. masses --      1.0877                 1.0923                 1.0876
 Frc consts  --      6.5535                 6.6032                 6.5868
 IR Inten    --      0.2835                10.2570                 0.5409

                    103                    104                    105
                      A                      A                      A
 Frequencies --   3207.7765              3210.7090              3215.2570
 Red. masses --      1.0910                 1.0958                 1.0914
 Frc consts  --      6.6146                 6.6554                 6.6479
 IR Inten    --      9.5444                34.1108                 9.1654

                    106                    107                    108
                      A                      A                      A
 Frequencies --   3219.4303              3219.8066              3220.2519
 Red. masses --      1.0959                 1.0991                 1.0936
 Frc consts  --      6.6921                 6.7134                 6.6816
 IR Inten    --     22.8503                11.4649                 0.5748

                    109                    110                    111
                      A                      A                      A
 Frequencies --   3227.6898              3232.9871              3239.5430
 Red. masses --      1.0971                 1.0953                 1.0921
 Frc consts  --      6.7342                 6.7452                 6.7527
 IR Inten    --      6.6809                12.6995                 9.7668

 - Thermochemistry -
 -------------------
 Temperature   298.150 Kelvin.  Pressure   1.00000 Atm.
 Atom     1 has atomic number  6 and mass  12.00000

 Molecular mass:   322.09938 amu.
 Principal axes and moments of inertia in atomic units:
                           1         2         3
     Eigenvalues --  5165.996539854.63122**********
           X            0.99996  -0.00944   0.00001
           Y            0.00944   0.99996   0.00002
           Z           -0.00001  -0.00002   1.00000
 This molecule is an asymmetric top.
 Rotational symmetry number  1.
 Warning -- assumption of classical behavior for rotation
           may cause significant error
 Rotational temperatures (Kelvin)      0.01677     0.00879     0.00602
 Rotational constants (GHZ):           0.34935     0.18314     0.12537
 Zero-point vibrational energy     800086.2 (Joules/Mol)
                                  191.22520 (Kcal/Mol)
 Warning -- explicit consideration of  27 degrees of freedom as
           vibrations may cause significant error
 Vibrational temperatures:     15.71    60.02    80.93    92.28    99.19
          (Kelvin)            139.88   206.26   233.44   296.16   344.29
                              365.55   376.89   449.71   452.33   485.24
                              530.96   538.06   600.87   654.25   664.43
                              691.23   721.56   767.95   804.74   819.80
                              843.99   888.88   908.55   922.76   947.62
                              967.02   989.20  1004.29  1033.54  1044.83
                             1103.21  1117.57  1127.56  1132.78  1161.53
                             1190.24  1234.70  1260.93  1261.30  1288.09
                             1297.25  1315.99  1354.95  1355.38  1389.44
                             1426.71  1453.26  1455.81  1458.32  1470.55
                             1474.96  1484.84  1489.95  1520.03  1527.72
                             1549.87  1595.10  1633.66  1649.41  1679.50
                             1693.03  1695.50  1709.82  1727.63  1745.99
                             1778.44  1815.48  1838.45  1843.88  1887.50
                             1891.28  1939.07  1952.22  1970.24  1986.90
                             2051.08  2061.45  2096.13  2139.34  2143.29
                             2178.83  2217.37  2227.51  2241.41  2354.30
                             2372.68  2383.91  2405.55  2412.66  2425.05
                             2440.16  2599.69  4591.96  4597.77  4600.98
                             4608.72  4612.94  4615.27  4619.49  4626.03
                             4632.04  4632.58  4633.22  4643.92  4651.54
                             4660.97

 Zero-point correction=                           0.304737 (Hartree/Particle)
 Thermal correction to Energy=                    0.322436
 Thermal correction to Enthalpy=                  0.323380
 Thermal correction to Gibbs Free Energy=         0.257049
 Sum of electronic and zero-point Energies=          -1035.098055
 Sum of electronic and thermal Energies=             -1035.080355
 Sum of electronic and thermal Enthalpies=           -1035.079411
 Sum of electronic and thermal Free Energies=        -1035.145743

                     E (Thermal)             CV                S
                      KCal/Mol        Cal/Mol-Kelvin    Cal/Mol-Kelvin
 Total                  202.332             72.429            139.606
 Electronic               0.000              0.000              0.000
 Translational            0.889              2.981             43.205
 Rotational               0.889              2.981             34.948
 Vibrational            200.554             66.467             61.453
 Vibration     1          0.593              1.987              7.837
 Vibration     2          0.594              1.981              5.176
 Vibration     3          0.596              1.975              4.585
 Vibration     4          0.597              1.971              4.326
 Vibration     5          0.598              1.969              4.183
 Vibration     6          0.603              1.951              3.509
 Vibration     7          0.616              1.910              2.759
 Vibration     8          0.622              1.889              2.523
 Vibration     9          0.640              1.832              2.080
 Vibration    10          0.657              1.780              1.808
 Vibration    11          0.665              1.756              1.702
 Vibration    12          0.669              1.742              1.649
 Vibration    13          0.701              1.650              1.349
 Vibration    14          0.702              1.646              1.339
 Vibration    15          0.718              1.601              1.225
 Vibration    16          0.741              1.536              1.084
 Vibration    17          0.745              1.526              1.063
 Vibration    18          0.781              1.432              0.900
 Vibration    19          0.813              1.350              0.782
 Vibration    20          0.820              1.335              0.761
 Vibration    21          0.837              1.293              0.709
 Vibration    22          0.857              1.247              0.654
 Vibration    23          0.889              1.175              0.579
 Vibration    24          0.915              1.119              0.525
 Vibration    25          0.926              1.097              0.505
 Vibration    26          0.944              1.060              0.473
 Vibration    27          0.978              0.994              0.420

 Optimization completed.
    -- Stationary point found.
 Normal termination of Gaussian 09 at Fri Apr  2 03:32:03 2021.
 Gaussian 09:  ES64L-G09RevE.01 30-Nov-2015

 ----------------------------------------------------------------------
 #p wB97XD chkbasis geom=allcheck Guess=Read int=ultrafine scrf=(SMD,so
 lvent=Acetonitrile) td=(NStates=30)
 ----------------------------------------------------------------------

 Structure from the checkpoint file:  "cp.chk"
 -----
 Title
 -----
 Charge =  0 Multiplicity = 1

                         Standard orientation:
 ---------------------------------------------------------------------
 Center     Atomic      Atomic             Coordinates (Angstroms)
 Number     Number       Type             X           Y           Z
 ---------------------------------------------------------------------
      1          6           0        1.892230    4.202221   -0.000002
      2          6           0        0.592044    3.793956   -0.000075
      3          6           0        0.268673    2.413191   -0.000090
      4          6           0        1.310251    1.452153   -0.000047
      5          6           0        2.654054    1.914336    0.000060
      6          6           0        2.934414    3.249257    0.000076
      7          6           0       -1.068935    1.986126   -0.000104
      8          6           0        0.980882    0.068424   -0.000100
      9          6           0       -0.350809   -0.318451   -0.000171
     10          6           0       -1.395712    0.655866   -0.000118
     11          6           0       -2.789420    0.199423   -0.000034
     12          6           0       -3.037523   -1.165472    0.000104
     13          6           0       -0.705592   -1.756949   -0.000352
     14          1           0       -1.837742    2.746783   -0.000077
     15          1           0        2.132082    5.258282    0.000008
     16          1           0       -0.216770    4.515055   -0.000119
     17          1           0        3.463879    1.197974    0.000126
     18          1           0        3.964192    3.583887    0.000154
     19          6           0        2.116411   -0.897640    0.000008
     20          6           0        2.676666   -1.319556   -1.199970
     21          6           0        2.675827   -1.320243    1.200137
     22          6           0        3.768053   -2.175162   -1.199881
     23          1           0        2.252137   -0.980381   -2.137467
     24          6           0        3.767219   -2.175842    1.200321
     25          1           0        2.250633   -0.981612    2.137530
     26          6           0        4.314449   -2.608793    0.000287
     27          1           0        4.193891   -2.502586   -2.140606
     28          1           0        4.192402   -2.503798    2.141156
     29          1           0        5.167251   -3.276529    0.000394
     30          8           0        0.061927   -2.680683   -0.000852
     31          8           0       -2.022437   -2.079370    0.000038
     32          6           0       -3.900496    1.050140   -0.000024
     33          6           0       -4.321764   -1.690130    0.000284
     34          6           0       -5.399508   -0.827693    0.000308
     35          1           0       -6.406438   -1.225129    0.000445
     36          6           0       -5.186182    0.547854    0.000143
     37          1           0       -6.027855    1.228370    0.000147
     38          1           0       -3.760604    2.122311   -0.000145
     39          1           0       -4.454358   -2.764284    0.000392
 ---------------------------------------------------------------------

 SCF Done:  E(RwB97XD) =  -1035.40279145     A.U. after    3 cycles

 Excitation energies and oscillator strengths:

 Excited State   1:      Singlet-A      3.9097 eV  317.12 nm  f=0.0920  <S**2>=0.000
      83 -> 86        -0.12836
      84 -> 85         0.64615
      84 -> 86         0.17750
 This state for optimization and/or second-order correction.
 Total Energy, E(TD-HF/TD-KS) =  -1035.25911266
 Copying the excited state density for this state as the 1-particle RhoCI density.

 Excited State   2:      Singlet-A      4.2105 eV  294.47 nm  f=0.2101  <S**2>=0.000
      81 -> 85         0.14468
      83 -> 85         0.26648
      84 -> 85        -0.19924
      84 -> 86         0.57516

 Excited State   3:      Singlet-A      4.5929 eV  269.95 nm  f=0.0000  <S**2>=0.000
      78 -> 85         0.20859
      78 -> 86         0.11997
      82 -> 85         0.59936
      82 -> 86         0.19091

 Excited State   4:      Singlet-A      4.7646 eV  260.22 nm  f=0.8939  <S**2>=0.000
      81 -> 86         0.11496
      83 -> 85         0.53189
      83 -> 86        -0.20943
      84 -> 86        -0.27062
      84 -> 87         0.16737

 Excited State   5:      Singlet-A      5.0392 eV  246.04 nm  f=0.4343  <S**2>=0.000
      81 -> 85        -0.29436
      81 -> 86         0.34629
      81 -> 89        -0.10428
      81 -> 90         0.10805
      83 -> 85        -0.18412
      83 -> 86        -0.26399
      83 -> 87         0.10741
      84 -> 86         0.16800
      84 -> 87         0.20780
      84 -> 89        -0.14571

 Excited State   6:      Singlet-A      5.2724 eV  235.16 nm  f=0.3421  <S**2>=0.000
      79 -> 85        -0.14939
      81 -> 85        -0.26230
      81 -> 86         0.17412
      83 -> 85         0.21026
      83 -> 86         0.48575
      83 -> 90        -0.10918
      84 -> 85         0.15938
      84 -> 91        -0.10536

 Excited State   7:      Singlet-A      5.3964 eV  229.75 nm  f=0.0019  <S**2>=0.000
      78 -> 85        -0.15455
      80 -> 88         0.35398
      81 -> 88         0.13719
      82 -> 85         0.15589
      82 -> 86        -0.26742
      82 -> 87        -0.27436
      82 -> 89        -0.31833
      82 -> 90        -0.15675

 Excited State   8:      Singlet-A      5.4449 eV  227.71 nm  f=0.1202  <S**2>=0.000
      79 -> 85         0.13367
      80 -> 85         0.20862
      81 -> 85         0.46297
      81 -> 86         0.27207
      83 -> 85        -0.11982
      83 -> 86         0.20050
      84 -> 87         0.13216
      84 -> 89        -0.15919

 Excited State   9:      Singlet-A      5.5045 eV  225.24 nm  f=0.1153  <S**2>=0.000
      79 -> 85        -0.15126
      80 -> 85         0.61401
      80 -> 86         0.16030
      83 -> 85         0.10002
      84 -> 89         0.10784

 Excited State  10:      Singlet-A      5.5319 eV  224.13 nm  f=0.0000  <S**2>=0.000
      78 -> 85         0.42408
      78 -> 86         0.25055
      78 -> 92        -0.14369
      80 -> 88         0.17905
      82 -> 85        -0.28214
      82 -> 87        -0.14972
      82 -> 89        -0.11390
      82 -> 90        -0.16204

 Excited State  11:      Singlet-A      5.8212 eV  212.99 nm  f=0.1609  <S**2>=0.000
      77 -> 85         0.15888
      77 -> 86         0.10913
      79 -> 85         0.29147
      80 -> 85         0.12724
      81 -> 85        -0.16287
      81 -> 87        -0.13390
      83 -> 85         0.13221
      84 -> 87        -0.26194
      84 -> 89        -0.20850
      84 -> 90         0.34839
      84 -> 91         0.14054

 Excited State  12:      Singlet-A      5.9324 eV  208.99 nm  f=0.1570  <S**2>=0.000
      77 -> 85         0.14301
      79 -> 85         0.19679
      80 -> 85         0.10264
      81 -> 85        -0.12037
      81 -> 86        -0.37044
      83 -> 86         0.15002
      84 -> 87         0.42111
      84 -> 89        -0.12207

 Excited State  13:      Singlet-A      5.9426 eV  208.64 nm  f=0.0068  <S**2>=0.000
      78 -> 85        -0.27005
      80 -> 88         0.17180
      82 -> 86         0.57852
      82 -> 89        -0.10304

 Excited State  14:      Singlet-A      6.0341 eV  205.47 nm  f=0.1503  <S**2>=0.000
      79 -> 85        -0.19603
      80 -> 86         0.19704
      80 -> 87         0.18453
      80 -> 89         0.17589
      80 -> 90         0.13019
      81 -> 89         0.13006
      82 -> 88         0.46136
      83 -> 87         0.11414
      84 -> 89        -0.20645

 Excited State  15:      Singlet-A      6.0503 eV  204.92 nm  f=0.0608  <S**2>=0.000
      77 -> 85         0.27624
      79 -> 85         0.28927
      79 -> 86         0.10572
      80 -> 89         0.14809
      81 -> 86         0.19249
      81 -> 87         0.10029
      82 -> 88         0.25617
      84 -> 89         0.28211
      84 -> 90        -0.21531

 Excited State  16:      Singlet-A      6.1753 eV  200.77 nm  f=0.2937  <S**2>=0.000
      77 -> 86         0.11978
      79 -> 85        -0.11962
      79 -> 86         0.36645
      81 -> 87         0.26849
      81 -> 89        -0.20003
      83 -> 89         0.10027
      84 -> 89        -0.11706
      84 -> 91         0.32732

 Excited State  17:      Singlet-A      6.2599 eV  198.06 nm  f=0.0807  <S**2>=0.000
      77 -> 85         0.43759
      77 -> 86        -0.20489
      79 -> 86        -0.10666
      80 -> 87        -0.14526
      81 -> 87         0.18980
      81 -> 89        -0.11758
      81 -> 90        -0.12216
      83 -> 89         0.17002
      83 -> 90        -0.22001

 Excited State  18:      Singlet-A      6.3198 eV  196.18 nm  f=0.0007  <S**2>=0.000
      77 -> 88        -0.14512
      83 -> 88        -0.19793
      84 -> 88         0.64471

 Excited State  19:      Singlet-A      6.4001 eV  193.72 nm  f=0.3897  <S**2>=0.000
      77 -> 85         0.29723
      77 -> 86         0.21173
      79 -> 85        -0.28817
      80 -> 86        -0.27554
      80 -> 89        -0.11955
      81 -> 87        -0.22239
      82 -> 88         0.18152
      83 -> 89        -0.10391

 Excited State  20:      Singlet-A      6.5032 eV  190.65 nm  f=0.0064  <S**2>=0.000
      72 -> 85         0.13988
      76 -> 85         0.63451

 Excited State  21:      Singlet-A      6.5281 eV  189.92 nm  f=0.0887  <S**2>=0.000
      80 -> 86         0.34156
      81 -> 86         0.16292
      82 -> 88        -0.14523
      83 -> 87        -0.15950
      84 -> 87         0.21490
      84 -> 89         0.20991
      84 -> 90         0.37664

 Excited State  22:      Singlet-A      6.5980 eV  187.91 nm  f=0.0067  <S**2>=0.000
      77 -> 85         0.17756
      79 -> 85        -0.11386
      79 -> 86         0.25437
      80 -> 86         0.29736
      82 -> 88        -0.14845
      83 -> 87         0.10126
      83 -> 90         0.14209
      84 -> 87        -0.17003
      84 -> 89        -0.28140
      84 -> 90        -0.21110
      84 -> 91        -0.16010

 Excited State  23:      Singlet-A      6.6560 eV  186.27 nm  f=0.1124  <S**2>=0.000
      77 -> 86        -0.32631
      79 -> 85         0.11092
      79 -> 86         0.40239
      80 -> 86        -0.15016
      81 -> 89         0.11971
      83 -> 87         0.20985
      83 -> 92         0.13054
      84 -> 90         0.14040

 Excited State  24:      Singlet-A      6.7127 eV  184.70 nm  f=0.2582  <S**2>=0.000
      80 -> 86         0.21814
      80 -> 89        -0.14530
      80 -> 90        -0.11593
      81 -> 87        -0.21821
      81 -> 89         0.10413
      83 -> 87         0.19348
      83 -> 90        -0.11238
      84 -> 89         0.13771
      84 -> 90        -0.14137
      84 -> 91         0.44572
      84 -> 92        -0.15590

 Excited State  25:      Singlet-A      6.7524 eV  183.62 nm  f=0.2728  <S**2>=0.000
      75 -> 85        -0.22391
      78 -> 85         0.18885
      78 -> 86        -0.26070
      80 -> 88         0.37977
      81 -> 88         0.15775
      82 -> 87         0.25544
      82 -> 89         0.21729

 Excited State  26:      Singlet-A      6.8525 eV  180.93 nm  f=0.1641  <S**2>=0.000
      72 -> 85        -0.14497
      75 -> 85         0.31666
      76 -> 86        -0.12365
      78 -> 85        -0.16352
      78 -> 86         0.27558
      80 -> 88         0.26294
      81 -> 88         0.11499
      82 -> 86        -0.11641
      82 -> 87         0.15519
      82 -> 89         0.22816
      82 -> 90         0.11435

 Excited State  27:      Singlet-A      6.9292 eV  178.93 nm  f=0.1975  <S**2>=0.000
      77 -> 85         0.12073
      80 -> 87         0.20435
      80 -> 89         0.27942
      80 -> 90         0.13201
      81 -> 86        -0.12967
      81 -> 90         0.16620
      82 -> 88        -0.25391
      83 -> 87         0.28966
      84 -> 89         0.14696
      84 -> 92        -0.16917

 Excited State  28:      Singlet-A      6.9577 eV  178.20 nm  f=0.0020  <S**2>=0.000
      69 -> 85         0.11209
      71 -> 85         0.19133
      72 -> 85        -0.14821
      75 -> 85         0.35841
      75 -> 86         0.19085
      76 -> 86         0.20312
      78 -> 86        -0.35610
      82 -> 90        -0.14871

 Excited State  29:      Singlet-A      6.9964 eV  177.21 nm  f=0.2644  <S**2>=0.000
      77 -> 86        -0.11042
      77 -> 87        -0.11693
      80 -> 86        -0.16127
      80 -> 87         0.21043
      80 -> 89         0.11543
      80 -> 90         0.15202
      81 -> 89         0.25940
      82 -> 88        -0.21428
      83 -> 87        -0.13300
      83 -> 89         0.22453
      84 -> 87         0.11885
      84 -> 89        -0.10981
      84 -> 90        -0.11849
      84 -> 91         0.21095
      84 -> 92         0.15232

 Excited State  30:      Singlet-A      7.1148 eV  174.26 nm  f=0.0012  <S**2>=0.000
      74 -> 88        -0.10010
      79 -> 88         0.10273
      80 -> 88        -0.15114
      81 -> 88         0.15310
      83 -> 88         0.61701
      84 -> 88         0.20413

 The electronic state is 1-A.
 Alpha  occ. eigenvalues --  -19.31702 -19.23724 -10.42893 -10.36170 -10.32390
 Alpha  occ. eigenvalues --  -10.31941 -10.31884 -10.30998 -10.30913 -10.30860
 Alpha  occ. eigenvalues --  -10.30023 -10.29591 -10.29462 -10.29406 -10.29311
 Alpha  occ. eigenvalues --  -10.29247 -10.29217 -10.29157 -10.29065 -10.28804
 Alpha  occ. eigenvalues --  -10.28513 -10.28506 -10.28428 -10.28424 -10.28338
 Alpha  occ. eigenvalues --   -1.23370  -1.14078  -1.00296  -0.97552  -0.96399
 Alpha  occ. eigenvalues --   -0.94535  -0.90561  -0.88030  -0.86481  -0.85367
 Alpha  occ. eigenvalues --   -0.84873  -0.84640  -0.81872  -0.77426  -0.74637
 Alpha  occ. eigenvalues --   -0.73440  -0.71529  -0.70530  -0.69986  -0.66991
 Alpha  occ. eigenvalues --   -0.66239  -0.65139  -0.61827  -0.61557  -0.59486
 Alpha  occ. eigenvalues --   -0.57907  -0.57503  -0.56808  -0.55489  -0.54697
 Alpha  occ. eigenvalues --   -0.54475  -0.54018  -0.53192  -0.52336  -0.52066
 Alpha  occ. eigenvalues --   -0.51013  -0.50456  -0.50441  -0.49728  -0.48741
 Alpha  occ. eigenvalues --   -0.48040  -0.47439  -0.45963  -0.45040  -0.44723
 Alpha  occ. eigenvalues --   -0.44197  -0.43591  -0.42523  -0.42172  -0.42126
 Alpha  occ. eigenvalues --   -0.40925  -0.38125  -0.37867  -0.36016  -0.33465
 Alpha  occ. eigenvalues --   -0.32718  -0.32141  -0.31989  -0.28836
 Alpha virt. eigenvalues --   -0.01083   0.00467   0.05019   0.05672   0.05727
 Alpha virt. eigenvalues --    0.06712   0.08596   0.11346   0.12808   0.13765
 Alpha virt. eigenvalues --    0.14228   0.14977   0.15252   0.16582   0.16603

 Mulliken charges:
               1
     1  C   -0.113622
     2  C   -0.254209
     3  C    0.144421
     4  C    0.031864
     5  C   -0.253373
     6  C   -0.165791
     7  C   -0.410846
     8  C    0.330879
     9  C   -0.172267
    10  C    0.204057
    11  C    0.108410
    12  C    0.212805
    13  C    0.384892
    14  H    0.157417
    15  H    0.165157
    16  H    0.159151
    17  H    0.186338
    18  H    0.162926
    19  C    0.085920
    20  C   -0.250359
    21  C   -0.250347
    22  C   -0.178955
    23  H    0.158074
    24  C   -0.178948
    25  H    0.158071
    26  C   -0.145491
    27  H    0.158799
    28  H    0.158799
    29  H    0.161641
    30  O   -0.364833
    31  O   -0.233652
    32  C   -0.239498
    33  C   -0.297468
    34  C   -0.116574
    35  H    0.167835
    36  C   -0.169353
    37  H    0.163151
    38  H    0.170764
    39  H    0.164217
 Sum of Mulliken charges =  -0.00000

 Dipole moment (field-independent basis, Debye):
    X=             -1.5262    Y=              6.0469    Z=              0.0014  Tot=              6.2365
 Quadrupole moment (field-independent basis, Debye-Ang):
   XX=           -112.1571   YY=           -135.4264   ZZ=           -141.5997
   XY=             -2.1125   XZ=             -0.0026   YZ=             -0.0081

 Normal termination of Gaussian 09 at Fri Apr  2 05:59:00 2021.
