                         Program Version 5.0.2 -  RELEASE  -
|  1> %maxcore 3200
|  2> %pal
|  3>  nprocs= 8
|  4> end
|  5> ! RI-wB2PLYP def2-TZVP def2/J def2-TZVP/C RIJCOSX CPCM TightSCF
|  6> %TDDFT DCORR 1
|  7>    NROOTS   30
|  8>
|  9>    TDA      FALSE
| 10> END
| 11>
| 12> %CPCM
| 13>    SMD          TRUE
| 14>    SMDsolvent   "ACETONITRILE"
| 15> END
| 16>
| 17>
| 18> * xyz 0 1
| 19> C                   1.88629500    4.20967500    0.00975300
| 20> C                   0.58312800    3.79831200    0.00210500
| 21> C                   0.25769100    2.42219400   -0.00134700
| 22> C                   1.30920500    1.45669500    0.00107500
| 23> C                   2.64691800    1.92250500    0.01243900
| 24> C                   2.92695500    3.26158300    0.01602800
| 25> C                  -1.07371400    1.98976500   -0.00338400
| 26> C                   0.98468200    0.07504500   -0.00581700
| 27> C                  -0.35228100   -0.31916500   -0.01347600
| 28> C                  -1.40159000    0.65276500   -0.00694200
| 29> C                  -2.78227100    0.19662400   -0.00248100
| 30> C                  -3.03132000   -1.17416000   -0.00726700
| 31> C                  -0.68796500   -1.74830700   -0.03892000
| 32> H                  -1.84891700    2.74447200   -0.00088500
| 33> H                   2.12316200    5.26611500    0.01239500
| 34> H                  -0.22628700    4.51846200   -0.00072200
| 35> H                   3.45640600    1.20471800    0.01849500
| 36> H                   3.95616700    3.59676900    0.02445700
| 37> C                   2.11411600   -0.89034300    0.00271100
| 38> C                   2.72559400   -1.27145900   -1.18861100
| 39> C                   2.62603400   -1.36512600    1.20739000
| 40> C                   3.80945300   -2.13635800   -1.17698700
| 41> H                   2.34182200   -0.89323000   -2.12894300
| 42> C                   3.71094200   -2.22830500    1.21828200
| 43> H                   2.16267700   -1.06177500    2.13897800
| 44> C                   4.30390800   -2.62059300    0.02608700
| 45> H                   4.27114100   -2.43019900   -2.11161500
| 46> H                   4.09560600   -2.59412600    2.16233200
| 47> H                   5.15107000   -3.29480400    0.03504000
| 48> O                   0.08459400   -2.67312200   -0.07461200
| 49> O                  -2.01530000   -2.08680800   -0.02449300
| 50> C                  -3.89782100    1.04425400    0.01055500
| 51> C                  -4.31611200   -1.69787100    0.00165800
| 52> C                  -5.39467800   -0.83571300    0.01492800
| 53> H                  -6.40094900   -1.23393300    0.02187300
| 54> C                  -5.18255600    0.54027400    0.01893300
| 55> H                  -6.02502100    1.21919700    0.02905900
| 56> H                  -3.75312400    2.11601700    0.01476600
| 57> H                  -4.44577800   -2.77198100   -0.00265200
| 58> *
| 59>
| 60>
| 61>                          ****END OF INPUT****

CARTESIAN COORDINATES (ANGSTROEM)
---------------------------------
  C      1.886295    4.209675    0.009753
  C      0.583128    3.798312    0.002105
  C      0.257691    2.422194   -0.001347
  C      1.309205    1.456695    0.001075
  C      2.646918    1.922505    0.012439
  C      2.926955    3.261583    0.016028
  C     -1.073714    1.989765   -0.003384
  C      0.984682    0.075045   -0.005817
  C     -0.352281   -0.319165   -0.013476
  C     -1.401590    0.652765   -0.006942
  C     -2.782271    0.196624   -0.002481
  C     -3.031320   -1.174160   -0.007267
  C     -0.687965   -1.748307   -0.038920
  H     -1.848917    2.744472   -0.000885
  H      2.123162    5.266115    0.012395
  H     -0.226287    4.518462   -0.000722
  H      3.456406    1.204718    0.018495
  H      3.956167    3.596769    0.024457
  C      2.114116   -0.890343    0.002711
  C      2.725594   -1.271459   -1.188611
  C      2.626034   -1.365126    1.207390
  C      3.809453   -2.136358   -1.176987
  H      2.341822   -0.893230   -2.128943
  C      3.710942   -2.228305    1.218282
  H      2.162677   -1.061775    2.138978
  C      4.303908   -2.620593    0.026087
  H      4.271141   -2.430199   -2.111615
  H      4.095606   -2.594126    2.162332
  H      5.151070   -3.294804    0.035040
  O      0.084594   -2.673122   -0.074612
  O     -2.015300   -2.086808   -0.024493
  C     -3.897821    1.044254    0.010555
  C     -4.316112   -1.697871    0.001658
  C     -5.394678   -0.835713    0.014928
  H     -6.400949   -1.233933    0.021873
  C     -5.182556    0.540274    0.018933
  H     -6.025021    1.219197    0.029059
  H     -3.753124    2.116017    0.014766
  H     -4.445778   -2.771981   -0.002652

 Total Charge           Charge          ....    0
 Multiplicity           Mult            ....    1
 Number of Electrons    NEL             ....  168
 Basis Dimension        Dim             ....  859

ORBITAL ENERGIES
----------------

  NO   OCC          E(Eh)            E(eV)
   0   2.0000     -19.863240      -540.5062
   1   2.0000     -19.787089      -538.4341
   2   2.0000     -10.842948      -295.0516
   3   2.0000     -10.766445      -292.9699
   4   2.0000     -10.729074      -291.9530
   5   2.0000     -10.722286      -291.7682
   6   2.0000     -10.720081      -291.7082
   7   2.0000     -10.711562      -291.4764
   8   2.0000     -10.709971      -291.4331
   9   2.0000     -10.709240      -291.4132
  10   2.0000     -10.700682      -291.1804
  11   2.0000     -10.697519      -291.0943
  12   2.0000     -10.695678      -291.0442
  13   2.0000     -10.695276      -291.0333
  14   2.0000     -10.694913      -291.0234
  15   2.0000     -10.693963      -290.9975
  16   2.0000     -10.692259      -290.9511
  17   2.0000     -10.691878      -290.9408
  18   2.0000     -10.690853      -290.9129
  19   2.0000     -10.687869      -290.8317
  20   2.0000     -10.685678      -290.7721
  21   2.0000     -10.685536      -290.7682
  22   2.0000     -10.684558      -290.7416
  23   2.0000     -10.684463      -290.7390
  24   2.0000     -10.683580      -290.7150
  25   2.0000      -1.357312       -36.9344
  26   2.0000      -1.261399       -34.3244
  27   2.0000      -1.112012       -30.2594
  28   2.0000      -1.080962       -29.4145
  29   2.0000      -1.069326       -29.0978
  30   2.0000      -1.048395       -28.5283
  31   2.0000      -1.005438       -27.3594
  32   2.0000      -0.976831       -26.5809
  33   2.0000      -0.955782       -26.0082
  34   2.0000      -0.947644       -25.7867
  35   2.0000      -0.941835       -25.6286
  36   2.0000      -0.939176       -25.5563
  37   2.0000      -0.907219       -24.6867
  38   2.0000      -0.855135       -23.2694
  39   2.0000      -0.825275       -22.4569
  40   2.0000      -0.810534       -22.0558
  41   2.0000      -0.789872       -21.4935
  42   2.0000      -0.779369       -21.2077
  43   2.0000      -0.773461       -21.0469
  44   2.0000      -0.738807       -20.1040
  45   2.0000      -0.731785       -19.9129
  46   2.0000      -0.718818       -19.5600
  47   2.0000      -0.680703       -18.5229
  48   2.0000      -0.677478       -18.4351
  49   2.0000      -0.656152       -17.8548
  50   2.0000      -0.636908       -17.3311
  51   2.0000      -0.636530       -17.3209
  52   2.0000      -0.626062       -17.0360
  53   2.0000      -0.613937       -16.7061
  54   2.0000      -0.604074       -16.4377
  55   2.0000      -0.601191       -16.3592
  56   2.0000      -0.600259       -16.3339
  57   2.0000      -0.587568       -15.9885
  58   2.0000      -0.577118       -15.7042
  59   2.0000      -0.573971       -15.6185
  60   2.0000      -0.563757       -15.3406
  61   2.0000      -0.556975       -15.1561
  62   2.0000      -0.555513       -15.1163
  63   2.0000      -0.540400       -14.7050
  64   2.0000      -0.533220       -14.5097
  65   2.0000      -0.530420       -14.4335
  66   2.0000      -0.527797       -14.3621
  67   2.0000      -0.500411       -13.6169
  68   2.0000      -0.498648       -13.5689
  69   2.0000      -0.488878       -13.3031
  70   2.0000      -0.486727       -13.2445
  71   2.0000      -0.482563       -13.1312
  72   2.0000      -0.470181       -12.7943
  73   2.0000      -0.468918       -12.7599
  74   2.0000      -0.456420       -12.4198
  75   2.0000      -0.453635       -12.3440
  76   2.0000      -0.431087       -11.7305
  77   2.0000      -0.406041       -11.0489
  78   2.0000      -0.378541       -10.3006
  79   2.0000      -0.350967        -9.5503
  80   2.0000      -0.344204        -9.3663
  81   2.0000      -0.339551        -9.2396
  82   2.0000      -0.334088        -9.0910
  83   2.0000      -0.296706        -8.0738
  84   0.0000       0.014361         0.3908
  85   0.0000       0.028754         0.7824
  86   0.0000       0.080061         2.1786
  87   0.0000       0.086130         2.3437
  88   0.0000       0.088988         2.4215

MULLIKEN ATOMIC CHARGES
-----------------------
   0 C :   -0.141410
   1 C :   -0.258278
   2 C :    0.106919
   3 C :    0.073696
   4 C :   -0.252040
   5 C :   -0.193218
   6 C :   -0.354392
   7 C :    0.259594
   8 C :   -0.143013
   9 C :    0.160018
  10 C :    0.084376
  11 C :    0.211060
  12 C :    0.386096
  13 H :    0.178224
  14 H :    0.184417
  15 H :    0.180998
  16 H :    0.202446
  17 H :    0.183008
  18 C :    0.015370
  19 C :   -0.223798
  20 C :   -0.220574
  21 C :   -0.206237
  22 H :    0.177855
  23 C :   -0.206936
  24 H :    0.177578
  25 C :   -0.161232
  26 H :    0.176984
  27 H :    0.176808
  28 H :    0.178721
  29 O :   -0.379296
  30 O :   -0.243446
  31 C :   -0.231254
  32 C :   -0.304041
  33 C :   -0.129074
  34 H :    0.186307
  35 C :   -0.202709
  36 H :    0.181155
  37 H :    0.187896
  38 H :    0.181423
Sum of atomic charges:    0.0000000

LOEWDIN ATOMIC CHARGES
----------------------
   0 C :   -0.130040
   1 C :   -0.101689
   2 C :   -0.085484
   3 C :   -0.055537
   4 C :   -0.091834
   5 C :   -0.140996
   6 C :   -0.052144
   7 C :    0.011232
   8 C :   -0.052394
   9 C :   -0.062128
  10 C :   -0.090490
  11 C :   -0.181501
  12 C :   -0.361412
  13 H :    0.167841
  14 H :    0.158535
  15 H :    0.162004
  16 H :    0.166418
  17 H :    0.157601
  18 C :   -0.103837
  19 C :   -0.105607
  20 C :   -0.104985
  21 C :   -0.148932
  22 H :    0.160118
  23 C :   -0.148922
  24 H :    0.160053
  25 C :   -0.153579
  26 H :    0.154808
  27 H :    0.154798
  28 H :    0.153547
  29 O :    0.087379
  30 O :    0.325530
  31 C :   -0.088010
  32 C :   -0.116958
  33 C :   -0.130981
  34 H :    0.158961
  35 C :   -0.153397
  36 H :    0.156887
  37 H :    0.162423
  38 H :    0.162727

  Mayer bond orders larger than 0.100000
B(  0-C ,  1-C ) :   1.5709 B(  0-C ,  5-C ) :   1.2264 B(  0-C , 14-H ) :   0.9732
B(  1-C ,  2-C ) :   1.2089 B(  1-C , 15-H ) :   0.9728 B(  2-C ,  3-C ) :   1.2803
B(  2-C ,  6-C ) :   1.2952 B(  3-C ,  4-C ) :   1.1960 B(  3-C ,  7-C ) :   1.1914
B(  4-C ,  5-C ) :   1.6174 B(  4-C , 16-H ) :   0.9474 B(  5-C , 17-H ) :   0.9741
B(  6-C ,  9-C ) :   1.5268 B(  6-C , 13-H ) :   0.9336 B(  7-C ,  8-C ) :   1.4019
B(  7-C , 18-C ) :   0.7631 B(  8-C ,  9-C ) :   1.2432 B(  8-C , 12-C ) :   0.9890
B(  9-C , 10-C ) :   0.9753 B( 10-C , 11-C ) :   1.3627 B( 10-C , 31-C ) :   1.3147
B( 11-C , 30-O ) :   1.0003 B( 11-C , 32-C ) :   1.3919 B( 12-C , 29-O ) :   2.0991
B( 12-C , 30-O ) :   1.1779 B( 18-C , 19-C ) :   1.3815 B( 18-C , 20-C ) :   1.3848
B( 19-C , 21-C ) :   1.4403 B( 19-C , 22-H ) :   0.9770 B( 20-C , 23-C ) :   1.4433
B( 20-C , 24-H ) :   0.9771 B( 21-C , 25-C ) :   1.3964 B( 21-C , 26-H ) :   0.9761
B( 23-C , 25-C ) :   1.3954 B( 23-C , 27-H ) :   0.9761 B( 25-C , 28-H ) :   0.9722
B( 31-C , 35-C ) :   1.4827 B( 31-C , 37-H ) :   0.9372 B( 32-C , 33-C ) :   1.4365
B( 32-C , 38-H ) :   0.9753 B( 33-C , 34-H ) :   0.9715 B( 33-C , 35-C ) :   1.3629
B( 35-C , 36-H ) :   0.9769

MP2 TOTAL ENERGY:    -1033.742080252 Eh

-----------------------------------------------------------------------------
         ABSORPTION SPECTRUM VIA TRANSITION ELECTRIC DIPOLE MOMENTS
-----------------------------------------------------------------------------
State   Energy    Wavelength  fosc         T2        TX        TY        TZ
        (cm-1)      (nm)                 (au**2)    (au)      (au)      (au)
-----------------------------------------------------------------------------
   1   31449.4    318.0   0.092250626   0.96568   0.60783  -0.77213   0.00541
   2   33495.6    298.5   0.249526310   2.45247   1.35238   0.78962  -0.00594
   3   38554.6    259.4   1.133064131   9.67506  -2.63684  -1.64979  -0.01738
   4   38203.4    261.8   0.001334737   0.01150  -0.03060  -0.10148   0.01634
   5   40132.6    249.2   0.187216567   1.53576  -0.97735  -0.76190  -0.00755
   6   42930.0    232.9   0.529053712   4.05709  -0.72658   1.87861  -0.00060
   7   42739.8    234.0   0.008669680   0.06678   0.11762  -0.21471  -0.08274
   8   46694.4    214.2   0.370706237   2.61361   1.38942   0.82648   0.00727
   9   48428.7    206.5   0.062857568   0.42730  -0.51617  -0.40020   0.02673
  10   46157.1    216.7   0.007673348   0.05473   0.21413  -0.02260  -0.09147
  11   46917.4    213.1   0.221696090   1.55561  -0.85326   0.90965   0.00942
  12   49186.5    203.3   0.211376209   1.41477   1.01391   0.62185  -0.00815
  13   47870.8    208.9   0.165210236   1.13617  -0.69587   0.80091  -0.10241
  14   49160.3    203.4   0.386635920   2.58919  -0.20054   1.59392   0.09160
  15   50148.7    199.4   0.052047783   0.34168  -0.51640   0.21542   0.16913
  16   51609.9    193.8   0.338156936   2.15705  -0.67763   0.30825  -1.26604
  17   52069.9    192.0   0.549069634   3.47149   1.65936  -0.64710  -0.54707
  18   51173.0    195.4   0.113684891   0.73137  -0.59228   0.61530  -0.04449
  19   54672.2    182.9   0.169948177   1.02335   0.25964  -0.89677   0.38954
  20   52984.0    188.7   0.041426404   0.25740   0.00823   0.07551  -0.50163
  21   53505.0    186.9   0.199403133   1.22691  -0.25052   0.22622   1.05498
  22   54666.3    182.9   0.164899877   0.99306   0.98245  -0.12232   0.11355
  23   54826.5    182.4   0.004965582   0.02982  -0.03712   0.01000   0.16834
  24   55163.6    181.3   0.024165778   0.14422  -0.35250   0.13612  -0.03785
  25   55342.2    180.7   0.013374062   0.07956  -0.01207  -0.26820   0.08650
  26   60265.6    165.9   0.001635804   0.00894  -0.03521   0.01431   0.08655
  27   56558.5    176.8   0.134449746   0.78260   0.70231  -0.53779   0.01164
  28   57935.1    172.6   0.027485001   0.15618   0.36566  -0.08556  -0.12310
  29   58001.2    172.4   0.106205073   0.60281  -0.74938   0.19972  -0.03678
  30   58619.1    170.6   0.007745375   0.04350   0.17572  -0.11235   0.00088

FINAL SINGLE POINT ENERGY     -1032.413698119800

DIPOLE MOMENT
-------------
                                X             Y             Z
Electronic contribution:     -5.29011      -3.63839      -0.14944
Nuclear contribution   :      4.72501       6.17663       0.20653
                        -----------------------------------------
Total Dipole Moment    :     -0.56510       2.53825       0.05709
                        -----------------------------------------
Magnitude (a.u.)       :      2.60102
Magnitude (Debye)      :      6.61126

Rotational constants in cm-1:     0.011605     0.006121     0.004181
Rotational constants in MHz :   347.917303   183.508149   125.354082

                             ****ORCA TERMINATED NORMALLY****
TOTAL RUN TIME: 0 days 0 hours 47 minutes 55 seconds 596 msec
