                         Program Version 5.0.2 -  RELEASE  -
|  1> %maxcore 20000
|  2> %pal
|  3>  nprocs= 4
|  4> end
|  5> ! RI-wPBEPP86   def2-TZVP def2/J def2-TZVP/C RIJCOSX CPCM TightSCF
|  6> %TDDFT
|  7>    NROOTS   30
|  8>    dcorr 1
|  9>    TDA      FALSE
| 10> END
| 11>
| 12> %CPCM
| 13>    SMD          TRUE
| 14>    SMDsolvent   "ACETONITRILE"
| 15> END
| 16>
| 17>
| 18> * xyz 0 1
| 19> C                   1.88629500    4.20967500    0.00975300
| 20> C                   0.58312800    3.79831200    0.00210500
| 21> C                   0.25769100    2.42219400   -0.00134700
| 22> C                   1.30920500    1.45669500    0.00107500
| 23> C                   2.64691800    1.92250500    0.01243900
| 24> C                   2.92695500    3.26158300    0.01602800
| 25> C                  -1.07371400    1.98976500   -0.00338400
| 26> C                   0.98468200    0.07504500   -0.00581700
| 27> C                  -0.35228100   -0.31916500   -0.01347600
| 28> C                  -1.40159000    0.65276500   -0.00694200
| 29> C                  -2.78227100    0.19662400   -0.00248100
| 30> C                  -3.03132000   -1.17416000   -0.00726700
| 31> C                  -0.68796500   -1.74830700   -0.03892000
| 32> H                  -1.84891700    2.74447200   -0.00088500
| 33> H                   2.12316200    5.26611500    0.01239500
| 34> H                  -0.22628700    4.51846200   -0.00072200
| 35> H                   3.45640600    1.20471800    0.01849500
| 36> H                   3.95616700    3.59676900    0.02445700
| 37> C                   2.11411600   -0.89034300    0.00271100
| 38> C                   2.72559400   -1.27145900   -1.18861100
| 39> C                   2.62603400   -1.36512600    1.20739000
| 40> C                   3.80945300   -2.13635800   -1.17698700
| 41> H                   2.34182200   -0.89323000   -2.12894300
| 42> C                   3.71094200   -2.22830500    1.21828200
| 43> H                   2.16267700   -1.06177500    2.13897800
| 44> C                   4.30390800   -2.62059300    0.02608700
| 45> H                   4.27114100   -2.43019900   -2.11161500
| 46> H                   4.09560600   -2.59412600    2.16233200
| 47> H                   5.15107000   -3.29480400    0.03504000
| 48> O                   0.08459400   -2.67312200   -0.07461200
| 49> O                  -2.01530000   -2.08680800   -0.02449300
| 50> C                  -3.89782100    1.04425400    0.01055500
| 51> C                  -4.31611200   -1.69787100    0.00165800
| 52> C                  -5.39467800   -0.83571300    0.01492800
| 53> H                  -6.40094900   -1.23393300    0.02187300
| 54> C                  -5.18255600    0.54027400    0.01893300
| 55> H                  -6.02502100    1.21919700    0.02905900
| 56> H                  -3.75312400    2.11601700    0.01476600
| 57> H                  -4.44577800   -2.77198100   -0.00265200
| 58> *
| 59>
| 60>
| 61>                          ****END OF INPUT****

CARTESIAN COORDINATES (ANGSTROEM)
---------------------------------
  C      1.886295    4.209675    0.009753
  C      0.583128    3.798312    0.002105
  C      0.257691    2.422194   -0.001347
  C      1.309205    1.456695    0.001075
  C      2.646918    1.922505    0.012439
  C      2.926955    3.261583    0.016028
  C     -1.073714    1.989765   -0.003384
  C      0.984682    0.075045   -0.005817
  C     -0.352281   -0.319165   -0.013476
  C     -1.401590    0.652765   -0.006942
  C     -2.782271    0.196624   -0.002481
  C     -3.031320   -1.174160   -0.007267
  C     -0.687965   -1.748307   -0.038920
  H     -1.848917    2.744472   -0.000885
  H      2.123162    5.266115    0.012395
  H     -0.226287    4.518462   -0.000722
  H      3.456406    1.204718    0.018495
  H      3.956167    3.596769    0.024457
  C      2.114116   -0.890343    0.002711
  C      2.725594   -1.271459   -1.188611
  C      2.626034   -1.365126    1.207390
  C      3.809453   -2.136358   -1.176987
  H      2.341822   -0.893230   -2.128943
  C      3.710942   -2.228305    1.218282
  H      2.162677   -1.061775    2.138978
  C      4.303908   -2.620593    0.026087
  H      4.271141   -2.430199   -2.111615
  H      4.095606   -2.594126    2.162332
  H      5.151070   -3.294804    0.035040
  O      0.084594   -2.673122   -0.074612
  O     -2.015300   -2.086808   -0.024493
  C     -3.897821    1.044254    0.010555
  C     -4.316112   -1.697871    0.001658
  C     -5.394678   -0.835713    0.014928
  H     -6.400949   -1.233933    0.021873
  C     -5.182556    0.540274    0.018933
  H     -6.025021    1.219197    0.029059
  H     -3.753124    2.116017    0.014766
  H     -4.445778   -2.771981   -0.002652

 Total Charge           Charge          ....    0
 Multiplicity           Mult            ....    1
 Number of Electrons    NEL             ....  168
 Basis Dimension        Dim             ....  859

ORBITAL ENERGIES
----------------

  NO   OCC          E(Eh)            E(eV)
   0   2.0000     -20.126238      -547.6628
   1   2.0000     -20.047743      -545.5268
   2   2.0000     -11.023247      -299.9578
   3   2.0000     -10.947299      -297.8912
   4   2.0000     -10.911138      -296.9072
   5   2.0000     -10.903762      -296.7064
   6   2.0000     -10.900990      -296.6310
   7   2.0000     -10.892797      -296.4081
   8   2.0000     -10.890458      -296.3444
   9   2.0000     -10.890450      -296.3442
  10   2.0000     -10.881771      -296.1080
  11   2.0000     -10.877915      -296.0031
  12   2.0000     -10.875973      -295.9503
  13   2.0000     -10.875779      -295.9450
  14   2.0000     -10.875215      -295.9297
  15   2.0000     -10.874468      -295.9093
  16   2.0000     -10.872018      -295.8426
  17   2.0000     -10.871824      -295.8374
  18   2.0000     -10.870949      -295.8136
  19   2.0000     -10.867539      -295.7208
  20   2.0000     -10.865675      -295.6700
  21   2.0000     -10.865532      -295.6661
  22   2.0000     -10.864624      -295.6415
  23   2.0000     -10.864466      -295.6371
  24   2.0000     -10.863370      -295.6073
  25   2.0000      -1.398238       -38.0480
  26   2.0000      -1.299770       -35.3686
  27   2.0000      -1.140867       -31.0446
  28   2.0000      -1.108621       -30.1671
  29   2.0000      -1.096715       -29.8431
  30   2.0000      -1.074765       -29.2458
  31   2.0000      -1.030406       -28.0388
  32   2.0000      -1.000836       -27.2341
  33   2.0000      -0.978802       -26.6345
  34   2.0000      -0.970652       -26.4128
  35   2.0000      -0.964922       -26.2569
  36   2.0000      -0.962040       -26.1784
  37   2.0000      -0.929210       -25.2851
  38   2.0000      -0.873947       -23.7813
  39   2.0000      -0.843001       -22.9392
  40   2.0000      -0.827653       -22.5216
  41   2.0000      -0.806051       -21.9338
  42   2.0000      -0.795538       -21.6477
  43   2.0000      -0.789312       -21.4783
  44   2.0000      -0.753273       -20.4976
  45   2.0000      -0.746881       -20.3237
  46   2.0000      -0.731882       -19.9155
  47   2.0000      -0.692384       -18.8407
  48   2.0000      -0.688815       -18.7436
  49   2.0000      -0.667429       -18.1617
  50   2.0000      -0.648271       -17.6403
  51   2.0000      -0.645986       -17.5782
  52   2.0000      -0.636364       -17.3164
  53   2.0000      -0.625348       -17.0166
  54   2.0000      -0.614423       -16.7193
  55   2.0000      -0.612194       -16.6587
  56   2.0000      -0.609491       -16.5851
  57   2.0000      -0.597046       -16.2465
  58   2.0000      -0.585717       -15.9382
  59   2.0000      -0.582499       -15.8506
  60   2.0000      -0.572562       -15.5802
  61   2.0000      -0.565195       -15.3797
  62   2.0000      -0.563019       -15.3205
  63   2.0000      -0.544831       -14.8256
  64   2.0000      -0.543202       -14.7813
  65   2.0000      -0.535974       -14.5846
  66   2.0000      -0.534875       -14.5547
  67   2.0000      -0.505865       -13.7653
  68   2.0000      -0.504454       -13.7269
  69   2.0000      -0.495673       -13.4879
  70   2.0000      -0.492142       -13.3919
  71   2.0000      -0.489251       -13.3132
  72   2.0000      -0.477565       -12.9952
  73   2.0000      -0.475093       -12.9279
  74   2.0000      -0.460402       -12.5282
  75   2.0000      -0.459944       -12.5157
  76   2.0000      -0.439480       -11.9589
  77   2.0000      -0.408909       -11.1270
  78   2.0000      -0.381393       -10.3782
  79   2.0000      -0.353088        -9.6080
  80   2.0000      -0.346804        -9.4370
  81   2.0000      -0.342195        -9.3116
  82   2.0000      -0.337059        -9.1718
  83   2.0000      -0.299287        -8.1440
  84   0.0000       0.007268         0.1978
  85   0.0000       0.021789         0.5929
  86   0.0000       0.074014         2.0140
  87   0.0000       0.079942         2.1753
  88   0.0000       0.083187         2.2636

MULLIKEN ATOMIC CHARGES
-----------------------
   0 C :   -0.136005
   1 C :   -0.293945
   2 C :    0.145107
   3 C :    0.099399
   4 C :   -0.285590
   5 C :   -0.195116
   6 C :   -0.431169
   7 C :    0.319826
   8 C :   -0.139654
   9 C :    0.190421
  10 C :    0.088663
  11 C :    0.216651
  12 C :    0.415539
  13 H :    0.184652
  14 H :    0.190395
  15 H :    0.189055
  16 H :    0.209167
  17 H :    0.188780
  18 C :    0.025743
  19 C :   -0.247225
  20 C :   -0.244818
  21 C :   -0.211874
  22 H :    0.186502
  23 C :   -0.212013
  24 H :    0.186172
  25 C :   -0.166321
  26 H :    0.183592
  27 H :    0.183485
  28 H :    0.185438
  29 O :   -0.424089
  30 O :   -0.251063
  31 C :   -0.241584
  32 C :   -0.336307
  33 C :   -0.122361
  34 H :    0.192372
  35 C :   -0.209947
  36 H :    0.187039
  37 H :    0.192639
  38 H :    0.188446
Sum of atomic charges:   -0.0000000

LOEWDIN ATOMIC CHARGES
----------------------
   0 C :   -0.129895
   1 C :   -0.102430
   2 C :   -0.088237
   3 C :   -0.058085
   4 C :   -0.092883
   5 C :   -0.141295
   6 C :   -0.052087
   7 C :    0.010331
   8 C :   -0.053429
   9 C :   -0.064590
  10 C :   -0.093841
  11 C :   -0.180370
  12 C :   -0.352472
  13 H :    0.169700
  14 H :    0.160655
  15 H :    0.164170
  16 H :    0.167986
  17 H :    0.159761
  18 C :   -0.107516
  19 C :   -0.106517
  20 C :   -0.105837
  21 C :   -0.149833
  22 H :    0.162353
  23 C :   -0.149837
  24 H :    0.162290
  25 C :   -0.154480
  26 H :    0.156859
  27 H :    0.156847
  28 H :    0.155579
  29 O :    0.080408
  30 O :    0.319952
  31 C :   -0.088282
  32 C :   -0.117675
  33 C :   -0.131205
  34 H :    0.161004
  35 C :   -0.155065
  36 H :    0.158916
  37 H :    0.164156
  38 H :    0.164894

  Mayer bond orders larger than 0.100000
B(  0-C ,  1-C ) :   1.5514 B(  0-C ,  5-C ) :   1.2189 B(  0-C , 14-H ) :   0.9736
B(  1-C ,  2-C ) :   1.2101 B(  1-C , 15-H ) :   0.9800 B(  2-C ,  3-C ) :   1.2931
B(  2-C ,  6-C ) :   1.2866 B(  3-C ,  4-C ) :   1.1936 B(  3-C ,  7-C ) :   1.2146
B(  4-C ,  5-C ) :   1.6095 B(  4-C , 16-H ) :   0.9491 B(  5-C , 17-H ) :   0.9748
B(  6-C ,  9-C ) :   1.4976 B(  6-C , 13-H ) :   0.9413 B(  7-C ,  8-C ) :   1.3816
B(  7-C , 18-C ) :   0.7222 B(  8-C ,  9-C ) :   1.2529 B(  8-C , 12-C ) :   1.0040
B(  9-C , 10-C ) :   0.9694 B( 10-C , 11-C ) :   1.3803 B( 10-C , 31-C ) :   1.3266
B( 11-C , 30-O ) :   1.0097 B( 11-C , 32-C ) :   1.3907 B( 12-C , 29-O ) :   2.0399
B( 12-C , 30-O ) :   1.1695 B( 18-C , 19-C ) :   1.4102 B( 18-C , 20-C ) :   1.4157
B( 19-C , 21-C ) :   1.4398 B( 19-C , 22-H ) :   0.9752 B( 20-C , 23-C ) :   1.4430
B( 20-C , 24-H ) :   0.9758 B( 21-C , 25-C ) :   1.3939 B( 21-C , 26-H ) :   0.9765
B( 23-C , 25-C ) :   1.3932 B( 23-C , 27-H ) :   0.9764 B( 25-C , 28-H ) :   0.9732
B( 31-C , 35-C ) :   1.4774 B( 31-C , 37-H ) :   0.9410 B( 32-C , 33-C ) :   1.4271
B( 32-C , 38-H ) :   0.9801 B( 33-C , 34-H ) :   0.9715 B( 33-C , 35-C ) :   1.3554
B( 35-C , 36-H ) :   0.9786

MP2 TOTAL ENERGY:    -1034.930721101 Eh

-----------------------------------------------------------------------------
         ABSORPTION SPECTRUM VIA TRANSITION ELECTRIC DIPOLE MOMENTS
-----------------------------------------------------------------------------
State   Energy    Wavelength  fosc         T2        TX        TY        TZ
        (cm-1)      (nm)                 (au**2)    (au)      (au)      (au)
-----------------------------------------------------------------------------
   1   30585.8    326.9   0.088171777   0.94904   0.52113  -0.82306   0.00586
   2   32556.2    307.2   0.262577874   2.65522   1.45030   0.74285  -0.00531
   3   37514.4    266.6   1.125469445   9.87669   2.65455   1.68219   0.01732
   4   35749.2    279.7   0.001513363   0.01394  -0.03404  -0.11192   0.01587
   5   38568.5    259.3   0.131695595   1.12412  -0.83226  -0.65683  -0.00638
   6   41369.1    241.7   0.509069360   4.05113  -0.71976   1.87964   0.00587
   7   41542.5    240.7   0.001713609   0.01358  -0.06211   0.05444   0.08221
   8   46919.5    213.1   0.310999666   2.18214  -1.24211  -0.79944  -0.01374
   9   47871.9    208.9   0.151367519   1.04094   0.80554   0.62578  -0.02121
  10   43926.7    227.7   0.038372811   0.28759   0.46429  -0.24852  -0.10130
  11   43890.2    227.8   0.124289918   0.93227   0.65839  -0.70592   0.02191
  12   46499.5    215.1   0.140523572   0.99489   0.79494   0.60169  -0.03064
  13   45894.5    217.9   0.146679242   1.05216  -0.95947   0.35107  -0.09127
  14   46808.8    213.6   0.457005049   3.21417   0.30098  -1.76633  -0.06043
  15   47323.1    211.3   0.036879903   0.25656  -0.48260  -0.05075   0.14519
  16   48044.7    208.1   0.211185966   1.44709   0.25198  -0.06222   1.17462
  17   49083.0    203.7   0.386901878   2.59505  -1.50066   0.54045   0.22581
  18   49257.0    203.0   0.338584056   2.26294   1.18839  -0.92122   0.04517
  19   49804.5    200.8   0.016778803   0.11091  -0.06172   0.12968  -0.30047
  20   52741.4    189.6   0.175640857   1.09635   0.01921  -0.76003   0.71996
  21   51704.1    193.4   0.254364396   1.61960  -0.23133   0.35889   1.19887
  22   51783.0    193.1   0.164647577   1.04675   0.99644  -0.18899   0.13468
  23   51684.2    193.5   0.014701051   0.09364   0.22089  -0.20027   0.06885
  24   51179.6    195.4   0.009566988   0.06154  -0.17314  -0.17596   0.02453
  25   52068.0    192.1   0.006048762   0.03824  -0.04320  -0.04421   0.18554
  26   51750.1    193.2   0.115609617   0.73546  -0.61667   0.59549  -0.02397
  27   60245.1    166.0   0.002185067   0.01194  -0.07760   0.02921   0.07118
  28   55557.4    180.0   0.180431044   1.06917  -0.98313   0.31985   0.01789
  29   55111.4    181.5   0.002365643   0.01413  -0.01918   0.01437  -0.11643
  30   54748.2    182.7   0.002846836   0.01712  -0.12597   0.03508   0.00433

FINAL SINGLE POINT ENERGY     -1032.718714295230

DIPOLE MOMENT
-------------
                                X             Y             Z
Electronic contribution:     -5.28059      -3.62766      -0.14906
Nuclear contribution   :      4.72501       6.17663       0.20653
                        -----------------------------------------
Total Dipole Moment    :     -0.55559       2.54897       0.05747
                        -----------------------------------------
Magnitude (a.u.)       :      2.60945
Magnitude (Debye)      :      6.63269

Rotational constants in cm-1:     0.011605     0.006121     0.004181
Rotational constants in MHz :   347.917303   183.508149   125.354082

                             ****ORCA TERMINATED NORMALLY****
TOTAL RUN TIME: 0 days 4 hours 12 minutes 27 seconds 335 msec
