 Gaussian 09, Revision E.01,

 ----------------------------------------------------------------------
 #p B97D3/def2TZVP opt=tight freq=noraman nosymm int=ultrafine scrf=(SM
 D,solvent=Acetonitrile)
 ----------------------------------------------------------------------

 -----
 Title
 -----
 Symbolic Z-matrix:
 Charge =  0 Multiplicity = 1

 SCF Done:  E(RB97D3) =  -1035.08918393     A.U. after   15 cycles
 SCF Done:  E(RB97D3) =  -1035.08918396     A.U. after    6 cycles
 SCF Done:  E(RB97D3) =  -1035.08918396     A.U. after    6 cycles
 SCF Done:  E(RB97D3) =  -1035.08918397     A.U. after    5 cycles
 SCF Done:  E(RB97D3) =  -1035.08918397     A.U. after    5 cycles
 SCF Done:  E(RB97D3) =  -1035.08918397     A.U. after    5 cycles
 SCF Done:  E(RB97D3) =  -1035.08918397     A.U. after    5 cycles
 SCF Done:  E(RB97D3) =  -1035.08918397     A.U. after    6 cycles
 SCF Done:  E(RB97D3) =  -1035.08918397     A.U. after    7 cycles
 SCF Done:  E(RB97D3) =  -1035.08918397     A.U. after    7 cycles
 SCF Done:  E(RB97D3) =  -1035.06230865     A.U. after   13 cycles
 SCF Done:  E(RB97D3) =  -1035.08918742     A.U. after    4 cycles
 SCF Done:  E(RB97D3) =  -1035.08918754     A.U. after    8 cycles
 SCF Done:  E(RB97D3) =  -1035.08918758     A.U. after    7 cycles
 SCF Done:  E(RB97D3) =  -1035.08918759     A.U. after    7 cycles
 SCF Done:  E(RB97D3) =  -1035.08918759     A.U. after    5 cycles
 SCF Done:  E(RB97D3) =  -1035.08918759     A.U. after    5 cycles
 SCF Done:  E(RB97D3) =  -1035.08918759     A.U. after    4 cycles
 Optimization completed.
    -- Stationary point found.
 Normal termination of Gaussian 09 at Mon Nov 22 21:55:00 2021.

 --------------------------------------------------------------------
 #P Geom=AllCheck Guess=TCheck SCRF=Check GenChk RB97D3/def2TZVP Freq
 --------------------------------------------------------------------

 Structure from the checkpoint file:  "cp.chk"
 -----
 Title
 -----
 Charge =  0 Multiplicity = 1

 SCF Done:  E(RB97D3) =  -1035.08918760     A.U. after    1 cycles

  Exact polarizability: 624.597  41.433 515.061  -4.771  -2.555 258.753
 Approx polarizability: 787.926  50.668 709.947  -6.987  -3.124 335.796

                      1                      2                      3
                      A                      A                      A
 Frequencies --     15.8067                40.2807                54.3752
 Red. masses --      5.4170                 4.9970                 4.5907
 Frc consts  --      0.0008                 0.0048                 0.0080
 IR Inten    --      2.0345                 0.0466                 1.1708

                      4                      5                      6
                      A                      A                      A
 Frequencies --     62.2759                65.8279                94.6454
 Red. masses --      5.3488                 4.3896                 6.3198
 Frc consts  --      0.0122                 0.0112                 0.0334
 IR Inten    --      0.9046                 0.0124                 0.0782

                      7                      8                      9
                      A                      A                      A
 Frequencies --    136.1444               155.9839               197.4385
 Red. masses --      5.1060                 5.4404                 4.4905
 Frc consts  --      0.0558                 0.0780                 0.1031
 IR Inten    --      0.0024                 1.3157                 0.2795

                     10                     11                     12
                      A                      A                      A
 Frequencies --    233.1356               243.2979               253.0017
 Red. masses --      6.5995                 6.2034                 4.3482
 Frc consts  --      0.2113                 0.2164                 0.1640
 IR Inten    --      0.0277                 0.6302                 2.0561

                     13                     14                     15
                      A                      A                      A
 Frequencies --    298.5089               304.2431               324.1835
 Red. masses --      4.1812                 8.7727                 5.4051
 Frc consts  --      0.2195                 0.4784                 0.3347
 IR Inten    --      1.4701                11.1076                 0.2059

                     16                     17                     18
                      A                      A                      A
 Frequencies --    357.9966               363.4957               400.0680
 Red. masses --      6.7859                 5.8476                 2.9037
 Frc consts  --      0.5124                 0.4552                 0.2738
 IR Inten    --      0.7190                 3.9758                 0.2419

                     19                     20                     21
                      A                      A                      A
 Frequencies --    434.8975               446.9456               458.5880
 Red. masses --      3.1810                 7.2812                 3.4514
 Frc consts  --      0.3545                 0.8570                 0.4277
 IR Inten    --      0.6171                 0.4209                23.4216

                     22                     23                     24
                      A                      A                      A
 Frequencies --    484.3196               509.8867               534.5304
 Red. masses --      5.8541                 3.6501                 3.4335
 Frc consts  --      0.8091                 0.5591                 0.5780
 IR Inten    --     10.2810                 6.5040                 3.4294

                     25                     26                     27
                      A                      A                      A
 Frequencies --    551.2598               570.5040               603.2343
 Red. masses --      5.0854                 7.0505                 7.1283
 Frc consts  --      0.9105                 1.3520                 1.5283
 IR Inten    --     14.6701                19.8244                41.1300

                     28                     29                     30
                      A                      A                      A
 Frequencies --    613.6015               626.8375               632.5007
 Red. masses --      5.4082                 7.0742                 4.6106
 Frc consts  --      1.1997                 1.6377                 1.0867
 IR Inten    --      0.5114                12.3005                 3.2763

                     31                     32                     33
                      A                      A                      A
 Frequencies --    653.0268               666.6234               669.0190
 Red. masses --      5.8049                 5.3541                 6.2252
 Frc consts  --      1.4585                 1.4018                 1.6417
 IR Inten    --      5.1921                 0.5721                 3.1240

                     34                     35                     36
                      A                      A                      A
 Frequencies --    694.8455               696.1967               728.0259
 Red. masses --      3.9886                 1.8596                 2.4070
 Frc consts  --      1.1346                 0.5310                 0.7517
 IR Inten    --     27.4350                67.3982                 8.4849

                     37                     38                     39
                      A                      A                      A
 Frequencies --    743.0978               745.7268               748.8432
 Red. masses --      1.3798                 2.8349                 1.7343
 Frc consts  --      0.4489                 0.9289                 0.5730
 IR Inten    --     93.1962                51.9323               127.8155

                     40                     41                     42
                      A                      A                      A
 Frequencies --    767.7414               799.3792               817.1073
 Red. masses --      3.6075                 4.3344                 3.3504
 Frc consts  --      1.2528                 1.6319                 1.3180
 IR Inten    --      2.6515                10.7456                 2.3624

                     43                     44                     45
                      A                      A                      A
 Frequencies --    832.2587               849.5638               851.1065
 Red. masses --      1.2555                 1.5465                 5.5173
 Frc consts  --      0.5124                 0.6577                 2.3547
 IR Inten    --      0.0475                 0.1102                 0.8261

                     46                     47                     48
                      A                      A                      A
 Frequencies --    852.2066               887.3880               888.2722
 Red. masses --      1.5769                 1.9987                 4.4319
 Frc consts  --      0.6747                 0.9273                 2.0603
 IR Inten    --     15.2153                23.4195                31.6754

                     49                     50                     51
                      A                      A                      A
 Frequencies --    897.6999               920.5792               927.4817
 Red. masses --      2.1434                 3.8155                 1.3650
 Frc consts  --      1.0177                 1.9051                 0.6918
 IR Inten    --      5.4725                41.7271                 4.6500

                     52                     53                     54
                      A                      A                      A
 Frequencies --    944.5503               949.7914               951.0439
 Red. masses --      1.3686                 1.3230                 1.2948
 Frc consts  --      0.7194                 0.7032                 0.6900
 IR Inten    --      0.2028                 1.7839                 1.0693

                     55                     56                     57
                      A                      A                      A
 Frequencies --    968.9237               971.4372               975.4949
 Red. masses --      1.2683                 1.2970                 6.7166
 Frc consts  --      0.7015                 0.7211                 3.7658
 IR Inten    --      1.7209                 0.0151               131.1946

                     58                     59                     60
                      A                      A                      A
 Frequencies --    999.0296              1026.1950              1029.8854
 Red. masses --      6.2990                 2.5121                 2.1608
 Frc consts  --      3.7040                 1.5586                 1.3504
 IR Inten    --      4.3345                 7.5482                11.7351

                     61                     62                     63
                      A                      A                      A
 Frequencies --   1043.1890              1066.0150              1076.1236
 Red. masses --      1.9883                 5.2422                 1.5799
 Frc consts  --      1.2749                 3.5099                 1.0779
 IR Inten    --     11.7491               545.4655                17.5567

                     64                     65                     66
                      A                      A                      A
 Frequencies --   1105.6846              1127.8010              1151.1477
 Red. masses --      2.1561                 1.7681                 1.0757
 Frc consts  --      1.5530                 1.3250                 0.8398
 IR Inten    --     35.4079                26.7147                 0.0391

                     67                     68                     69
                      A                      A                      A
 Frequencies --   1152.1984              1154.8165              1169.8016
 Red. masses --      1.2105                 1.1424                 1.1499
 Frc consts  --      0.9468                 0.8976                 0.9271
 IR Inten    --     21.2938                50.5292                 1.3695

                     70                     71                     72
                      A                      A                      A
 Frequencies --   1172.6223              1193.9125              1220.3512
 Red. masses --      2.0698                 2.4183                 2.2646
 Frc consts  --      1.6769                 2.0310                 1.9871
 IR Inten    --     80.9238               158.1183                28.9698

                     73                     74                     75
                      A                      A                      A
 Frequencies --   1230.9141              1257.7267              1271.2148
 Red. masses --      2.5162                 2.6729                 2.0321
 Frc consts  --      2.2462                 2.4912                 1.9348
 IR Inten    --    114.9299                68.8350                40.3061

                     76                     77                     78
                      A                      A                      A
 Frequencies --   1302.7010              1326.0925              1330.2888
 Red. masses --      2.2741                 2.7097                 2.3779
 Frc consts  --      2.2738                 2.8075                 2.4793
 IR Inten    --      0.0687                17.1802                 0.3987

                     79                     80                     81
                      A                      A                      A
 Frequencies --   1332.2900              1349.8369              1380.1058
 Red. masses --      3.7970                 4.4956                 5.6181
 Frc consts  --      3.9709                 4.8261                 6.3047
 IR Inten    --     62.7828                 8.4462                 4.4335

                     82                     83                     84
                      A                      A                      A
 Frequencies --   1384.3633              1404.6201              1439.9537
 Red. masses --      3.3309                 3.7502                 2.1866
 Frc consts  --      3.7610                 4.3594                 2.6713
 IR Inten    --      2.3776                12.8956                 7.1619

                     85                     86                     87
                      A                      A                      A
 Frequencies --   1441.3970              1461.2819              1486.9925
 Red. masses --      2.5910                 2.5986                 2.7290
 Frc consts  --      3.1716                 3.2693                 3.5552
 IR Inten    --     17.8606                84.8630                10.0678

                     88                     89                     90
                      A                      A                      A
 Frequencies --   1490.9903              1500.0878              1550.2522
 Red. masses --      2.4344                 3.0224                 8.0896
 Frc consts  --      3.1886                 4.0072                11.4546
 IR Inten    --     38.1048                29.0737                60.2387

                     91                     92                     93
                      A                      A                      A
 Frequencies --   1575.9485              1579.1933              1588.7278
 Red. masses --      5.5242                 5.2984                 6.5659
 Frc consts  --      8.0836                 7.7851                 9.7644
 IR Inten    --      1.4500                15.9018               156.4259

                     94                     95                     96
                      A                      A                      A
 Frequencies --   1599.4654              1604.0393              1613.1426
 Red. masses --      5.7355                 6.1535                 5.9134
 Frc consts  --      8.6451                 9.3283                 9.0664
 IR Inten    --     13.6198                36.6881                49.8361

                     97                     98                     99
                      A                      A                      A
 Frequencies --   1713.1870              3115.7101              3120.8451
 Red. masses --     12.9090                 1.0848                 1.0868
 Frc consts  --     22.3230                 6.2046                 6.2363
 IR Inten    --    905.1022                 2.8342                 0.2978

                    100                    101                    102
                      A                      A                      A
 Frequencies --   3122.9358              3129.6385              3131.6239
 Red. masses --      1.0861                 1.0908                 1.0861
 Frc consts  --      6.2410                 6.2947                 6.2758
 IR Inten    --      0.6109                19.6712                 0.8299

                    103                    104                    105
                      A                      A                      A
 Frequencies --   3132.4412              3135.1180              3141.9544
 Red. masses --      1.0898                 1.0944                 1.0898
 Frc consts  --      6.3002                 6.3380                 6.3384
 IR Inten    --     19.2238                61.8762                20.7727

                    106                    107                    108
                      A                      A                      A
 Frequencies --   3143.8339              3144.1905              3147.4575
 Red. masses --      1.0978                 1.0951                 1.0919
 Frc consts  --      6.3929                 6.3784                 6.3729
 IR Inten    --     33.1953                33.9574                 0.4161

                    109                    110                    111
                      A                      A                      A
 Frequencies --   3153.7937              3161.2028              3163.5733
 Red. masses --      1.0951                 1.0930                 1.0913
 Frc consts  --      6.4178                 6.4351                 6.4352
 IR Inten    --     19.8597                22.2413                23.7096

 - Thermochemistry -
 -------------------
 Temperature   298.150 Kelvin.  Pressure   1.00000 Atm.
 Atom     1 has atomic number  6 and mass  12.00000

 Molecular mass:   322.09938 amu.
 Principal axes and moments of inertia in atomic units:
                           1         2         3
     Eigenvalues --  5215.611039974.46333**********
           X            0.99996  -0.00836   0.00418
           Y            0.00834   0.99996   0.00378
           Z           -0.00422  -0.00374   0.99998
 This molecule is an asymmetric top.
 Rotational symmetry number  1.
 Warning -- assumption of classical behavior for rotation
           may cause significant error
 Rotational temperatures (Kelvin)      0.01661     0.00868     0.00595
 Rotational constants (GHZ):           0.34603     0.18094     0.12398
 Zero-point vibrational energy     773464.4 (Joules/Mol)
                                  184.86243 (Kcal/Mol)
 Warning -- explicit consideration of  28 degrees of freedom as
           vibrations may cause significant error
 Vibrational temperatures:     22.74    57.95    78.23    89.60    94.71
          (Kelvin)            136.17   195.88   224.43   284.07   335.43
                              350.05   364.01   429.49   437.74   466.43
                              515.08   522.99   575.61   625.72   643.05
                              659.81   696.83   733.61   769.07   793.14
                              820.83   867.92   882.83   901.88   910.03
                              939.56   959.12   962.57   999.73  1001.67
                             1047.47  1069.15  1072.93  1077.42  1104.61
                             1150.13  1175.63  1197.43  1222.33  1224.55
                             1226.13  1276.75  1278.02  1291.59  1324.51
                             1334.44  1359.00  1366.54  1368.34  1394.06
                             1397.68  1403.52  1437.38  1476.46  1481.77
                             1500.91  1533.76  1548.30  1590.83  1622.65
                             1656.24  1657.75  1661.52  1683.08  1687.14
                             1717.77  1755.81  1771.01  1809.59  1828.99
                             1874.29  1907.95  1913.99  1916.87  1942.11
                             1985.66  1991.79  2020.93  2071.77  2073.85
                             2102.46  2139.45  2145.20  2158.29  2230.46
                             2267.44  2272.10  2285.82  2301.27  2307.85
                             2320.95  2464.89  4482.81  4490.19  4493.20
                             4502.85  4505.70  4506.88  4510.73  4520.57
                             4523.27  4523.78  4528.48  4537.60  4548.26
                             4551.67

 Zero-point correction=                           0.294597 (Hartree/Particle)
 Thermal correction to Energy=                    0.312957
 Thermal correction to Enthalpy=                  0.313901
 Thermal correction to Gibbs Free Energy=         0.246691
 Sum of electronic and zero-point Energies=          -1034.794591
 Sum of electronic and thermal Energies=             -1034.776230
 Sum of electronic and thermal Enthalpies=           -1034.775286
 Sum of electronic and thermal Free Energies=        -1034.842496

                     E (Thermal)             CV                S
                      KCal/Mol        Cal/Mol-Kelvin    Cal/Mol-Kelvin
 Total                  196.384             75.563            141.455
 Electronic               0.000              0.000              0.000
 Translational            0.889              2.981             43.205
 Rotational               0.889              2.981             34.981
 Vibrational            194.606             69.602             63.270
 Vibration     1          0.593              1.986              7.102
 Vibration     2          0.594              1.981              5.245
 Vibration     3          0.596              1.976              4.652
 Vibration     4          0.597              1.972              4.384
 Vibration     5          0.597              1.971              4.274
 Vibration     6          0.603              1.953              3.562
 Vibration     7          0.614              1.917              2.857
 Vibration     8          0.620              1.896              2.598
 Vibration     9          0.637              1.843              2.157
 Vibration    10          0.654              1.790              1.855
 Vibration    11          0.659              1.774              1.779
 Vibration    12          0.664              1.758              1.710
 Vibration    13          0.692              1.676              1.425
 Vibration    14          0.695              1.666              1.393
 Vibration    15          0.709              1.627              1.289
 Vibration    16          0.733              1.559              1.131
 Vibration    17          0.737              1.547              1.107
 Vibration    18          0.766              1.470              0.962
 Vibration    19          0.795              1.394              0.843
 Vibration    20          0.806              1.368              0.805
 Vibration    21          0.817              1.342              0.770
 Vibration    22          0.840              1.285              0.699
 Vibration    23          0.865              1.228              0.634
 Vibration    24          0.890              1.174              0.577
 Vibration    25          0.907              1.137              0.542
 Vibration    26          0.927              1.095              0.503
 Vibration    27          0.962              1.025              0.444
 Vibration    28          0.973              1.003              0.427

 Optimization completed.
    -- Stationary point found.
 Normal termination of Gaussian 09 at Tue Nov 23 00:18:59 2021.
 Gaussian 09:  ES64L-G09RevE.01 30-Nov-2015

 ----------------------------------------------------------------------
 #p B97D3 chkbasis geom=allcheck Guess=Read int=ultrafine scrf=(SMD,sol
 vent=Acetonitrile) td=(NStates=30)
 ----------------------------------------------------------------------

 Structure from the checkpoint file:  "cp.chk"
 -----
 Title
 -----
 Charge =  0 Multiplicity = 1

                         Standard orientation:
 ---------------------------------------------------------------------
 Center     Atomic      Atomic             Coordinates (Angstroms)
 Number     Number       Type             X           Y           Z
 ---------------------------------------------------------------------
      1          6           0        1.902963    4.222325    0.010230
      2          6           0        0.589875    3.811498   -0.001612
      3          6           0        0.262338    2.427848   -0.005935
      4          6           0        1.318794    1.454754   -0.000974
      5          6           0        2.664744    1.918510    0.015796
      6          6           0        2.948042    3.266243    0.020427
      7          6           0       -1.076950    1.995873   -0.009186
      8          6           0        0.989210    0.067340   -0.011109
      9          6           0       -0.355553   -0.328579   -0.022869
     10          6           0       -1.409975    0.651581   -0.013251
     11          6           0       -2.800774    0.199737   -0.004078
     12          6           0       -3.058292   -1.178057   -0.007876
     13          6           0       -0.696159   -1.765153   -0.057917
     14          1           0       -1.850728    2.756216   -0.005917
     15          1           0        2.143518    5.282507    0.013543
     16          1           0       -0.220723    4.536484   -0.006773
     17          1           0        3.474264    1.196831    0.024605
     18          1           0        3.981963    3.601396    0.032639
     19          6           0        2.124071   -0.900432    0.002975
     20          6           0        2.751393   -1.272740   -1.191404
     21          6           0        2.631695   -1.372181    1.219006
     22          6           0        3.852528   -2.129468   -1.172016
     23          1           0        2.369855   -0.893043   -2.135965
     24          6           0        3.733784   -2.227451    1.238478
     25          1           0        2.155684   -1.070896    2.148891
     26          6           0        4.345673   -2.612039    0.042771
     27          1           0        4.328297   -2.416923   -2.106784
     28          1           0        4.116845   -2.591286    2.189085
     29          1           0        5.204990   -3.278061    0.057967
     30          8           0        0.073734   -2.700401   -0.110197
     31          8           0       -2.038844   -2.101753   -0.033326
     32          6           0       -3.918805    1.058558    0.015642
     33          6           0       -4.352891   -1.699330    0.009067
     34          6           0       -5.434618   -0.826507    0.029212
     35          1           0       -6.446769   -1.221675    0.042490
     36          6           0       -5.213807    0.556977    0.031727
     37          1           0       -6.056185    1.243152    0.046944
     38          1           0       -3.772963    2.133419    0.019478
     39          1           0       -4.490880   -2.776723    0.005348
 ---------------------------------------------------------------------

 SCF Done:  E(RB97D3) =  -1035.08918923     A.U. after    5 cycles

 Excitation energies and oscillator strengths:

 Excited State   1:      Singlet-A      2.9559 eV  419.45 nm  f=0.0530  <S**2>=0.000
      82 -> 85         0.11009
      84 -> 85         0.67215
      84 -> 86         0.11954
 This state for optimization and/or second-order correction.
 Total Energy, E(TD-HF/TD-KS) =  -1034.98056180
 Copying the excited state density for this state as the 1-particle RhoCI density.

 Excited State   2:      Singlet-A      3.1696 eV  391.17 nm  f=0.0002  <S**2>=0.000
      83 -> 85         0.70531

 Excited State   3:      Singlet-A      3.3681 eV  368.11 nm  f=0.0490  <S**2>=0.000
      80 -> 85         0.12726
      81 -> 85         0.41842
      82 -> 85         0.41993
      84 -> 86        -0.35729

 Excited State   4:      Singlet-A      3.4739 eV  356.90 nm  f=0.0876  <S**2>=0.000
      80 -> 85         0.12408
      81 -> 85        -0.13002
      82 -> 85         0.47614
      84 -> 85        -0.15715
      84 -> 86         0.43936

 Excited State   5:      Singlet-A      3.5363 eV  350.60 nm  f=0.0529  <S**2>=0.000
      80 -> 85         0.56308
      81 -> 85        -0.35695
      84 -> 86        -0.22085

 Excited State   6:      Singlet-A      3.6195 eV  342.54 nm  f=0.0013  <S**2>=0.000
      83 -> 86         0.70258

 Excited State   7:      Singlet-A      3.8542 eV  321.68 nm  f=0.3760  <S**2>=0.000
      78 -> 85        -0.14019
      80 -> 85         0.29845
      81 -> 85         0.30717
      81 -> 86         0.13819
      82 -> 85        -0.16518
      82 -> 86         0.37290
      84 -> 86         0.23779
      84 -> 87        -0.14438
      84 -> 89         0.12262

 Excited State   8:      Singlet-A      3.9828 eV  311.30 nm  f=0.0417  <S**2>=0.000
      80 -> 86         0.51322
      81 -> 86        -0.45368
      82 -> 86         0.14823

 Excited State   9:      Singlet-A      3.9992 eV  310.02 nm  f=0.0948  <S**2>=0.000
      78 -> 85         0.27438
      80 -> 85        -0.18869
      81 -> 85        -0.21189
      82 -> 85         0.16780
      82 -> 86         0.51810
      84 -> 86        -0.11277

 Excited State  10:      Singlet-A      4.1748 eV  296.98 nm  f=0.0442  <S**2>=0.000
      79 -> 85        -0.14155
      80 -> 86        -0.23357
      81 -> 86        -0.20353
      84 -> 87         0.55829
      84 -> 88         0.11147
      84 -> 89         0.15402

 Excited State  11:      Singlet-A      4.1782 eV  296.74 nm  f=0.0017  <S**2>=0.000
      79 -> 85         0.68993
      84 -> 87         0.11344

 Excited State  12:      Singlet-A      4.2582 eV  291.16 nm  f=0.2396  <S**2>=0.000
      78 -> 85        -0.21788
      80 -> 86         0.36013
      81 -> 86         0.39487
      84 -> 86        -0.11054
      84 -> 87         0.22878
      84 -> 89         0.23764

 Excited State  13:      Singlet-A      4.2627 eV  290.86 nm  f=0.0204  <S**2>=0.000
      80 -> 86         0.10075
      81 -> 86         0.11037
      84 -> 88         0.63107
      84 -> 89        -0.26365

 Excited State  14:      Singlet-A      4.3795 eV  283.10 nm  f=0.0038  <S**2>=0.000
      78 -> 85         0.28019
      82 -> 86        -0.12612
      84 -> 87        -0.12995
      84 -> 88         0.20287
      84 -> 89         0.46447
      84 -> 90        -0.31957

 Excited State  15:      Singlet-A      4.4966 eV  275.73 nm  f=0.3313  <S**2>=0.000
      78 -> 85        -0.30772
      80 -> 85        -0.10797
      81 -> 85        -0.14027
      82 -> 85         0.11561
      84 -> 86        -0.10223
      84 -> 87        -0.18999
      84 -> 88         0.16058
      84 -> 89         0.30004
      84 -> 90         0.38049

 Excited State  16:      Singlet-A      4.6165 eV  268.57 nm  f=0.0010  <S**2>=0.000
      79 -> 86         0.69645
      83 -> 87         0.10044

 Excited State  17:      Singlet-A      4.6603 eV  266.04 nm  f=0.0020  <S**2>=0.000
      79 -> 86        -0.10028
      83 -> 87         0.65321
      83 -> 88        -0.10293
      83 -> 89        -0.18066

 Excited State  18:      Singlet-A      4.7052 eV  263.50 nm  f=0.1952  <S**2>=0.000
      77 -> 85         0.29499
      78 -> 85         0.28743
      78 -> 86         0.15238
      81 -> 86         0.12759
      82 -> 89         0.13511
      84 -> 87         0.10722
      84 -> 90         0.36247
      84 -> 91        -0.22036

 Excited State  19:      Singlet-A      4.7818 eV  259.28 nm  f=0.0186  <S**2>=0.000
      77 -> 85         0.40222
      78 -> 86        -0.36010
      81 -> 87         0.16532
      82 -> 87        -0.21081
      82 -> 89        -0.12019
      84 -> 91        -0.25994

 Excited State  20:      Singlet-A      4.8551 eV  255.37 nm  f=0.0378  <S**2>=0.000
      81 -> 88        -0.10317
      82 -> 87        -0.20637
      82 -> 90         0.11299
      83 -> 87         0.12489
      83 -> 88         0.24926
      83 -> 89         0.46941
      83 -> 90         0.29557

 Excited State  21:      Singlet-A      4.8699 eV  254.59 nm  f=0.0808  <S**2>=0.000
      78 -> 85        -0.10590
      78 -> 86        -0.16996
      82 -> 87         0.42555
      82 -> 88         0.26313
      82 -> 89         0.23870
      82 -> 90        -0.15329
      83 -> 88         0.10430
      83 -> 89         0.19465
      83 -> 90         0.20023

 Excited State  22:      Singlet-A      4.8877 eV  253.66 nm  f=0.0085  <S**2>=0.000
      82 -> 87        -0.11096
      82 -> 88         0.59219
      82 -> 89        -0.34723

 Excited State  23:      Singlet-A      4.9684 eV  249.54 nm  f=0.0402  <S**2>=0.000
      77 -> 85         0.36122
      78 -> 85        -0.10820
      78 -> 86         0.31039
      81 -> 87        -0.19370
      82 -> 87         0.10695
      82 -> 89        -0.20981
      82 -> 90        -0.10210
      82 -> 91         0.10895
      84 -> 90        -0.19552
      84 -> 91         0.17892
      84 -> 92         0.16135

 Excited State  24:      Singlet-A      5.0223 eV  246.87 nm  f=0.0058  <S**2>=0.000
      78 -> 86         0.10259
      80 -> 87        -0.16944
      80 -> 89         0.11511
      81 -> 87         0.22604
      81 -> 88         0.25239
      81 -> 89        -0.22451
      83 -> 89        -0.19505
      83 -> 90         0.46546

 Excited State  25:      Singlet-A      5.0290 eV  246.54 nm  f=0.0166  <S**2>=0.000
      78 -> 86         0.15149
      80 -> 87        -0.33622
      80 -> 88         0.12544
      80 -> 89         0.11977
      81 -> 87         0.35759
      81 -> 88        -0.27459
      81 -> 89        -0.11821
      82 -> 90        -0.11353
      83 -> 90        -0.23740

 Excited State  26:      Singlet-A      5.0787 eV  244.13 nm  f=0.0225  <S**2>=0.000
      77 -> 86        -0.26908
      78 -> 86         0.19317
      80 -> 87         0.31375
      80 -> 88        -0.16786
      80 -> 89        -0.17455
      81 -> 88        -0.16409
      81 -> 89        -0.15019
      81 -> 90        -0.15977
      82 -> 87        -0.12704
      82 -> 89         0.19511
      82 -> 90        -0.18773
      84 -> 91        -0.18531

 Excited State  27:      Singlet-A      5.0954 eV  243.33 nm  f=0.0221  <S**2>=0.000
      78 -> 86         0.11073
      80 -> 87         0.29297
      80 -> 88         0.24447
      80 -> 90        -0.10266
      81 -> 87         0.28260
      81 -> 88         0.32339
      81 -> 89         0.22365
      81 -> 90        -0.18104
      82 -> 90        -0.11985
      83 -> 90        -0.10743
      84 -> 91         0.11134

 Excited State  28:      Singlet-A      5.1087 eV  242.69 nm  f=0.0197  <S**2>=0.000
      80 -> 88        -0.29715
      80 -> 89         0.26211
      81 -> 87         0.12803
      81 -> 88        -0.30720
      81 -> 89         0.39921
      83 -> 90         0.14482

 Excited State  29:      Singlet-A      5.1329 eV  241.55 nm  f=0.0642  <S**2>=0.000
      77 -> 86        -0.28969
      78 -> 86         0.10621
      81 -> 89         0.14914
      82 -> 87         0.15044
      82 -> 89        -0.11179
      82 -> 90         0.42036
      84 -> 90        -0.10582
      84 -> 91        -0.24033
      84 -> 92         0.13108

 Excited State  30:      Singlet-A      5.1980 eV  238.52 nm  f=0.0005  <S**2>=0.000
      76 -> 85         0.69886

 The electronic state is 1-A.
 Alpha  occ. eigenvalues --  -18.81256 -18.73781 -10.03229  -9.97372  -9.93606
 Alpha  occ. eigenvalues --   -9.93378  -9.93309  -9.92493  -9.92414  -9.92377
 Alpha  occ. eigenvalues --   -9.91513  -9.91058  -9.91016  -9.90958  -9.90958
 Alpha  occ. eigenvalues --   -9.90835  -9.90825  -9.90820  -9.90750  -9.90440
 Alpha  occ. eigenvalues --   -9.90106  -9.90101  -9.90040  -9.90038  -9.89972
 Alpha  occ. eigenvalues --   -1.02801  -0.94710  -0.81706  -0.79188  -0.78141
 Alpha  occ. eigenvalues --   -0.76486  -0.72957  -0.70670  -0.69151  -0.68270
 Alpha  occ. eigenvalues --   -0.67762  -0.67510  -0.65017  -0.61139  -0.58641
 Alpha  occ. eigenvalues --   -0.57591  -0.55803  -0.54946  -0.54436  -0.51707
 Alpha  occ. eigenvalues --   -0.51140  -0.50011  -0.47147  -0.46782  -0.45013
 Alpha  occ. eigenvalues --   -0.43057  -0.42638  -0.42547  -0.41330  -0.40856
 Alpha  occ. eigenvalues --   -0.40415  -0.39789  -0.39332  -0.38692  -0.38470
 Alpha  occ. eigenvalues --   -0.37514  -0.37075  -0.36986  -0.35877  -0.34950
 Alpha  occ. eigenvalues --   -0.34842  -0.33980  -0.32517  -0.32351  -0.31675
 Alpha  occ. eigenvalues --   -0.31583  -0.31054  -0.30029  -0.29519  -0.29434
 Alpha  occ. eigenvalues --   -0.28709  -0.26509  -0.25129  -0.24898  -0.22782
 Alpha  occ. eigenvalues --   -0.22349  -0.21725  -0.21283  -0.19418
 Alpha virt. eigenvalues --   -0.09702  -0.08023  -0.04287  -0.03777  -0.03709
 Alpha virt. eigenvalues --   -0.03116  -0.01452   0.00446   0.04010   0.04398
 Alpha virt. eigenvalues --    0.04881   0.06084   0.06154   0.06221   0.07532

 Mulliken charges:
               1
     1  C   -0.097035
     2  C   -0.243530
     3  C    0.201880
     4  C    0.040205
     5  C   -0.206848
     6  C   -0.139667
     7  C   -0.437017
     8  C    0.315549
     9  C   -0.163102
    10  C    0.207569
    11  C    0.132621
    12  C    0.201989
    13  C    0.287703
    14  H    0.126418
    15  H    0.137207
    16  H    0.130755
    17  H    0.145652
    18  H    0.136267
    19  C    0.179855
    20  C   -0.230575
    21  C   -0.230237
    22  C   -0.162284
    23  H    0.123317
    24  C   -0.162368
    25  H    0.123407
    26  C   -0.117598
    27  H    0.128866
    28  H    0.128775
    29  H    0.132189
    30  O   -0.318259
    31  O   -0.161404
    32  C   -0.230208
    33  C   -0.269672
    34  C   -0.103276
    35  H    0.139445
    36  C   -0.144524
    37  H    0.136361
    38  H    0.134425
    39  H    0.127147
 Sum of Mulliken charges =  -0.00000

 Dipole moment (field-independent basis, Debye):
    X=             -1.3226    Y=              6.2001    Z=              0.1955  Tot=              6.3426
 Quadrupole moment (field-independent basis, Debye-Ang):
   XX=           -114.4626   YY=           -136.6378   ZZ=           -141.8579
   XY=             -1.6844   XZ=             -0.3785   YZ=             -0.9127

 Normal termination of Gaussian 09 at Tue Nov 23 02:17:18 2021.
