 Gaussian 09, Revision E.01,

 ----------------------------------------------------------------------
 #p b3lyp/def2TZVP opt=tight freq=noraman nosymm int=ultrafine scrf=(SM
 D,solvent=Acetonitrile) EmpiricalDispersion=GD3BJ
 ----------------------------------------------------------------------

 -----
 Title
 -----
 Symbolic Z-matrix:
 Charge =  0 Multiplicity = 1

 SCF Done:  E(RB3LYP) =  -1035.86910559     A.U. after   14 cycles
 SCF Done:  E(RB3LYP) =  -1035.86910577     A.U. after    7 cycles
 SCF Done:  E(RB3LYP) =  -1035.86910574     A.U. after    7 cycles
 SCF Done:  E(RB3LYP) =  -1035.86910590     A.U. after    7 cycles
 SCF Done:  E(RB3LYP) =  -1035.86910590     A.U. after    5 cycles
 SCF Done:  E(RB3LYP) =  -1035.86910591     A.U. after    4 cycles
 Optimization completed.
    -- Stationary point found.
 Normal termination of Gaussian 09 at Mon Nov 22 16:38:53 2021.

 --------------------------------------------------------------------
 #P Geom=AllCheck Guess=TCheck SCRF=Check GenChk RB3LYP/def2TZVP Freq
 --------------------------------------------------------------------

 Structure from the checkpoint file:  "cp.chk"
 -----
 Title
 -----
 Charge =  0 Multiplicity = 1

 SCF Done:  E(RB3LYP) =  -1035.86910591     A.U. after    1 cycles

  Exact polarizability: 577.756  33.594 488.683  -0.029  -0.020 252.828
 Approx polarizability: 589.363  28.067 541.701  -0.034  -0.021 288.394

                      1                      2                      3
                      A                      A                      A
 Frequencies --      3.8240                42.6182                54.3530
 Red. masses --      4.9922                 5.0593                 4.9103
 Frc consts  --      0.0000                 0.0054                 0.0085
 IR Inten    --      1.7032                 0.3370                 1.3415

                      4                      5                      6
                      A                      A                      A
 Frequencies --     62.4704                69.8376                96.7982
 Red. masses --      5.3954                 4.4352                 6.3462
 Frc consts  --      0.0124                 0.0127                 0.0350
 IR Inten    --      1.0028                 0.0031                 0.0786

                      7                      8                      9
                      A                      A                      A
 Frequencies --    141.6418               159.2266               203.9092
 Red. masses --      5.0561                 5.4420                 4.4891
 Frc consts  --      0.0598                 0.0813                 0.1100
 IR Inten    --      0.0000                 1.1627                 0.2920

                     10                     11                     12
                      A                      A                      A
 Frequencies --    237.8424               251.3878               258.0190
 Red. masses --      6.6111                 6.1952                 4.3658
 Frc consts  --      0.2203                 0.2307                 0.1712
 IR Inten    --      0.0193                 0.7077                 1.9419

                     13                     14                     15
                      A                      A                      A
 Frequencies --    309.7982               309.9882               334.7644
 Red. masses --      8.6937                 4.2312                 5.3689
 Frc consts  --      0.4916                 0.2396                 0.3545
 IR Inten    --     11.5231                 1.5548                 0.1857

                     16                     17                     18
                      A                      A                      A
 Frequencies --    366.3874               371.1519               412.4898
 Red. masses --      6.7111                 5.8680                 2.8790
 Frc consts  --      0.5308                 0.4763                 0.2886
 IR Inten    --      1.4962                 4.2746                 0.1321

                     19                     20                     21
                      A                      A                      A
 Frequencies --    449.8897               458.0973               474.3143
 Red. masses --      3.1790                 7.3666                 3.4287
 Frc consts  --      0.3791                 0.9108                 0.4545
 IR Inten    --      0.7108                 0.0899                24.5551

                     22                     23                     24
                      A                      A                      A
 Frequencies --    496.6653               526.8427               551.7823
 Red. masses --      5.8111                 3.6040                 3.3769
 Frc consts  --      0.8446                 0.5894                 0.6058
 IR Inten    --      9.6764                 6.2338                 3.9311

                     25                     26                     27
                      A                      A                      A
 Frequencies --    565.3881               583.8867               616.2877
 Red. masses --      5.1058                 6.8872                 7.0929
 Frc consts  --      0.9616                 1.3834                 1.5872
 IR Inten    --     14.5755                17.6018                39.7165

                     28                     29                     30
                      A                      A                      A
 Frequencies --    629.2015               640.9535               651.2170
 Red. masses --      5.6449                 7.0750                 4.3591
 Frc consts  --      1.3167                 1.7125                 1.0892
 IR Inten    --      0.2898                12.6882                 4.1527

                     31                     32                     33
                      A                      A                      A
 Frequencies --    668.7747               684.9715               688.4165
 Red. masses --      5.8189                 6.2216                 5.2353
 Frc consts  --      1.5334                 1.7199                 1.4618
 IR Inten    --      4.8546                 2.6453                 0.3882

                     34                     35                     36
                      A                      A                      A
 Frequencies --    713.2577               716.3408               753.8318
 Red. masses --      6.3653                 1.5932                 2.2936
 Frc consts  --      1.9079                 0.4817                 0.7679
 IR Inten    --     12.5419                86.7081                 8.2016

                     37                     38                     39
                      A                      A                      A
 Frequencies --    767.0765               769.0210               774.3208
 Red. masses --      2.7856                 1.3725                 1.7316
 Frc consts  --      0.9657                 0.4782                 0.6117
 IR Inten    --     52.4889                88.7035               149.1280

                     40                     41                     42
                      A                      A                      A
 Frequencies --    794.6292               820.3625               846.4561
 Red. masses --      3.4641                 4.0933                 3.2694
 Frc consts  --      1.2888                 1.6231                 1.3802
 IR Inten    --      5.7770                11.0143                 0.9839

                     43                     44                     45
                      A                      A                      A
 Frequencies --    859.6531               870.7821               880.9504
 Red. masses --      1.2533                 5.5447                 1.5112
 Frc consts  --      0.5457                 2.4771                 0.6910
 IR Inten    --      0.0265                 0.2786                 4.8975

                     46                     47                     48
                      A                      A                      A
 Frequencies --    883.9481               910.8967               924.4308
 Red. masses --      1.6755                 5.6347                 1.9824
 Frc consts  --      0.7714                 2.7546                 0.9981
 IR Inten    --      7.3657                22.2204                27.4676

                     49                     50                     51
                      A                      A                      A
 Frequencies --    927.6034               952.5302               964.7283
 Red. masses --      2.0992                 3.3623                 1.3729
 Frc consts  --      1.0642                 1.7974                 0.7528
 IR Inten    --      4.3318                20.3338                 4.2867

                     52                     53                     54
                      A                      A                      A
 Frequencies --    980.7822               986.5123               987.7570
 Red. masses --      1.3736                 1.3414                 1.3010
 Frc consts  --      0.7785                 0.7692                 0.7478
 IR Inten    --      0.1780                 2.1999                 0.8375

                     55                     56                     57
                      A                      A                      A
 Frequencies --   1004.3856              1005.5001              1007.7437
 Red. masses --      1.2949                 6.4199                 1.3170
 Frc consts  --      0.7696                 3.8242                 0.7880
 IR Inten    --      0.3889                68.4326                 0.0488

                     58                     59                     60
                      A                      A                      A
 Frequencies --   1022.3583              1047.1052              1052.6922
 Red. masses --      6.2895                 2.3627                 2.1421
 Frc consts  --      3.8732                 1.5263                 1.3986
 IR Inten    --      4.6432                 9.9625                 8.6518

                     61                     62                     63
                      A                      A                      A
 Frequencies --   1065.2248              1098.8976              1117.3647
 Red. masses --      1.9667                 1.5679                 5.4326
 Frc consts  --      1.3148                 1.1156                 3.9962
 IR Inten    --     10.0423                15.3607               363.2255

                     64                     65                     66
                      A                      A                      A
 Frequencies --   1132.2981              1154.4157              1172.1521
 Red. masses --      1.9260                 1.7411                 1.0992
 Frc consts  --      1.4549                 1.3671                 0.8898
 IR Inten    --     75.2391                59.4189                 0.0016

                     67                     68                     69
                      A                      A                      A
 Frequencies --   1174.0254              1177.4745              1193.4555
 Red. masses --      1.1926                 1.2159                 1.1403
 Frc consts  --      0.9685                 0.9932                 0.9569
 IR Inten    --      6.8927               101.8537                 0.3557

                     70                     71                     72
                      A                      A                      A
 Frequencies --   1201.4407              1225.1781              1249.6421
 Red. masses --      2.3662                 2.1355                 2.5565
 Frc consts  --      2.0123                 1.8886                 2.3521
 IR Inten    --     92.9827               256.0778                58.0686

                     73                     74                     75
                      A                      A                      A
 Frequencies --   1261.9774              1274.7036              1302.8087
 Red. masses --      2.7536                 2.9189                 2.1371
 Frc consts  --      2.5838                 2.7944                 2.1372
 IR Inten    --    112.8377               147.3922                49.1871

                     76                     77                     78
                      A                      A                      A
 Frequencies --   1312.1507              1343.9589              1353.6720
 Red. masses --      4.9088                 4.9660                 1.4834
 Frc consts  --      4.9796                 5.2848                 1.6015
 IR Inten    --      0.0039                54.8806                 0.0317

                     79                     80                     81
                      A                      A                      A
 Frequencies --   1356.4046              1371.2698              1408.1168
 Red. masses --      2.8760                 2.8122                 5.8173
 Frc consts  --      3.1176                 3.1156                 6.7959
 IR Inten    --     20.7153                32.0926                 6.5608

                     82                     83                     84
                      A                      A                      A
 Frequencies --   1411.9947              1438.0129              1475.1676
 Red. masses --      3.2468                 3.1595                 2.1766
 Frc consts  --      3.8139                 3.8494                 2.7906
 IR Inten    --      3.1066                14.1946                 8.2428

                     85                     86                     87
                      A                      A                      A
 Frequencies --   1476.9359              1498.8880              1524.7458
 Red. masses --      2.6097                 2.6011                 2.7036
 Frc consts  --      3.3540                 3.4431                 3.7033
 IR Inten    --     20.3051                88.5632                13.4058

                     88                     89                     90
                      A                      A                      A
 Frequencies --   1528.9893              1537.8183              1596.0519
 Red. masses --      2.5236                 3.0754                 8.2773
 Frc consts  --      3.4760                 4.2851                12.4232
 IR Inten    --     49.3745                28.1546                60.8100

                     91                     92                     93
                      A                      A                      A
 Frequencies --   1617.5227              1622.8602              1634.8859
 Red. masses --      5.5581                 5.2729                 6.8215
 Frc consts  --      8.5680                 8.1820                10.7426
 IR Inten    --      1.6338                23.7754               147.5616

                     94                     95                     96
                      A                      A                      A
 Frequencies --   1643.0710              1648.3379              1657.9506
 Red. masses --      5.7715                 6.2691                 5.8791
 Frc consts  --      9.1802                10.0357                 9.5215
 IR Inten    --     14.8569                47.5994                53.4693

                     97                     98                     99
                      A                      A                      A
 Frequencies --   1759.6284              3168.6550              3173.4309
 Red. masses --     12.9150                 1.0858                 1.0875
 Frc consts  --     23.5606                 6.4231                 6.4528
 IR Inten    --    942.3115                 2.4133                 0.0592

                    100                    101                    102
                      A                      A                      A
 Frequencies --   3175.6949              3181.6511              3184.0828
 Red. masses --      1.0870                 1.0913                 1.0871
 Frc consts  --      6.4588                 6.5086                 6.4936
 IR Inten    --      0.2326                13.5436                 0.6200

                    103                    104                    105
                      A                      A                      A
 Frequencies --   3185.1696              3187.3273              3193.7963
 Red. masses --      1.0905                 1.0946                 1.0903
 Frc consts  --      6.5186                 6.5521                 6.5527
 IR Inten    --     13.0175                41.3944                13.1049

                    106                    107                    108
                      A                      A                      A
 Frequencies --   3195.8022              3196.4790              3199.2025
 Red. masses --      1.0981                 1.0954                 1.0927
 Frc consts  --      6.6076                 6.5940                 6.5890
 IR Inten    --     19.7751                24.9276                 0.4896

                    109                    110                    111
                      A                      A                      A
 Frequencies --   3205.4682              3215.6516              3218.4835
 Red. masses --      1.0961                 1.0931                 1.0906
 Frc consts  --      6.6358                 6.6594                 6.6564
 IR Inten    --      9.6921                11.8053                12.3991

 - Thermochemistry -
 -------------------
 Temperature   298.150 Kelvin.  Pressure   1.00000 Atm.
 Atom     1 has atomic number  6 and mass  12.00000

 Molecular mass:   322.09938 amu.
 Principal axes and moments of inertia in atomic units:
                           1         2         3
     Eigenvalues --  5190.004379881.90323**********
           X            0.99997  -0.00821   0.00001
           Y            0.00821   0.99997   0.00003
           Z           -0.00001  -0.00003   1.00000
 This molecule is an asymmetric top.
 Rotational symmetry number  1.
 Warning -- assumption of classical behavior for rotation
           may cause significant error
 Rotational temperatures (Kelvin)      0.01669     0.00876     0.00600
 Rotational constants (GHZ):           0.34773     0.18263     0.12495
 Zero-point vibrational energy     791325.2 (Joules/Mol)
                                  189.13126 (Kcal/Mol)
 Warning -- explicit consideration of  27 degrees of freedom as
           vibrations may cause significant error
 Vibrational temperatures:      5.50    61.32    78.20    89.88   100.48
          (Kelvin)            139.27   203.79   229.09   293.38   342.20
                              361.69   371.23   445.73   446.00   481.65
                              527.15   534.00   593.48   647.29   659.10
                              682.43   714.59   758.01   793.89   813.47
                              840.08   886.70   905.28   922.19   936.95
                              962.22   985.52   990.48  1026.22  1030.65
                             1084.59  1103.65  1106.45  1114.07  1143.29
                             1180.32  1217.86  1236.85  1252.86  1267.49
                             1271.80  1310.58  1330.05  1334.61  1370.48
                             1388.03  1411.13  1419.37  1421.16  1445.08
                             1446.69  1449.92  1470.94  1506.55  1514.59
                             1532.62  1581.07  1607.64  1629.12  1660.94
                             1686.46  1689.16  1694.12  1717.11  1728.60
                             1762.76  1797.95  1815.70  1834.01  1874.45
                             1887.89  1933.65  1947.63  1951.56  1972.95
                             2025.96  2031.54  2068.98  2122.43  2124.98
                             2156.56  2193.77  2199.87  2212.57  2296.36
                             2327.25  2334.93  2352.23  2364.01  2371.59
                             2385.42  2531.71  4558.98  4565.85  4569.11
                             4577.68  4581.18  4582.74  4585.85  4595.15
                             4598.04  4599.01  4602.93  4611.95  4626.60
                             4630.67

 Zero-point correction=                           0.301400 (Hartree/Particle)
 Thermal correction to Energy=                    0.319303
 Thermal correction to Enthalpy=                  0.320247
 Thermal correction to Gibbs Free Energy=         0.252597
 Sum of electronic and zero-point Energies=          -1035.567706
 Sum of electronic and thermal Energies=             -1035.549803
 Sum of electronic and thermal Enthalpies=           -1035.548859
 Sum of electronic and thermal Free Energies=        -1035.616509

                     E (Thermal)             CV                S
                      KCal/Mol        Cal/Mol-Kelvin    Cal/Mol-Kelvin
 Total                  200.366             73.366            142.381
 Electronic               0.000              0.000              0.000
 Translational            0.889              2.981             43.205
 Rotational               0.889              2.981             34.959
 Vibrational            198.588             67.404             64.217
 Vibration     1          0.593              1.987              9.921
 Vibration     2          0.595              1.980              5.134
 Vibration     3          0.596              1.976              4.652
 Vibration     4          0.597              1.972              4.378
 Vibration     5          0.598              1.969              4.158
 Vibration     6          0.603              1.951              3.518
 Vibration     7          0.615              1.912              2.782
 Vibration     8          0.621              1.892              2.559
 Vibration     9          0.640              1.834              2.098
 Vibration    10          0.656              1.783              1.819
 Vibration    11          0.663              1.760              1.721
 Vibration    12          0.667              1.749              1.675
 Vibration    13          0.699              1.655              1.363
 Vibration    14          0.699              1.655              1.362
 Vibration    15          0.716              1.606              1.237
 Vibration    16          0.739              1.541              1.095
 Vibration    17          0.743              1.531              1.075
 Vibration    18          0.776              1.443              0.918
 Vibration    19          0.809              1.361              0.796
 Vibration    20          0.816              1.343              0.772
 Vibration    21          0.831              1.307              0.726
 Vibration    22          0.852              1.257              0.667
 Vibration    23          0.882              1.191              0.594
 Vibration    24          0.907              1.136              0.540
 Vibration    25          0.921              1.106              0.513
 Vibration    26          0.941              1.066              0.478
 Vibration    27          0.976              0.997              0.422

 Normal termination of Gaussian 09 at Mon Nov 22 19:55:51 2021.
 Gaussian 09:  ES64L-G09RevE.01 30-Nov-2015

 ----------------------------------------------------------------------
 #p b3lyp chkbasis geom=allcheck Guess=Read int=ultrafine scrf=(SMD,sol
 vent=Acetonitrile) td=(NStates=30) EmpiricalDispersion=GD3BJ
 ----------------------------------------------------------------------

 Structure from the checkpoint file:  "cp.chk"
 -----
 Title
 -----
 Charge =  0 Multiplicity = 1

                         Standard orientation:
 ---------------------------------------------------------------------
 Center     Atomic      Atomic             Coordinates (Angstroms)
 Number     Number       Type             X           Y           Z
 ---------------------------------------------------------------------
      1          6           0        1.887707    4.213822   -0.000060
      2          6           0        0.582840    3.802099   -0.000121
      3          6           0        0.259918    2.421187   -0.000115
      4          6           0        1.311754    1.456035   -0.000067
      5          6           0        2.653760    1.921613    0.000029
      6          6           0        2.932497    3.262518    0.000027
      7          6           0       -1.075400    1.988801   -0.000112
      8          6           0        0.986062    0.071860   -0.000103
      9          6           0       -0.350426   -0.322392   -0.000166
     10          6           0       -1.402099    0.651575   -0.000108
     11          6           0       -2.791153    0.195972   -0.000009
     12          6           0       -3.042329   -1.174409    0.000053
     13          6           0       -0.693888   -1.758130   -0.000380
     14          1           0       -1.847567    2.744562   -0.000092
     15          1           0        2.125347    5.269987   -0.000065
     16          1           0       -0.226406    4.521834   -0.000167
     17          1           0        3.462140    1.205597    0.000103
     18          1           0        3.961189    3.599165    0.000096
     19          6           0        2.120638   -0.893843    0.000019
     20          6           0        2.682727   -1.317914   -1.202261
     21          6           0        2.681764   -1.318708    1.202469
     22          6           0        3.774878   -2.177318   -1.202413
     23          1           0        2.258547   -0.977895   -2.138672
     24          6           0        3.773923   -2.178100    1.202929
     25          1           0        2.256822   -0.979315    2.138762
     26          6           0        4.321920   -2.613210    0.000333
     27          1           0        4.200249   -2.504811   -2.142910
     28          1           0        4.198547   -2.506203    2.143551
     29          1           0        5.173228   -3.282203    0.000453
     30          8           0        0.078533   -2.684471   -0.000805
     31          8           0       -2.021261   -2.090005   -0.000087
     32          6           0       -3.906002    1.048815    0.000085
     33          6           0       -4.329043   -1.698626    0.000226
     34          6           0       -5.409539   -0.833391    0.000328
     35          1           0       -6.416342   -1.229915    0.000461
     36          6           0       -5.194385    0.545385    0.000249
     37          1           0       -6.035663    1.225848    0.000320
     38          1           0       -3.763564    2.119647    0.000035
     39          1           0       -4.461450   -2.772326    0.000271
 ---------------------------------------------------------------------

 SCF Done:  E(RB3LYP) =  -1035.86910519     A.U. after    4 cycles

 Excitation energies and oscillator strengths:

 Excited State   1:      Singlet-A      3.3951 eV  365.19 nm  f=0.0687  <S**2>=0.000
      84 -> 85         0.67740
      84 -> 86         0.13440
 This state for optimization and/or second-order correction.
 Total Energy, E(TD-HF/TD-KS) =  -1035.74433937
 Copying the excited state density for this state as the 1-particle RhoCI density.

 Excited State   2:      Singlet-A      3.7966 eV  326.57 nm  f=0.0000  <S**2>=0.000
      83 -> 85         0.69209

 Excited State   3:      Singlet-A      3.8049 eV  325.85 nm  f=0.2159  <S**2>=0.000
      81 -> 85         0.22830
      82 -> 85        -0.18505
      84 -> 85        -0.15650
      84 -> 86         0.61013

 Excited State   4:      Singlet-A      4.1528 eV  298.55 nm  f=0.0619  <S**2>=0.000
      81 -> 85         0.28399
      82 -> 85         0.61932

 Excited State   5:      Singlet-A      4.2546 eV  291.42 nm  f=0.1628  <S**2>=0.000
      80 -> 85        -0.47114
      81 -> 85         0.47597
      82 -> 85        -0.12252
      84 -> 86        -0.14895

 Excited State   6:      Singlet-A      4.3973 eV  281.96 nm  f=0.5402  <S**2>=0.000
      80 -> 85         0.45860
      81 -> 85         0.29466
      82 -> 86         0.32882
      84 -> 86        -0.20998
      84 -> 87         0.15095

 Excited State   7:      Singlet-A      4.4504 eV  278.59 nm  f=0.0008  <S**2>=0.000
      83 -> 85        -0.10988
      83 -> 86         0.68704

 Excited State   8:      Singlet-A      4.5411 eV  273.03 nm  f=0.2500  <S**2>=0.000
      79 -> 85        -0.19289
      80 -> 85        -0.21486
      81 -> 85        -0.20967
      81 -> 86         0.19180
      82 -> 85         0.20444
      82 -> 86         0.47847
      84 -> 86         0.14354
      84 -> 87         0.14360

 Excited State   9:      Singlet-A      4.7105 eV  263.21 nm  f=0.1876  <S**2>=0.000
      79 -> 85         0.13687
      81 -> 86         0.56528
      82 -> 86        -0.26270
      84 -> 87         0.22340

 Excited State  10:      Singlet-A      4.8786 eV  254.14 nm  f=0.0060  <S**2>=0.000
      79 -> 85        -0.13701
      80 -> 86         0.47204
      81 -> 86        -0.26130
      82 -> 86        -0.13320
      84 -> 87         0.39955

 Excited State  11:      Singlet-A      4.9053 eV  252.76 nm  f=0.0284  <S**2>=0.000
      79 -> 85         0.29838
      80 -> 86         0.46504
      82 -> 86         0.12148
      84 -> 87        -0.36602
      84 -> 89        -0.16277

 Excited State  12:      Singlet-A      4.9451 eV  250.72 nm  f=0.0000  <S**2>=0.000
      78 -> 85         0.64778
      78 -> 86         0.18140
      83 -> 86        -0.10906

 Excited State  13:      Singlet-A      5.0296 eV  246.51 nm  f=0.0000  <S**2>=0.000
      84 -> 88         0.70034

 Excited State  14:      Singlet-A      5.0947 eV  243.36 nm  f=0.0074  <S**2>=0.000
      79 -> 85         0.19568
      82 -> 86         0.13247
      84 -> 89         0.63643

 Excited State  15:      Singlet-A      5.1326 eV  241.56 nm  f=0.2891  <S**2>=0.000
      79 -> 85         0.42135
      80 -> 86        -0.14634
      81 -> 86        -0.14828
      84 -> 87         0.28320
      84 -> 89        -0.10446
      84 -> 90        -0.39117

 Excited State  16:      Singlet-A      5.2899 eV  234.38 nm  f=0.0014  <S**2>=0.000
      80 -> 88        -0.35623
      81 -> 88         0.22832
      83 -> 87         0.38775
      83 -> 89         0.35342
      83 -> 90        -0.18526

 Excited State  17:      Singlet-A      5.3051 eV  233.71 nm  f=0.2953  <S**2>=0.000
      79 -> 85         0.27294
      79 -> 86         0.13771
      81 -> 86        -0.13966
      84 -> 89        -0.12892
      84 -> 90         0.52876
      84 -> 91        -0.11197

 Excited State  18:      Singlet-A      5.4695 eV  226.68 nm  f=0.0337  <S**2>=0.000
      77 -> 85         0.57001
      79 -> 86        -0.19512
      84 -> 91        -0.29571

 Excited State  19:      Singlet-A      5.5977 eV  221.49 nm  f=0.0995  <S**2>=0.000
      77 -> 85         0.19598
      79 -> 86         0.56550
      81 -> 89         0.10968
      82 -> 87        -0.22525
      84 -> 90        -0.14881

 Excited State  20:      Singlet-A      5.6562 eV  219.20 nm  f=0.0761  <S**2>=0.000
      79 -> 86         0.21857
      81 -> 87        -0.14049
      82 -> 87         0.57641
      82 -> 89         0.12808
      84 -> 91         0.15080

 Excited State  21:      Singlet-A      5.6727 eV  218.56 nm  f=0.0001  <S**2>=0.000
      78 -> 85        -0.21572
      78 -> 86         0.63091
      83 -> 87        -0.11101
      83 -> 89         0.15279

 Excited State  22:      Singlet-A      5.7251 eV  216.56 nm  f=0.0926  <S**2>=0.000
      77 -> 85         0.23590
      77 -> 86         0.30083
      81 -> 87         0.11721
      81 -> 89        -0.12828
      81 -> 90        -0.12990
      82 -> 87        -0.12450
      82 -> 90         0.11000
      83 -> 88        -0.18202
      84 -> 91         0.45267

 Excited State  23:      Singlet-A      5.7362 eV  216.14 nm  f=0.0010  <S**2>=0.000
      78 -> 86         0.20843
      83 -> 87         0.50149
      83 -> 89        -0.42666

 Excited State  24:      Singlet-A      5.7726 eV  214.78 nm  f=0.0001  <S**2>=0.000
      80 -> 88        -0.13710
      81 -> 88        -0.16653
      82 -> 88         0.66438

 Excited State  25:      Singlet-A      5.8243 eV  212.87 nm  f=0.0086  <S**2>=0.000
      77 -> 86         0.14695
      80 -> 87         0.18838
      81 -> 87        -0.21018
      81 -> 89        -0.27477
      82 -> 89         0.19653
      83 -> 88         0.49086

 Excited State  26:      Singlet-A      5.8742 eV  211.06 nm  f=0.0049  <S**2>=0.000
      80 -> 88         0.11152
      83 -> 87         0.22237
      83 -> 89         0.22757
      83 -> 90         0.59433

 Excited State  27:      Singlet-A      5.8830 eV  210.75 nm  f=0.1556  <S**2>=0.000
      77 -> 85        -0.11916
      77 -> 86         0.13252
      80 -> 87        -0.19431
      80 -> 89        -0.15574
      81 -> 87        -0.15721
      82 -> 89         0.46386
      82 -> 90        -0.21538
      83 -> 88        -0.25093
      84 -> 91        -0.16200

 Excited State  28:      Singlet-A      5.9301 eV  209.08 nm  f=0.1596  <S**2>=0.000
      77 -> 86         0.36213
      81 -> 87        -0.35151
      81 -> 89         0.19236
      82 -> 87        -0.14446
      82 -> 89        -0.19175
      82 -> 90         0.27479
      84 -> 91        -0.15094

 Excited State  29:      Singlet-A      5.9562 eV  208.16 nm  f=0.0015  <S**2>=0.000
      76 -> 85         0.68205
      83 -> 90        -0.10318

 Excited State  30:      Singlet-A      6.0165 eV  206.07 nm  f=0.1343  <S**2>=0.000
      77 -> 86         0.40981
      81 -> 87         0.39510
      81 -> 89         0.14063
      81 -> 90         0.11193
      82 -> 90        -0.21884
      84 -> 91        -0.16879

 The electronic state is 1-A.
 Alpha  occ. eigenvalues --  -19.19153 -19.11478 -10.31319 -10.24820 -10.20903
 Alpha  occ. eigenvalues --  -10.20577 -10.20532 -10.19709 -10.19598 -10.19552
 Alpha  occ. eigenvalues --  -10.18655 -10.18285 -10.18190 -10.18167 -10.18115
 Alpha  occ. eigenvalues --  -10.18024 -10.17996 -10.17955 -10.17870 -10.17611
 Alpha  occ. eigenvalues --  -10.17258 -10.17249 -10.17162 -10.17159 -10.17101
 Alpha  occ. eigenvalues --   -1.12516  -1.03734  -0.89870  -0.87228  -0.86091
 Alpha  occ. eigenvalues --   -0.84289  -0.80466  -0.78018  -0.76466  -0.75456
 Alpha  occ. eigenvalues --   -0.74939  -0.74691  -0.72016  -0.67776  -0.65117
 Alpha  occ. eigenvalues --   -0.63986  -0.62082  -0.61186  -0.60631  -0.57725
 Alpha  occ. eigenvalues --   -0.57082  -0.55958  -0.52806  -0.52501  -0.50579
 Alpha  occ. eigenvalues --   -0.48639  -0.48444  -0.48058  -0.46745  -0.46077
 Alpha  occ. eigenvalues --   -0.45742  -0.45249  -0.44683  -0.43871  -0.43609
 Alpha  occ. eigenvalues --   -0.42632  -0.42110  -0.42022  -0.40668  -0.39763
 Alpha  occ. eigenvalues --   -0.39762  -0.39102  -0.37134  -0.37036  -0.36232
 Alpha  occ. eigenvalues --   -0.36083  -0.35648  -0.34552  -0.34234  -0.33692
 Alpha  occ. eigenvalues --   -0.33153  -0.30152  -0.29654  -0.28409  -0.25952
 Alpha  occ. eigenvalues --   -0.25406  -0.24837  -0.24652  -0.22080
 Alpha virt. eigenvalues --   -0.07621  -0.05986  -0.01959  -0.01333  -0.01281
 Alpha virt. eigenvalues --   -0.00522   0.01242   0.03538   0.05242   0.05889
 Alpha virt. eigenvalues --    0.06391   0.07203   0.07531   0.08680   0.08954

 Mulliken charges:
               1
     1  C   -0.116094
     2  C   -0.226050
     3  C    0.134716
     4  C    0.028726
     5  C   -0.196489
     6  C   -0.156928
     7  C   -0.352049
     8  C    0.246840
     9  C   -0.163103
    10  C    0.159565
    11  C    0.099603
    12  C    0.218897
    13  C    0.351458
    14  H    0.146912
    15  H    0.152405
    16  H    0.146231
    17  H    0.170159
    18  H    0.151560
    19  C    0.087126
    20  C   -0.209070
    21  C   -0.209048
    22  C   -0.176573
    23  H    0.141871
    24  C   -0.176575
    25  H    0.141871
    26  C   -0.131941
    27  H    0.145014
    28  H    0.145013
    29  H    0.147385
    30  O   -0.332775
    31  O   -0.213136
    32  C   -0.223161
    33  C   -0.266146
    34  C   -0.117653
    35  H    0.154674
    36  C   -0.158926
    37  H    0.151195
    38  H    0.157165
    39  H    0.147330
 Sum of Mulliken charges =  -0.00000

 Dipole moment (field-independent basis, Debye):
    X=             -1.4740    Y=              6.2747    Z=              0.0014  Tot=              6.4455
 Quadrupole moment (field-independent basis, Debye-Ang):
   XX=           -115.1256   YY=           -137.9907   ZZ=           -142.7116
   XY=             -1.8056   XZ=             -0.0033   YZ=             -0.0081

 Normal termination of Gaussian 09 at Mon Nov 22 22:01:44 2021.
