 Gaussian 09, Revision E.01,

 ----------------------------------------------------------------------
 #p m06l/def2TZVP opt=tight freq=noraman nosymm int=ultrafine scrf=(SMD
 ,solvent=Acetonitrile)
 ----------------------------------------------------------------------

 -----
 Title
 -----
 Symbolic Z-matrix:
 Charge =  0 Multiplicity = 1

 SCF Done:  E(RM06L) =  -1035.62285817     A.U. after   16 cycles
 SCF Done:  E(RM06L) =  -1035.62285818     A.U. after    6 cycles
 SCF Done:  E(RM06L) =  -1035.62285819     A.U. after    6 cycles
 SCF Done:  E(RM06L) =  -1035.62285819     A.U. after    5 cycles
 SCF Done:  E(RM06L) =  -1035.62285819     A.U. after    4 cycles
 SCF Done:  E(RM06L) =  -1035.62285819     A.U. after    4 cycles
 SCF Done:  E(RM06L) =  -1035.62285819     A.U. after    5 cycles
 SCF Done:  E(RM06L) =  -1035.62285819     A.U. after    6 cycles
 SCF Done:  E(RM06L) =  -1035.62285819     A.U. after    4 cycles
 SCF Done:  E(RM06L) =  -1035.62285819     A.U. after    6 cycles
 SCF Done:  E(RM06L) =  -1035.62285735     A.U. after   10 cycles
 SCF Done:  E(RM06L) =  -1035.62285879     A.U. after   11 cycles
 SCF Done:  E(RM06L) =  -1035.62285936     A.U. after   10 cycles
 SCF Done:  E(RM06L) =  -1035.62285921     A.U. after    8 cycles
 SCF Done:  E(RM06L) =  -1035.62285952     A.U. after    9 cycles
 SCF Done:  E(RM06L) =  -1035.62285952     A.U. after    6 cycles
 SCF Done:  E(RM06L) =  -1035.62285952     A.U. after    6 cycles
 SCF Done:  E(RM06L) =  -1035.62285952     A.U. after    4 cycles
 Optimization completed.
    -- Stationary point found.
 Normal termination of Gaussian 09 at Tue Nov 23 08:34:17 2021.

 -------------------------------------------------------------------
 #P Geom=AllCheck Guess=TCheck SCRF=Check GenChk RM06L/def2TZVP Freq
 -------------------------------------------------------------------

 Structure from the checkpoint file:  "cp.chk"
 -----
 Title
 -----
 Charge =  0 Multiplicity = 1

 SCF Done:  E(RM06L) =  -1035.62285952     A.U. after    1 cycles

  Exact polarizability: 590.885  37.327 494.350  -3.976  -2.916 253.800
 Approx polarizability: 714.438  42.558 647.953  -5.677  -4.023 307.980

                      1                      2                      3
                      A                      A                      A
 Frequencies --     14.0784                47.4231                56.2404
 Red. masses --      4.7329                 5.0264                 4.9886
 Frc consts  --      0.0006                 0.0067                 0.0093
 IR Inten    --      1.3274                 0.5130                 0.9182

                      4                      5                      6
                      A                      A                      A
 Frequencies --     62.9267                72.9825                99.8962
 Red. masses --      5.3364                 4.3895                 6.6068
 Frc consts  --      0.0125                 0.0138                 0.0388
 IR Inten    --      0.6031                 0.0198                 0.2139

                      7                      8                      9
                      A                      A                      A
 Frequencies --    143.5485               159.9777               205.5364
 Red. masses --      5.0727                 5.4314                 4.5264
 Frc consts  --      0.0616                 0.0819                 0.1127
 IR Inten    --      0.0013                 1.1944                 0.5115

                     10                     11                     12
                      A                      A                      A
 Frequencies --    237.6216               254.7040               259.3885
 Red. masses --      6.5912                 6.2047                 4.3126
 Frc consts  --      0.2193                 0.2372                 0.1710
 IR Inten    --      0.0245                 0.7027                 1.8021

                     13                     14                     15
                      A                      A                      A
 Frequencies --    311.3458               313.5655               333.9783
 Red. masses --      8.6290                 4.2321                 5.3762
 Frc consts  --      0.4928                 0.2452                 0.3533
 IR Inten    --     12.2822                 1.3483                 0.2248

                     16                     17                     18
                      A                      A                      A
 Frequencies --    368.6425               369.9482               410.7280
 Red. masses --      6.2560                 6.2155                 2.8593
 Frc consts  --      0.5009                 0.5012                 0.2842
 IR Inten    --      1.6089                 3.7874                 0.1832

                     19                     20                     21
                      A                      A                      A
 Frequencies --    450.6731               458.1026               475.4507
 Red. masses --      3.1775                 7.2717                 3.4623
 Frc consts  --      0.3802                 0.8991                 0.4611
 IR Inten    --      0.8385                 0.4629                19.4695

                     22                     23                     24
                      A                      A                      A
 Frequencies --    496.5730               528.2131               556.2964
 Red. masses --      6.0517                 3.5717                 3.3868
 Frc consts  --      0.8792                 0.5871                 0.6175
 IR Inten    --     10.7603                 5.6210                 2.9249

                     25                     26                     27
                      A                      A                      A
 Frequencies --    562.8552               583.7834               614.2894
 Red. masses --      5.1244                 6.4327                 7.0274
 Frc consts  --      0.9565                 1.2916                 1.5624
 IR Inten    --      9.2774                20.4202                40.5883

                     28                     29                     30
                      A                      A                      A
 Frequencies --    625.8977               635.9239               656.9393
 Red. masses --      5.8811                 7.0578                 4.2151
 Frc consts  --      1.3574                 1.6816                 1.0718
 IR Inten    --      0.0761                13.7091                 3.1006

                     31                     32                     33
                      A                      A                      A
 Frequencies --    665.7937               682.4353               689.7932
 Red. masses --      5.7910                 6.0499                 5.1526
 Frc consts  --      1.5125                 1.6600                 1.4445
 IR Inten    --      2.8567                 2.6439                 0.2749

                     34                     35                     36
                      A                      A                      A
 Frequencies --    712.1496               720.2756               760.0583
 Red. masses --      7.2046                 1.5105                 2.1911
 Frc consts  --      2.1528                 0.4617                 0.7458
 IR Inten    --      4.5360                81.3585                 7.5836

                     37                     38                     39
                      A                      A                      A
 Frequencies --    767.7960               772.1679               778.7168
 Red. masses --      3.0431                 1.3972                 1.8803
 Frc consts  --      1.0570                 0.4908                 0.6718
 IR Inten    --     49.0489                95.7586               115.0081

                     40                     41                     42
                      A                      A                      A
 Frequencies --    799.8509               823.3252               845.7434
 Red. masses --      3.4419                 4.2066                 3.2861
 Frc consts  --      1.2974                 1.6800                 1.3849
 IR Inten    --      0.4333                10.0146                 1.6415

                     43                     44                     45
                      A                      A                      A
 Frequencies --    863.3142               869.6498               883.7365
 Red. masses --      1.2562                 5.4882                 1.4839
 Frc consts  --      0.5516                 2.4455                 0.6828
 IR Inten    --      0.0649                 0.5692                 3.6508

                     46                     47                     48
                      A                      A                      A
 Frequencies --    889.7936               909.9561               925.1363
 Red. masses --      1.6811                 5.6007                 1.9575
 Frc consts  --      0.7842                 2.7323                 0.9871
 IR Inten    --      4.1825                23.8669                 3.8444

                     49                     50                     51
                      A                      A                      A
 Frequencies --    929.6192               950.8653               973.1150
 Red. masses --      1.8613                 3.6191                 1.3822
 Frc consts  --      0.9477                 1.9279                 0.7712
 IR Inten    --     28.3922                19.4636                 2.9932

                     52                     53                     54
                      A                      A                      A
 Frequencies --    989.0601               992.4543              1003.0782
 Red. masses --      1.3661                 1.3780                 2.9661
 Frc consts  --      0.7874                 0.7997                 1.7583
 IR Inten    --      3.6188                 0.1042                62.8690

                     55                     56                     57
                      A                      A                      A
 Frequencies --   1003.2570              1014.8320              1017.2117
 Red. masses --      1.6850                 1.2850                 1.3163
 Frc consts  --      0.9993                 0.7797                 0.8025
 IR Inten    --     25.9043                 0.5921                 0.1532

                     58                     59                     60
                      A                      A                      A
 Frequencies --   1019.8137              1055.0687              1056.8305
 Red. masses --      6.1545                 2.3320                 2.1077
 Frc consts  --      3.7712                 1.5295                 1.3870
 IR Inten    --      2.0769                 4.0670                10.0268

                     61                     62                     63
                      A                      A                      A
 Frequencies --   1068.0613              1101.5920              1113.2973
 Red. masses --      1.9151                 1.5375                 5.1297
 Frc consts  --      1.2872                 1.0993                 3.7460
 IR Inten    --      8.1414                15.0033               419.6533

                     64                     65                     66
                      A                      A                      A
 Frequencies --   1133.1077              1154.0493              1170.2470
 Red. masses --      1.8868                 1.6596                 1.0793
 Frc consts  --      1.4273                 1.3023                 0.8709
 IR Inten    --     88.7604                33.7371                 0.0633

                     67                     68                     69
                      A                      A                      A
 Frequencies --   1171.5278              1175.6885              1193.5775
 Red. masses --      1.1801                 1.1409                 1.1250
 Frc consts  --      0.9542                 0.9291                 0.9443
 IR Inten    --     12.4151                65.0403                 0.0774

                     70                     71                     72
                      A                      A                      A
 Frequencies --   1203.0553              1226.4139              1251.8012
 Red. masses --      2.3359                 2.1592                 2.1243
 Frc consts  --      1.9920                 1.9134                 1.9613
 IR Inten    --     76.6854               237.5495                92.7825

                     73                     74                     75
                      A                      A                      A
 Frequencies --   1265.8555              1287.7500              1299.2767
 Red. masses --      2.5800                 2.5339                 2.1354
 Frc consts  --      2.4357                 2.4758                 2.1239
 IR Inten    --     99.7983               148.0786                39.5290

                     76                     77                     78
                      A                      A                      A
 Frequencies --   1329.2041              1357.7605              1363.6102
 Red. masses --      1.8318                 2.5366                 3.0857
 Frc consts  --      1.9068                 2.7552                 3.3805
 IR Inten    --      0.0329                16.0225                 0.0391

                     79                     80                     81
                      A                      A                      A
 Frequencies --   1369.2404              1391.3785              1419.9876
 Red. masses --      3.8192                 5.7622                 4.2635
 Frc consts  --      4.2187                 6.5725                 5.0651
 IR Inten    --     74.5728                12.1739                 2.9957

                     82                     83                     84
                      A                      A                      A
 Frequencies --   1426.7407              1448.5228              1474.5571
 Red. masses --      3.8168                 4.5404                 2.2714
 Frc consts  --      4.5776                 5.6130                 2.9099
 IR Inten    --      2.1160                13.9764                 3.0844

                     85                     86                     87
                      A                      A                      A
 Frequencies --   1478.9289              1500.7977              1527.8557
 Red. masses --      2.8063                 2.7687                 2.6151
 Frc consts  --      3.6164                 3.6742                 3.5967
 IR Inten    --     21.1793                75.4309                21.1811

                     88                     89                     90
                      A                      A                      A
 Frequencies --   1531.2054              1544.7086              1604.0978
 Red. masses --      2.9156                 3.5018                 8.3591
 Frc consts  --      4.0276                 4.9230                12.6727
 IR Inten    --     19.1398                30.8136                65.5859

                     91                     92                     93
                      A                      A                      A
 Frequencies --   1624.0026              1629.9136              1641.9029
 Red. masses --      5.7358                 5.5281                 7.4635
 Frc consts  --      8.9129                 8.6528                11.8546
 IR Inten    --      1.5137                37.6519               136.2242

                     94                     95                     96
                      A                      A                      A
 Frequencies --   1652.1975              1657.6613              1666.8383
 Red. masses --      5.9507                 6.3859                 6.2823
 Frc consts  --      9.5706                10.3387                10.2839
 IR Inten    --     14.9112                47.3814                56.0617

                     97                     98                     99
                      A                      A                      A
 Frequencies --   1780.5584              3174.0249              3176.9423
 Red. masses --     12.9709                 1.0854                 1.0874
 Frc consts  --     24.2289                 6.4428                 6.4666
 IR Inten    --    971.3715                 6.4216                 3.2720

                    100                    101                    102
                      A                      A                      A
 Frequencies --   3181.9851              3187.0284              3191.4216
 Red. masses --      1.0862                 1.0905                 1.0864
 Frc consts  --      6.4796                 6.5261                 6.5195
 IR Inten    --      1.2161                 5.5381                 1.4829

                    103                    104                    105
                      A                      A                      A
 Frequencies --   3191.7118              3193.6306              3195.9218
 Red. masses --      1.0888                 1.0950                 1.0902
 Frc consts  --      6.5351                 6.5801                 6.5609
 IR Inten    --     10.2636                48.3028                 7.2584

                    106                    107                    108
                      A                      A                      A
 Frequencies --   3201.9395              3204.1511              3205.0088
 Red. masses --      1.0936                 1.0900                 1.0986
 Frc consts  --      6.6058                 6.5933                 6.6487
 IR Inten    --     23.4206                 3.3200                23.4407

                    109                    110                    111
                      A                      A                      A
 Frequencies --   3210.8937              3212.3375              3218.0534
 Red. masses --      1.0970                 1.0937                 1.0960
 Frc consts  --      6.6635                 6.6494                 6.6873
 IR Inten    --     30.6790                16.6903                19.3977

 - Thermochemistry -
 -------------------
 Temperature   298.150 Kelvin.  Pressure   1.00000 Atm.
 Atom     1 has atomic number  6 and mass  12.00000

 Molecular mass:   322.09938 amu.
 Principal axes and moments of inertia in atomic units:
                           1         2         3
     Eigenvalues --  5183.294619826.45324**********
           X            0.99995  -0.00892   0.00417
           Y            0.00889   0.99994   0.00639
           Z           -0.00423  -0.00635   0.99997
 This molecule is an asymmetric top.
 Rotational symmetry number  1.
 Warning -- assumption of classical behavior for rotation
           may cause significant error
 Rotational temperatures (Kelvin)      0.01671     0.00881     0.00602
 Rotational constants (GHZ):           0.34818     0.18366     0.12546
 Zero-point vibrational energy     793808.7 (Joules/Mol)
                                  189.72483 (Kcal/Mol)
 Warning -- explicit consideration of  27 degrees of freedom as
           vibrations may cause significant error
 Vibrational temperatures:     20.26    68.23    80.92    90.54   105.01
          (Kelvin)            143.73   206.53   230.17   295.72   341.88
                              366.46   373.20   447.96   451.15   480.52
                              530.39   532.27   590.95   648.42   659.11
                              684.07   714.46   759.98   800.39   809.82
                              839.93   883.82   900.53   914.95   945.19
                              957.93   981.87   992.46  1024.62  1036.31
                             1093.55  1104.69  1110.98  1120.40  1150.81
                             1184.58  1216.83  1242.11  1251.23  1271.50
                             1280.21  1309.22  1331.06  1337.51  1368.08
                             1400.09  1423.04  1427.92  1443.20  1443.46
                             1460.12  1463.54  1467.28  1518.01  1520.54
                             1536.70  1584.94  1601.78  1630.29  1660.42
                             1683.72  1685.57  1691.55  1717.29  1730.93
                             1764.53  1801.06  1821.28  1852.78  1869.37
                             1912.43  1953.51  1961.93  1970.03  2001.88
                             2043.04  2052.76  2084.10  2121.56  2127.85
                             2159.31  2198.24  2203.06  2222.49  2307.94
                             2336.57  2345.08  2362.33  2377.14  2385.00
                             2398.21  2561.82  4566.71  4570.91  4578.16
                             4585.42  4591.74  4592.16  4594.92  4598.21
                             4606.87  4610.05  4611.29  4619.75  4621.83
                             4630.06

 Zero-point correction=                           0.302346 (Hartree/Particle)
 Thermal correction to Energy=                    0.320156
 Thermal correction to Enthalpy=                  0.321100
 Thermal correction to Gibbs Free Energy=         0.254975
 Sum of electronic and zero-point Energies=          -1035.320514
 Sum of electronic and thermal Energies=             -1035.302704
 Sum of electronic and thermal Enthalpies=           -1035.301760
 Sum of electronic and thermal Free Energies=        -1035.367884

                     E (Thermal)             CV                S
                      KCal/Mol        Cal/Mol-Kelvin    Cal/Mol-Kelvin
 Total                  200.901             73.150            139.171
 Electronic               0.000              0.000              0.000
 Translational            0.889              2.981             43.205
 Rotational               0.889              2.981             34.948
 Vibrational            199.123             67.189             61.018
 Vibration     1          0.593              1.986              7.332
 Vibration     2          0.595              1.979              4.922
 Vibration     3          0.596              1.975              4.585
 Vibration     4          0.597              1.972              4.363
 Vibration     5          0.599              1.967              4.071
 Vibration     6          0.604              1.949              3.456
 Vibration     7          0.616              1.910              2.756
 Vibration     8          0.622              1.891              2.550
 Vibration     9          0.640              1.832              2.083
 Vibration    10          0.656              1.783              1.821
 Vibration    11          0.665              1.755              1.698
 Vibration    12          0.668              1.747              1.666
 Vibration    13          0.700              1.652              1.355
 Vibration    14          0.701              1.648              1.343
 Vibration    15          0.716              1.608              1.241
 Vibration    16          0.741              1.537              1.085
 Vibration    17          0.742              1.534              1.080
 Vibration    18          0.775              1.447              0.924
 Vibration    19          0.809              1.359              0.794
 Vibration    20          0.816              1.343              0.772
 Vibration    21          0.832              1.305              0.722
 Vibration    22          0.852              1.258              0.667
 Vibration    23          0.883              1.188              0.591
 Vibration    24          0.912              1.126              0.531
 Vibration    25          0.919              1.112              0.518
 Vibration    26          0.941              1.066              0.478
 Vibration    27          0.974              1.002              0.426

 Optimization completed.
    -- Stationary point found.
 Normal termination of Gaussian 09 at Tue Nov 23 11:45:47 2021.
 Gaussian 09:  ES64L-G09RevE.01 30-Nov-2015

 ----------------------------------------------------------------------
 #p m06l chkbasis geom=allcheck Guess=Read int=ultrafine scrf=(SMD,solv
 ent=Acetonitrile) td=(NStates=30)
 ----------------------------------------------------------------------

 Structure from the checkpoint file:  "cp.chk"
 -----
 Title
 -----
 Charge =  0 Multiplicity = 1

                         Standard orientation:
 ---------------------------------------------------------------------
 Center     Atomic      Atomic             Coordinates (Angstroms)
 Number     Number       Type             X           Y           Z
 ---------------------------------------------------------------------
      1          6           0        1.886295    4.209675    0.009753
      2          6           0        0.583128    3.798312    0.002105
      3          6           0        0.257691    2.422194   -0.001347
      4          6           0        1.309205    1.456695    0.001075
      5          6           0        2.646918    1.922505    0.012439
      6          6           0        2.926955    3.261583    0.016028
      7          6           0       -1.073714    1.989765   -0.003384
      8          6           0        0.984682    0.075045   -0.005817
      9          6           0       -0.352281   -0.319165   -0.013476
     10          6           0       -1.401590    0.652765   -0.006942
     11          6           0       -2.782271    0.196624   -0.002481
     12          6           0       -3.031320   -1.174160   -0.007267
     13          6           0       -0.687965   -1.748307   -0.038920
     14          1           0       -1.848917    2.744472   -0.000885
     15          1           0        2.123162    5.266115    0.012395
     16          1           0       -0.226287    4.518462   -0.000722
     17          1           0        3.456406    1.204718    0.018495
     18          1           0        3.956167    3.596769    0.024457
     19          6           0        2.114116   -0.890343    0.002711
     20          6           0        2.725594   -1.271459   -1.188611
     21          6           0        2.626034   -1.365126    1.207390
     22          6           0        3.809453   -2.136358   -1.176987
     23          1           0        2.341822   -0.893230   -2.128943
     24          6           0        3.710942   -2.228305    1.218282
     25          1           0        2.162677   -1.061775    2.138978
     26          6           0        4.303908   -2.620593    0.026087
     27          1           0        4.271141   -2.430199   -2.111615
     28          1           0        4.095606   -2.594126    2.162332
     29          1           0        5.151070   -3.294804    0.035040
     30          8           0        0.084594   -2.673122   -0.074612
     31          8           0       -2.015300   -2.086808   -0.024493
     32          6           0       -3.897821    1.044254    0.010555
     33          6           0       -4.316112   -1.697871    0.001658
     34          6           0       -5.394678   -0.835713    0.014928
     35          1           0       -6.400949   -1.233933    0.021873
     36          6           0       -5.182556    0.540274    0.018933
     37          1           0       -6.025021    1.219197    0.029059
     38          1           0       -3.753124    2.116017    0.014766
     39          1           0       -4.445778   -2.771981   -0.002652
 ---------------------------------------------------------------------

 SCF Done:  E(RM06L) =  -1035.62285933     A.U. after    6 cycles

 Excitation energies and oscillator strengths:

 Excited State   1:      Singlet-A      3.1979 eV  387.71 nm  f=0.0592  <S**2>=0.000
      82 -> 85         0.11106
      84 -> 85         0.67131
      84 -> 86         0.12501
 This state for optimization and/or second-order correction.
 Total Energy, E(TD-HF/TD-KS) =  -1035.50533945
 Copying the excited state density for this state as the 1-particle RhoCI density.

 Excited State   2:      Singlet-A      3.4717 eV  357.13 nm  f=0.0003  <S**2>=0.000
      83 -> 85         0.70453

 Excited State   3:      Singlet-A      3.6359 eV  341.00 nm  f=0.1311  <S**2>=0.000
      81 -> 85        -0.40879
      82 -> 85        -0.20823
      84 -> 86         0.51720

 Excited State   4:      Singlet-A      3.7284 eV  332.54 nm  f=0.0453  <S**2>=0.000
      81 -> 85         0.10662
      82 -> 85         0.59703
      84 -> 85        -0.14572
      84 -> 86         0.29902

 Excited State   5:      Singlet-A      3.8820 eV  319.38 nm  f=0.0323  <S**2>=0.000
      80 -> 85         0.62438
      81 -> 85         0.30461
      84 -> 86         0.10872

 Excited State   6:      Singlet-A      3.9444 eV  314.33 nm  f=0.0006  <S**2>=0.000
      83 -> 86         0.70265

 Excited State   7:      Singlet-A      4.1369 eV  299.70 nm  f=0.4687  <S**2>=0.000
      78 -> 85        -0.10600
      80 -> 85        -0.24953
      81 -> 85         0.35012
      81 -> 86         0.11410
      82 -> 85        -0.16089
      82 -> 86         0.39055
      84 -> 86         0.24848
      84 -> 87        -0.12807
      84 -> 89         0.12491

 Excited State   8:      Singlet-A      4.2875 eV  289.18 nm  f=0.1219  <S**2>=0.000
      78 -> 85         0.27805
      80 -> 85         0.15655
      81 -> 85        -0.24941
      82 -> 85         0.17547
      82 -> 86         0.52130
      84 -> 86        -0.11184

 Excited State   9:      Singlet-A      4.3482 eV  285.14 nm  f=0.0581  <S**2>=0.000
      80 -> 86         0.56498
      81 -> 86         0.40879

 Excited State  10:      Singlet-A      4.4699 eV  277.37 nm  f=0.0329  <S**2>=0.000
      80 -> 86         0.22473
      81 -> 86        -0.20570
      84 -> 87         0.59427
      84 -> 89         0.12093

 Excited State  11:      Singlet-A      4.5245 eV  274.03 nm  f=0.0003  <S**2>=0.000
      79 -> 85         0.70565

 Excited State  12:      Singlet-A      4.5418 eV  272.99 nm  f=0.2575  <S**2>=0.000
      78 -> 85        -0.21009
      80 -> 86        -0.32502
      81 -> 86         0.45227
      84 -> 86        -0.11043
      84 -> 87         0.22380
      84 -> 89         0.22066

 Excited State  13:      Singlet-A      4.5812 eV  270.64 nm  f=0.0030  <S**2>=0.000
      84 -> 88         0.65055
      84 -> 89        -0.26794

 Excited State  14:      Singlet-A      4.6763 eV  265.13 nm  f=0.0061  <S**2>=0.000
      78 -> 85         0.32998
      82 -> 86        -0.13756
      84 -> 88         0.18553
      84 -> 89         0.47060
      84 -> 90        -0.28884

 Excited State  15:      Singlet-A      4.8120 eV  257.66 nm  f=0.2991  <S**2>=0.000
      78 -> 85        -0.27941
      81 -> 85        -0.12595
      81 -> 86        -0.11862
      82 -> 85         0.10653
      82 -> 89        -0.10019
      84 -> 87        -0.18532
      84 -> 88         0.15258
      84 -> 89         0.32592
      84 -> 90         0.39117

 Excited State  16:      Singlet-A      4.9870 eV  248.62 nm  f=0.0019  <S**2>=0.000
      79 -> 86         0.70317

 Excited State  17:      Singlet-A      5.0317 eV  246.40 nm  f=0.2195  <S**2>=0.000
      77 -> 85         0.26697
      78 -> 85         0.28307
      78 -> 86         0.18641
      81 -> 86         0.14061
      81 -> 87        -0.10175
      82 -> 87         0.13758
      83 -> 87         0.16456
      84 -> 90         0.35201
      84 -> 91        -0.18170

 Excited State  18:      Singlet-A      5.0379 eV  246.11 nm  f=0.0183  <S**2>=0.000
      83 -> 87         0.63424
      83 -> 89        -0.18271

 Excited State  19:      Singlet-A      5.1127 eV  242.50 nm  f=0.0106  <S**2>=0.000
      77 -> 85         0.45000
      78 -> 86        -0.32597
      81 -> 87         0.14984
      82 -> 87        -0.24528
      84 -> 91        -0.24687

 Excited State  20:      Singlet-A      5.1825 eV  239.23 nm  f=0.1335  <S**2>=0.000
      77 -> 85         0.11143
      78 -> 85        -0.13109
      78 -> 86        -0.19993
      82 -> 87         0.50644
      82 -> 88         0.11265
      82 -> 89         0.24762
      82 -> 90        -0.14480
      83 -> 89        -0.17125

 Excited State  21:      Singlet-A      5.2112 eV  237.92 nm  f=0.0051  <S**2>=0.000
      80 -> 88        -0.20523
      81 -> 88        -0.13581
      82 -> 87         0.14101
      82 -> 89         0.12431
      83 -> 87         0.12200
      83 -> 88         0.24773
      83 -> 89         0.52716
      83 -> 90         0.16140

 Excited State  22:      Singlet-A      5.2405 eV  236.59 nm  f=0.0012  <S**2>=0.000
      82 -> 88         0.64207
      82 -> 89        -0.26782
      83 -> 88        -0.10003

 Excited State  23:      Singlet-A      5.3085 eV  233.56 nm  f=0.0567  <S**2>=0.000
      77 -> 85         0.33891
      78 -> 85        -0.12035
      78 -> 86         0.37457
      81 -> 87        -0.11725
      82 -> 89        -0.17707
      82 -> 90        -0.11991
      84 -> 90        -0.24577
      84 -> 91         0.17836
      84 -> 92         0.13878

 Excited State  24:      Singlet-A      5.3464 eV  231.90 nm  f=0.0006  <S**2>=0.000
      80 -> 88         0.15811
      81 -> 88         0.17053
      83 -> 90         0.64700

 Excited State  25:      Singlet-A      5.3964 eV  229.75 nm  f=0.0103  <S**2>=0.000
      77 -> 86        -0.26334
      78 -> 86         0.22286
      81 -> 87         0.30261
      81 -> 88        -0.15561
      81 -> 89        -0.21148
      81 -> 90        -0.18342
      82 -> 88         0.10997
      82 -> 89         0.27854
      82 -> 90        -0.16856
      84 -> 91        -0.16757

 Excited State  26:      Singlet-A      5.4244 eV  228.57 nm  f=0.0192  <S**2>=0.000
      80 -> 88        -0.11165
      80 -> 89        -0.16917
      81 -> 87         0.45025
      81 -> 88         0.22061
      81 -> 89         0.36492
      81 -> 90        -0.11845
      84 -> 91         0.10174

 Excited State  27:      Singlet-A      5.4636 eV  226.93 nm  f=0.0107  <S**2>=0.000
      76 -> 85        -0.13970
      77 -> 86         0.12367
      80 -> 88        -0.24238
      80 -> 89         0.11749
      81 -> 88         0.45232
      81 -> 89        -0.31573
      82 -> 89         0.11923
      82 -> 90        -0.17471
      84 -> 91         0.11598

 Excited State  28:      Singlet-A      5.4723 eV  226.57 nm  f=0.0128  <S**2>=0.000
      80 -> 87         0.55188
      80 -> 88        -0.12970
      80 -> 89        -0.26468
      81 -> 89        -0.15974
      82 -> 89        -0.13053
      82 -> 90         0.13768

 Excited State  29:      Singlet-A      5.4734 eV  226.52 nm  f=0.0905  <S**2>=0.000
      77 -> 86        -0.32345
      78 -> 85        -0.10202
      81 -> 88         0.28925
      82 -> 87         0.10057
      82 -> 89        -0.12857
      82 -> 90         0.32779
      84 -> 90        -0.10427
      84 -> 91        -0.25210

 Excited State  30:      Singlet-A      5.5121 eV  224.93 nm  f=0.0004  <S**2>=0.000
      76 -> 85         0.68487
      80 -> 88        -0.11390
      81 -> 88         0.10085

 The electronic state is 1-A.
 Alpha  occ. eigenvalues --  -19.02550 -18.94810 -10.17857 -10.11897 -10.08039
 Alpha  occ. eigenvalues --  -10.07672 -10.07601 -10.06830 -10.06828 -10.06795
 Alpha  occ. eigenvalues --  -10.06085 -10.05525 -10.05445 -10.05441 -10.05384
 Alpha  occ. eigenvalues --  -10.05351 -10.05254 -10.05235 -10.05232 -10.04895
 Alpha  occ. eigenvalues --  -10.04670 -10.04663 -10.04563 -10.04560 -10.04479
 Alpha  occ. eigenvalues --   -1.08956  -1.00176  -0.85879  -0.83252  -0.82197
 Alpha  occ. eigenvalues --   -0.80352  -0.76641  -0.74227  -0.72503  -0.71689
 Alpha  occ. eigenvalues --   -0.71232  -0.70994  -0.68225  -0.63800  -0.61187
 Alpha  occ. eigenvalues --   -0.60035  -0.58184  -0.57268  -0.56807  -0.53802
 Alpha  occ. eigenvalues --   -0.53179  -0.51889  -0.48799  -0.48261  -0.46535
 Alpha  occ. eigenvalues --   -0.44525  -0.44200  -0.43979  -0.42717  -0.42227
 Alpha  occ. eigenvalues --   -0.41825  -0.41018  -0.40560  -0.39813  -0.39585
 Alpha  occ. eigenvalues --   -0.38613  -0.38175  -0.38034  -0.37107  -0.36154
 Alpha  occ. eigenvalues --   -0.35780  -0.34972  -0.33715  -0.33141  -0.32724
 Alpha  occ. eigenvalues --   -0.32316  -0.31845  -0.30763  -0.30368  -0.30163
 Alpha  occ. eigenvalues --   -0.29370  -0.27226  -0.25792  -0.25686  -0.23463
 Alpha  occ. eigenvalues --   -0.22953  -0.22228  -0.21867  -0.19800
 Alpha virt. eigenvalues --   -0.09120  -0.07389  -0.03489  -0.02968  -0.02914
 Alpha virt. eigenvalues --   -0.02236  -0.00359   0.01767   0.05985   0.06097
 Alpha virt. eigenvalues --    0.06541   0.07855   0.08002   0.08898   0.09513

 Mulliken charges:
               1
     1  C   -0.033300
     2  C   -0.072027
     3  C   -0.034375
     4  C   -0.129452
     5  C   -0.093094
     6  C   -0.128150
     7  C   -0.127291
     8  C    0.599271
     9  C   -0.290305
    10  C    0.059362
    11  C    0.067739
    12  C    0.334440
    13  C    0.795926
    14  H    0.115020
    15  H    0.091820
    16  H    0.076943
    17  H    0.138787
    18  H    0.089557
    19  C    0.110308
    20  C   -0.299756
    21  C   -0.300212
    22  C   -0.084886
    23  H    0.097364
    24  C   -0.080599
    25  H    0.095585
    26  C   -0.097940
    27  H    0.089024
    28  H    0.089207
    29  H    0.093215
    30  O   -0.592769
    31  O   -0.475544
    32  C   -0.086831
    33  C   -0.279792
    34  C   -0.002649
    35  H    0.096985
    36  C   -0.143712
    37  H    0.090171
    38  H    0.122106
    39  H    0.099852
 Sum of Mulliken charges =  -0.00000

 Dipole moment (field-independent basis, Debye):
    X=             -1.4109    Y=              5.8238    Z=              0.1293  Tot=              5.9936
 Quadrupole moment (field-independent basis, Debye-Ang):
   XX=           -116.5504   YY=           -137.0052   ZZ=           -140.4669
   XY=             -0.9568   XZ=             -0.2634   YZ=             -0.6562

 Normal termination of Gaussian 09 at Tue Nov 23 14:57:34 2021.
