                         Program Version 5.0.2 -  RELEASE  -
|  1> %maxcore 3200
|  2> %pal
|  3>  nprocs= 8
|  4> end
|  5> ! RI-B2PLYP D3BJ def2-TZVP def2/J def2-TZVP/C RIJCOSX CPCM TightSCF
|  6> %TDDFT DCORR 4
|  7>    NROOTS   30
|  8>
|  9>    TDA      FALSE
| 10> END
| 11>
| 12> %CPCM
| 13>    SMD          TRUE
| 14>    SMDsolvent   "N,N-DIMETHYLFORMAMIDE"
| 15> END
| 16>
| 17>
| 18> * xyz 0 1
| 19> C                   3.63553800    0.74494900   -0.46163900
| 20> C                   2.42107900    1.38030500   -0.58758400
| 21> C                   1.21656200    0.67285700   -0.46712700
| 22> C                   1.25819300   -0.70454500   -0.20388600
| 23> C                   2.49840900   -1.31093200   -0.07569600
| 24> C                   3.70901100   -0.62592000   -0.19895200
| 25> C                   0.00281000   -1.54830600   -0.04909500
| 26> C                  -1.25323300   -0.70909400   -0.22215700
| 27> C                  -1.21280700    0.66998300   -0.47644700
| 28> C                  -2.41813500    1.37537900   -0.60084500
| 29> H                  -2.39777200    2.43601700   -0.80861100
| 30> C                  -3.63194100    0.73875100   -0.47511300
| 31> C                  -3.70436300   -0.63530400   -0.22897100
| 32> C                  -2.49289500   -1.32003900   -0.11238600
| 33> H                   2.39954700    2.44418800   -0.77785100
| 34> H                   2.52223200   -2.37832400    0.10828800
| 35> H                  -4.53710000    1.31953600   -0.59838700
| 36> N                   0.00150800    1.33773300   -0.60209900
| 37> C                   0.00058900    2.75552300   -0.80739300
| 38> C                  -0.00882800    3.61388500    0.32010700
| 39> C                   0.00908000    3.25827500   -2.08132000
| 40> C                  -0.01719200    3.13370600    1.64772300
| 41> C                  -0.00955500    5.02295900    0.09320400
| 42> C                   0.00838700    4.64657800   -2.29571300
| 43> H                   0.01626600    2.57293000   -2.91985400
| 44> C                  -0.02609000    4.00555800    2.70413200
| 45> H                  -0.01642800    2.06468700    1.82375200
| 46> C                  -0.01886900    5.88997000    1.20767400
| 47> C                  -0.00079500    5.50832400   -1.23232900
| 48> H                   0.01512900    5.02768800   -3.30864600
| 49> C                  -0.02699800    5.39464000    2.48376800
| 50> H                  -0.03241900    3.62488100    3.71764900
| 51> H                  -0.01937300    6.95893200    1.02981200
| 52> H                  -0.00143300    6.58011600   -1.39142500
| 53> H                  -0.03406200    6.07091200    3.32919500
| 54> H                  -2.51497500   -2.38116600    0.10409700
| 55> H                   4.54022000    1.33378400   -0.54317400
| 56> C                   0.01021200   -2.66879700   -1.09901000
| 57> H                   0.01780600   -2.26135600   -2.11032800
| 58> H                   0.88754400   -3.30522900   -0.98473500
| 59> H                  -0.87016200   -3.30331800   -0.99734800
| 60> C                  -0.00416100   -2.17723100    1.35264600
| 61> H                   0.87715000   -2.80060400    1.50420300
| 62> H                  -0.01225200   -1.40924200    2.12720000
| 63> H                  -0.88163900   -2.80837100    1.49316700
| 64> C                   4.99550500   -1.31286300   -0.05513800
| 65> C                   5.11248700   -2.49254400    0.69374800
| 66> C                   6.15581300   -0.81066600   -0.66148200
| 67> C                   6.31979700   -3.14205800    0.83103800
| 68> H                   4.24431000   -2.89767900    1.19677800
| 69> C                   7.37016100   -1.44844200   -0.53239000
| 70> H                   6.10071100    0.08668400   -1.26353700
| 71> C                   7.46566300   -2.62582300    0.21681000
| 72> H                   6.38899400   -4.04685100    1.42001400
| 73> H                   8.25113800   -1.04775200   -1.01580000
| 74> C                  -4.98997200   -1.32600300   -0.09568900
| 75> C                  -5.11269100   -2.69713500   -0.36294500
| 76> C                  -6.14345800   -0.63662100    0.30504700
| 77> C                  -6.31915000   -3.35064100   -0.23732900
| 78> H                  -4.24975800   -3.25868900   -0.69612300
| 79> C                  -7.35689500   -1.27610500    0.43384200
| 80> H                  -6.08338900    0.41756100    0.54160200
| 81> C                  -7.45833400   -2.64478700    0.16363300
| 82> H                  -6.39291600   -4.40752600   -0.45633500
| 83> H                  -8.23267900   -0.72655200    0.75231700
| 84> C                  -8.70201000   -3.30886700    0.29507900
| 85> C                   8.71001100   -3.28800600    0.35229600
| 86> N                   9.72793300   -3.82989700    0.46287000
| 87> N                  -9.71948300   -3.85222800    0.40257600
| 88> *
| 89>
| 90>
| 91>                          ****END OF INPUT****

CARTESIAN COORDINATES (ANGSTROEM)
---------------------------------
  C      3.635538    0.744949   -0.461639
  C      2.421079    1.380305   -0.587584
  C      1.216562    0.672857   -0.467127
  C      1.258193   -0.704545   -0.203886
  C      2.498409   -1.310932   -0.075696
  C      3.709011   -0.625920   -0.198952
  C      0.002810   -1.548306   -0.049095
  C     -1.253233   -0.709094   -0.222157
  C     -1.212807    0.669983   -0.476447
  C     -2.418135    1.375379   -0.600845
  H     -2.397772    2.436017   -0.808611
  C     -3.631941    0.738751   -0.475113
  C     -3.704363   -0.635304   -0.228971
  C     -2.492895   -1.320039   -0.112386
  H      2.399547    2.444188   -0.777851
  H      2.522232   -2.378324    0.108288
  H     -4.537100    1.319536   -0.598387
  N      0.001508    1.337733   -0.602099
  C      0.000589    2.755523   -0.807393
  C     -0.008828    3.613885    0.320107
  C      0.009080    3.258275   -2.081320
  C     -0.017192    3.133706    1.647723
  C     -0.009555    5.022959    0.093204
  C      0.008387    4.646578   -2.295713
  H      0.016266    2.572930   -2.919854
  C     -0.026090    4.005558    2.704132
  H     -0.016428    2.064687    1.823752
  C     -0.018869    5.889970    1.207674
  C     -0.000795    5.508324   -1.232329
  H      0.015129    5.027688   -3.308646
  C     -0.026998    5.394640    2.483768
  H     -0.032419    3.624881    3.717649
  H     -0.019373    6.958932    1.029812
  H     -0.001433    6.580116   -1.391425
  H     -0.034062    6.070912    3.329195
  H     -2.514975   -2.381166    0.104097
  H      4.540220    1.333784   -0.543174
  C      0.010212   -2.668797   -1.099010
  H      0.017806   -2.261356   -2.110328
  H      0.887544   -3.305229   -0.984735
  H     -0.870162   -3.303318   -0.997348
  C     -0.004161   -2.177231    1.352646
  H      0.877150   -2.800604    1.504203
  H     -0.012252   -1.409242    2.127200
  H     -0.881639   -2.808371    1.493167
  C      4.995505   -1.312863   -0.055138
  C      5.112487   -2.492544    0.693748
  C      6.155813   -0.810666   -0.661482
  C      6.319797   -3.142058    0.831038
  H      4.244310   -2.897679    1.196778
  C      7.370161   -1.448442   -0.532390
  H      6.100711    0.086684   -1.263537
  C      7.465663   -2.625823    0.216810
  H      6.388994   -4.046851    1.420014
  H      8.251138   -1.047752   -1.015800
  C     -4.989972   -1.326003   -0.095689
  C     -5.112691   -2.697135   -0.362945
  C     -6.143458   -0.636621    0.305047
  C     -6.319150   -3.350641   -0.237329
  H     -4.249758   -3.258689   -0.696123
  C     -7.356895   -1.276105    0.433842
  H     -6.083389    0.417561    0.541602
  C     -7.458334   -2.644787    0.163633
  H     -6.392916   -4.407526   -0.456335
  H     -8.232679   -0.726552    0.752317
  C     -8.702010   -3.308867    0.295079
  C      8.710011   -3.288006    0.352296
  N      9.727933   -3.829897    0.462870
  N     -9.719483   -3.852228    0.402576

 Total Charge           Charge          ....    0
 Multiplicity           Mult            ....    1
 Number of Electrons    NEL             ....  282
 Basis Dimension        Dim             .... 1464

ORBITAL ENERGIES
----------------

  NO   OCC          E(Eh)            E(eV)
   0   2.0000     -14.875991      -404.7963
   1   2.0000     -14.847348      -404.0169
   2   2.0000     -14.847209      -404.0131
   3   2.0000     -10.670125      -290.3489
   4   2.0000     -10.670031      -290.3463
   5   2.0000     -10.668264      -290.2982
   6   2.0000     -10.668196      -290.2964
   7   2.0000     -10.659586      -290.0621
   8   2.0000     -10.656466      -289.9772
   9   2.0000     -10.656272      -289.9719
  10   2.0000     -10.644779      -289.6592
  11   2.0000     -10.644512      -289.6519
  12   2.0000     -10.636836      -289.4430
  13   2.0000     -10.636779      -289.4415
  14   2.0000     -10.636611      -289.4369
  15   2.0000     -10.636544      -289.4351
  16   2.0000     -10.635285      -289.4008
  17   2.0000     -10.631881      -289.3082
  18   2.0000     -10.630805      -289.2789
  19   2.0000     -10.623626      -289.0836
  20   2.0000     -10.623565      -289.0819
  21   2.0000     -10.623407      -289.0776
  22   2.0000     -10.623288      -289.0744
  23   2.0000     -10.622896      -289.0637
  24   2.0000     -10.622745      -289.0596
  25   2.0000     -10.622506      -289.0531
  26   2.0000     -10.622464      -289.0519
  27   2.0000     -10.621770      -289.0330
  28   2.0000     -10.621174      -289.0168
  29   2.0000     -10.619533      -288.9722
  30   2.0000     -10.619151      -288.9618
  31   2.0000     -10.618968      -288.9568
  32   2.0000     -10.618160      -288.9348
  33   2.0000     -10.617859      -288.9266
  34   2.0000     -10.617691      -288.9221
  35   2.0000     -10.617168      -288.9078
  36   2.0000     -10.616737      -288.8961
  37   2.0000     -10.616666      -288.8942
  38   2.0000     -10.612426      -288.7788
  39   2.0000     -10.612348      -288.7767
  40   2.0000     -10.593017      -288.2506
  41   2.0000     -10.592930      -288.2483
  42   2.0000      -1.119017       -30.4500
  43   2.0000      -1.050674       -28.5903
  44   2.0000      -1.050539       -28.5866
  45   2.0000      -1.012631       -27.5551
  46   2.0000      -1.009316       -27.4649
  47   2.0000      -1.005670       -27.3657
  48   2.0000      -0.986575       -26.8461
  49   2.0000      -0.984734       -26.7960
  50   2.0000      -0.949302       -25.8318
  51   2.0000      -0.943043       -25.6615
  52   2.0000      -0.918662       -24.9981
  53   2.0000      -0.903432       -24.5836
  54   2.0000      -0.891715       -24.2648
  55   2.0000      -0.878150       -23.8957
  56   2.0000      -0.876844       -23.8601
  57   2.0000      -0.866799       -23.5868
  58   2.0000      -0.860561       -23.4171
  59   2.0000      -0.857315       -23.3287
  60   2.0000      -0.844664       -22.9845
  61   2.0000      -0.840536       -22.8721
  62   2.0000      -0.815354       -22.1869
  63   2.0000      -0.786396       -21.3989
  64   2.0000      -0.766253       -20.8508
  65   2.0000      -0.758649       -20.6439
  66   2.0000      -0.734947       -19.9989
  67   2.0000      -0.726482       -19.7686
  68   2.0000      -0.725008       -19.7285
  69   2.0000      -0.716012       -19.4837
  70   2.0000      -0.709330       -19.3019
  71   2.0000      -0.702564       -19.1177
  72   2.0000      -0.700435       -19.0598
  73   2.0000      -0.683125       -18.5888
  74   2.0000      -0.662029       -18.0147
  75   2.0000      -0.643158       -17.5012
  76   2.0000      -0.642276       -17.4772
  77   2.0000      -0.634453       -17.2643
  78   2.0000      -0.627567       -17.0770
  79   2.0000      -0.614065       -16.7096
  80   2.0000      -0.600409       -16.3380
  81   2.0000      -0.581814       -15.8320
  82   2.0000      -0.581375       -15.8200
  83   2.0000      -0.572816       -15.5871
  84   2.0000      -0.568046       -15.4573
  85   2.0000      -0.558039       -15.1850
  86   2.0000      -0.544820       -14.8253
  87   2.0000      -0.532471       -14.4893
  88   2.0000      -0.529643       -14.4123
  89   2.0000      -0.529310       -14.4033
  90   2.0000      -0.523609       -14.2481
  91   2.0000      -0.520722       -14.1696
  92   2.0000      -0.513188       -13.9646
  93   2.0000      -0.507389       -13.8068
  94   2.0000      -0.505082       -13.7440
  95   2.0000      -0.502868       -13.6837
  96   2.0000      -0.500861       -13.6291
  97   2.0000      -0.498432       -13.5630
  98   2.0000      -0.494679       -13.4609
  99   2.0000      -0.492228       -13.3942
 100   2.0000      -0.488340       -13.2884
 101   2.0000      -0.481860       -13.1121
 102   2.0000      -0.476813       -12.9747
 103   2.0000      -0.472469       -12.8565
 104   2.0000      -0.471715       -12.8360
 105   2.0000      -0.470431       -12.8011
 106   2.0000      -0.461811       -12.5665
 107   2.0000      -0.459848       -12.5131
 108   2.0000      -0.458288       -12.4706
 109   2.0000      -0.456272       -12.4158
 110   2.0000      -0.453997       -12.3539
 111   2.0000      -0.450956       -12.2711
 112   2.0000      -0.442630       -12.0446
 113   2.0000      -0.437006       -11.8915
 114   2.0000      -0.433607       -11.7990
 115   2.0000      -0.429202       -11.6792
 116   2.0000      -0.429058       -11.6753
 117   2.0000      -0.423674       -11.5288
 118   2.0000      -0.420853       -11.4520
 119   2.0000      -0.410972       -11.1831
 120   2.0000      -0.408350       -11.1118
 121   2.0000      -0.408065       -11.1040
 122   2.0000      -0.401674       -10.9301
 123   2.0000      -0.399085       -10.8596
 124   2.0000      -0.396600       -10.7920
 125   2.0000      -0.395846       -10.7715
 126   2.0000      -0.389602       -10.6016
 127   2.0000      -0.382101       -10.3975
 128   2.0000      -0.380229       -10.3466
 129   2.0000      -0.371570       -10.1109
 130   2.0000      -0.337499        -9.1838
 131   2.0000      -0.331011        -9.0073
 132   2.0000      -0.308474        -8.3940
 133   2.0000      -0.308225        -8.3872
 134   2.0000      -0.305404        -8.3105
 135   2.0000      -0.294981        -8.0268
 136   2.0000      -0.286824        -7.8049
 137   2.0000      -0.285944        -7.7809
 138   2.0000      -0.266686        -7.2569
 139   2.0000      -0.255777        -6.9600
 140   2.0000      -0.218463        -5.9447
 141   0.0000      -0.020366        -0.5542
 142   0.0000      -0.009500        -0.2585
 143   0.0000      -0.002619        -0.0713
 144   0.0000       0.023243         0.6325
 145   0.0000       0.025605         0.6968

MULLIKEN ATOMIC CHARGES
-----------------------
   0 C :   -0.232029
   1 C :   -0.276735
   2 C :    0.208312
   3 C :   -0.114276
   4 C :   -0.288461
   5 C :    0.142319
   6 C :    0.256561
   7 C :   -0.123567
   8 C :    0.210688
   9 C :   -0.276035
  10 H :    0.166116
  11 C :   -0.232577
  12 C :    0.135437
  13 C :   -0.281595
  14 H :    0.166522
  15 H :    0.170727
  16 H :    0.156154
  17 N :    0.078255
  18 C :    0.185318
  19 C :    0.026107
  20 C :   -0.175784
  21 C :   -0.316193
  22 C :    0.081315
  23 C :   -0.127152
  24 H :    0.156803
  25 C :   -0.112811
  26 H :    0.174685
  27 C :   -0.189275
  28 C :   -0.241482
  29 H :    0.158193
  30 C :   -0.165235
  31 H :    0.159033
  32 H :    0.157588
  33 H :    0.156927
  34 H :    0.158405
  35 H :    0.170100
  36 H :    0.155216
  37 C :   -0.419510
  38 H :    0.128216
  39 H :    0.131228
  40 H :    0.132960
  41 C :   -0.419659
  42 H :    0.133574
  43 H :    0.129201
  44 H :    0.131512
  45 C :    0.114541
  46 C :   -0.209463
  47 C :   -0.200936
  48 C :   -0.229970
  49 H :    0.169956
  50 C :   -0.228281
  51 H :    0.164157
  52 C :    0.297186
  53 H :    0.171234
  54 H :    0.171267
  55 C :    0.123365
  56 C :   -0.214901
  57 C :   -0.200249
  58 C :   -0.229929
  59 H :    0.171051
  60 C :   -0.229297
  61 H :    0.162952
  62 C :    0.296293
  63 H :    0.171443
  64 H :    0.171918
  65 C :   -0.152470
  66 C :   -0.151172
  67 N :   -0.182608
  68 N :   -0.181183
Sum of atomic charges:   -0.0000000

LOEWDIN ATOMIC CHARGES
----------------------
   0 C :   -0.099880
   1 C :   -0.119138
   2 C :   -0.118693
   3 C :   -0.063681
   4 C :   -0.053855
   5 C :   -0.125340
   6 C :   -0.230640
   7 C :   -0.063638
   8 C :   -0.118702
   9 C :   -0.119014
  10 H :    0.162737
  11 C :   -0.100126
  12 C :   -0.125607
  13 C :   -0.053871
  14 H :    0.162690
  15 H :    0.162668
  16 H :    0.157901
  17 N :    0.292409
  18 C :   -0.134089
  19 C :   -0.069673
  20 C :   -0.092598
  21 C :   -0.098585
  22 C :   -0.096543
  23 C :   -0.138410
  24 H :    0.160842
  25 C :   -0.138527
  26 H :    0.160022
  27 C :   -0.101051
  28 C :   -0.095027
  29 H :    0.153809
  30 C :   -0.142397
  31 H :    0.152633
  32 H :    0.156609
  33 H :    0.157560
  34 H :    0.152146
  35 H :    0.162629
  36 H :    0.157955
  37 C :   -0.230581
  38 H :    0.123830
  39 H :    0.123926
  40 H :    0.124164
  41 C :   -0.230522
  42 H :    0.124147
  43 H :    0.124017
  44 H :    0.123885
  45 C :   -0.081341
  46 C :   -0.090932
  47 C :   -0.090676
  48 C :   -0.070560
  49 H :    0.160523
  50 C :   -0.070489
  51 H :    0.160508
  52 C :   -0.160086
  53 H :    0.164040
  54 H :    0.164068
  55 C :   -0.081478
  56 C :   -0.090994
  57 C :   -0.090778
  58 C :   -0.070538
  59 H :    0.160636
  60 C :   -0.070689
  61 H :    0.160406
  62 C :   -0.160282
  63 H :    0.164088
  64 H :    0.164132
  65 C :   -0.130221
  66 C :   -0.130000
  67 N :   -0.023020
  68 N :   -0.022709

  Mayer bond orders larger than 0.100000
B(  0-C ,  1-C ) :   1.4725 B(  0-C ,  5-C ) :   1.3252 B(  0-C , 36-H ) :   0.9725
B(  1-C ,  2-C ) :   1.3270 B(  1-C , 14-H ) :   0.9830 B(  2-C ,  3-C ) :   1.2525
B(  2-C , 17-N ) :   1.1194 B(  3-C ,  4-C ) :   1.3910 B(  3-C ,  6-C ) :   0.9776
B(  4-C ,  5-C ) :   1.4069 B(  4-C , 15-H ) :   0.9423 B(  5-C , 45-C ) :   0.9461
B(  6-C ,  7-C ) :   0.9762 B(  6-C , 37-C ) :   0.8848 B(  6-C , 41-C ) :   0.8792
B(  7-C ,  8-C ) :   1.2525 B(  7-C , 13-C ) :   1.3889 B(  8-C ,  9-C ) :   1.3252
B(  8-C , 17-N ) :   1.1202 B(  9-C , 10-H ) :   0.9837 B(  9-C , 11-C ) :   1.4743
B( 11-C , 12-C ) :   1.3256 B( 11-C , 16-H ) :   0.9705 B( 12-C , 13-C ) :   1.4069
B( 12-C , 55-C ) :   0.9489 B( 13-C , 35-H ) :   0.9428 B( 17-N , 18-C ) :   0.6994
B( 18-C , 19-C ) :   1.1533 B( 18-C , 20-C ) :   1.6268 B( 18-C , 22-C ) :  -0.1070
B( 19-C , 21-C ) :   1.2679 B( 19-C , 22-C ) :   1.2753 B( 20-C , 23-C ) :   1.2398
B( 20-C , 24-H ) :   0.9891 B( 21-C , 25-C ) :   1.5545 B( 21-C , 26-H ) :   0.9650
B( 22-C , 27-C ) :   1.2512 B( 22-C , 28-C ) :   1.2232 B( 23-C , 28-C ) :   1.5017
B( 23-C , 29-H ) :   0.9917 B( 25-C , 30-C ) :   1.2396 B( 25-C , 31-H ) :   0.9846
B( 27-C , 30-C ) :   1.5279 B( 27-C , 32-H ) :   0.9838 B( 28-C , 33-H ) :   0.9917
B( 30-C , 34-H ) :   0.9838 B( 37-C , 38-H ) :   0.9846 B( 37-C , 39-H ) :   0.9755
B( 37-C , 40-H ) :   0.9765 B( 41-C , 42-H ) :   0.9756 B( 41-C , 43-H ) :   0.9844
B( 41-C , 44-H ) :   0.9746 B( 45-C , 46-C ) :   1.3536 B( 45-C , 47-C ) :   1.3539
B( 46-C , 48-C ) :   1.4808 B( 46-C , 49-H ) :   0.9632 B( 47-C , 50-C ) :   1.4783
B( 47-C , 51-H ) :   0.9698 B( 48-C , 52-C ) :   1.3089 B( 48-C , 53-H ) :   0.9831
B( 50-C , 52-C ) :   1.3067 B( 50-C , 54-H ) :   0.9837 B( 52-C , 66-C ) :   0.9507
B( 55-C , 56-C ) :   1.3516 B( 55-C , 57-C ) :   1.3504 B( 56-C , 58-C ) :   1.4825
B( 56-C , 59-H ) :   0.9630 B( 57-C , 60-C ) :   1.4802 B( 57-C , 61-H ) :   0.9699
B( 58-C , 62-C ) :   1.3093 B( 58-C , 63-H ) :   0.9826 B( 60-C , 62-C ) :   1.3059
B( 60-C , 64-H ) :   0.9828 B( 62-C , 65-C ) :   0.9524 B( 65-C , 68-N ) :   3.0409
B( 66-C , 67-N ) :   3.0419

MP2 TOTAL ENERGY:    -1665.876354191 Eh

-----------------------------------------------------------------------------
         ABSORPTION SPECTRUM VIA TRANSITION ELECTRIC DIPOLE MOMENTS
-----------------------------------------------------------------------------
State   Energy    Wavelength  fosc         T2        TX        TY        TZ
        (cm-1)      (nm)                 (au**2)    (au)      (au)      (au)
-----------------------------------------------------------------------------
   1   24822.4    402.9   1.386771970  18.39232  -4.28857  -0.01528  -0.01584
   2   28661.7    348.9   0.379833946   4.36282  -0.02124   2.07569  -0.23216
   3   26744.0    373.9   0.012085752   0.14877  -0.01991  -0.38301   0.04095
   4   32017.0    312.3   0.183105943   1.88277   0.00995  -1.36313   0.15667
   5   35235.6    283.8   0.042754223   0.39946  -0.01348  -0.62902   0.06014
   6   32057.3    311.9   0.052390902   0.53803  -0.73252  -0.00813  -0.03711
   7   34689.8    288.3   0.000199441   0.00189  -0.01468  -0.00143  -0.04093
   8   35461.1    282.0   0.003895786   0.03617  -0.17080  -0.00044  -0.08363
   9   36074.3    277.2   0.003590095   0.03276  -0.01426  -0.18044   0.00110
  10   35740.6    279.8   0.086601231   0.79770  -0.68286  -0.57305   0.05487
  11   37768.8    264.8   0.302428387   2.63612  -1.60618   0.23485  -0.03400
  12   35764.4    279.6   0.003905414   0.03595   0.18204   0.01931   0.04939
  13   36521.1    273.8   0.023583317   0.21259   0.02303  -0.21311   0.40822
  14   38885.2    257.2   0.012837716   0.10869  -0.01251  -0.05202  -0.32531
  15   38968.8    256.6   0.004746446   0.04010  -0.00426   0.10733   0.16900
  16   38527.0    259.6   0.007632662   0.06522  -0.20800  -0.00730  -0.14800
  17   39470.7    253.4   0.109731241   0.91523   0.00770   0.94296   0.16126
  18   39829.9    251.1   0.205862389   1.70155   0.04103   1.30250  -0.05793
  19   42605.0    234.7   0.841846020   6.50500  -0.22848  -0.68237  -2.44687
  20   40346.2    247.9   0.301211391   2.45779  -1.25486   0.26570   0.90140
  21   46303.4    216.0   0.002121752   0.01509   0.01493   0.10503   0.06189
  22   41683.0    239.9   0.288393173   2.27773   0.01033   0.55891   1.40187
  23   44616.7    224.1   0.337615794   2.49116  -0.00381   1.45683  -0.60728
  24   43787.4    228.4   0.183475277   1.37945   1.17022  -0.03454  -0.09401
  25   42558.0    235.0   0.171546102   1.32701  -1.15189   0.01239   0.00167
  26   45838.2    218.2   0.038307068   0.27512  -0.45988  -0.09325  -0.23440
  27   44851.9    223.0   0.414196527   3.04020  -1.74016   0.03946   0.10237
  28   44206.2    226.2   0.200238809   1.49122  -1.01168  -0.63195   0.26145
  29   44186.3    226.3   0.243585842   1.81485  -1.22531   0.37073  -0.41955
  30   42686.7    234.3   0.035187198   0.27137  -0.49729  -0.15511   0.00368

Dispersion correction           -0.088601926
FINAL SINGLE POINT ENERGY     -1663.665071159103

DIPOLE MOMENT
-------------
                                X             Y             Z
Electronic contribution:      0.02278      -0.41992      -1.81715
Nuclear contribution   :     -0.01502       3.81011       1.25834
                        -----------------------------------------
Total Dipole Moment    :      0.00775       3.39019      -0.55881
                        -----------------------------------------
Magnitude (a.u.)       :      3.43594
Magnitude (Debye)      :      8.73347

Rotational constants in cm-1:     0.003437     0.001388     0.001054
Rotational constants in MHz :   103.045994    41.609262    31.611058

                             ****ORCA TERMINATED NORMALLY****
TOTAL RUN TIME: 0 days 7 hours 15 minutes 52 seconds 70 msec
