                         Program Version 5.0.2 -  RELEASE  -
|  1> %maxcore 20000
|  2> %pal
|  3>  nprocs= 6
|  4> end
|  5> ! RI-SCS-PBE-QIDH   def2-TZVP def2/J def2-TZVP/C RIJCOSX CPCM TightSCF
|  6> %TDDFT
|  7>    NROOTS   30
|  8>    dcorr 4
|  9>    doscs true
| 10>    TDA      FALSE
| 11> END
| 12>
| 13> %CPCM
| 14>    SMD          TRUE
| 15>    SMDsolvent   "N,N-DIMETHYLFORMAMIDE"
| 16> END
| 17>
| 18>
| 19> * xyz 0 1
| 20> C                   3.63553800    0.74494900   -0.46163900
| 21> C                   2.42107900    1.38030500   -0.58758400
| 22> C                   1.21656200    0.67285700   -0.46712700
| 23> C                   1.25819300   -0.70454500   -0.20388600
| 24> C                   2.49840900   -1.31093200   -0.07569600
| 25> C                   3.70901100   -0.62592000   -0.19895200
| 26> C                   0.00281000   -1.54830600   -0.04909500
| 27> C                  -1.25323300   -0.70909400   -0.22215700
| 28> C                  -1.21280700    0.66998300   -0.47644700
| 29> C                  -2.41813500    1.37537900   -0.60084500
| 30> H                  -2.39777200    2.43601700   -0.80861100
| 31> C                  -3.63194100    0.73875100   -0.47511300
| 32> C                  -3.70436300   -0.63530400   -0.22897100
| 33> C                  -2.49289500   -1.32003900   -0.11238600
| 34> H                   2.39954700    2.44418800   -0.77785100
| 35> H                   2.52223200   -2.37832400    0.10828800
| 36> H                  -4.53710000    1.31953600   -0.59838700
| 37> N                   0.00150800    1.33773300   -0.60209900
| 38> C                   0.00058900    2.75552300   -0.80739300
| 39> C                  -0.00882800    3.61388500    0.32010700
| 40> C                   0.00908000    3.25827500   -2.08132000
| 41> C                  -0.01719200    3.13370600    1.64772300
| 42> C                  -0.00955500    5.02295900    0.09320400
| 43> C                   0.00838700    4.64657800   -2.29571300
| 44> H                   0.01626600    2.57293000   -2.91985400
| 45> C                  -0.02609000    4.00555800    2.70413200
| 46> H                  -0.01642800    2.06468700    1.82375200
| 47> C                  -0.01886900    5.88997000    1.20767400
| 48> C                  -0.00079500    5.50832400   -1.23232900
| 49> H                   0.01512900    5.02768800   -3.30864600
| 50> C                  -0.02699800    5.39464000    2.48376800
| 51> H                  -0.03241900    3.62488100    3.71764900
| 52> H                  -0.01937300    6.95893200    1.02981200
| 53> H                  -0.00143300    6.58011600   -1.39142500
| 54> H                  -0.03406200    6.07091200    3.32919500
| 55> H                  -2.51497500   -2.38116600    0.10409700
| 56> H                   4.54022000    1.33378400   -0.54317400
| 57> C                   0.01021200   -2.66879700   -1.09901000
| 58> H                   0.01780600   -2.26135600   -2.11032800
| 59> H                   0.88754400   -3.30522900   -0.98473500
| 60> H                  -0.87016200   -3.30331800   -0.99734800
| 61> C                  -0.00416100   -2.17723100    1.35264600
| 62> H                   0.87715000   -2.80060400    1.50420300
| 63> H                  -0.01225200   -1.40924200    2.12720000
| 64> H                  -0.88163900   -2.80837100    1.49316700
| 65> C                   4.99550500   -1.31286300   -0.05513800
| 66> C                   5.11248700   -2.49254400    0.69374800
| 67> C                   6.15581300   -0.81066600   -0.66148200
| 68> C                   6.31979700   -3.14205800    0.83103800
| 69> H                   4.24431000   -2.89767900    1.19677800
| 70> C                   7.37016100   -1.44844200   -0.53239000
| 71> H                   6.10071100    0.08668400   -1.26353700
| 72> C                   7.46566300   -2.62582300    0.21681000
| 73> H                   6.38899400   -4.04685100    1.42001400
| 74> H                   8.25113800   -1.04775200   -1.01580000
| 75> C                  -4.98997200   -1.32600300   -0.09568900
| 76> C                  -5.11269100   -2.69713500   -0.36294500
| 77> C                  -6.14345800   -0.63662100    0.30504700
| 78> C                  -6.31915000   -3.35064100   -0.23732900
| 79> H                  -4.24975800   -3.25868900   -0.69612300
| 80> C                  -7.35689500   -1.27610500    0.43384200
| 81> H                  -6.08338900    0.41756100    0.54160200
| 82> C                  -7.45833400   -2.64478700    0.16363300
| 83> H                  -6.39291600   -4.40752600   -0.45633500
| 84> H                  -8.23267900   -0.72655200    0.75231700
| 85> C                  -8.70201000   -3.30886700    0.29507900
| 86> C                   8.71001100   -3.28800600    0.35229600
| 87> N                   9.72793300   -3.82989700    0.46287000
| 88> N                  -9.71948300   -3.85222800    0.40257600
| 89> *
| 90>
| 91>
| 92>                          ****END OF INPUT****

CARTESIAN COORDINATES (ANGSTROEM)
---------------------------------
  C      3.635538    0.744949   -0.461639
  C      2.421079    1.380305   -0.587584
  C      1.216562    0.672857   -0.467127
  C      1.258193   -0.704545   -0.203886
  C      2.498409   -1.310932   -0.075696
  C      3.709011   -0.625920   -0.198952
  C      0.002810   -1.548306   -0.049095
  C     -1.253233   -0.709094   -0.222157
  C     -1.212807    0.669983   -0.476447
  C     -2.418135    1.375379   -0.600845
  H     -2.397772    2.436017   -0.808611
  C     -3.631941    0.738751   -0.475113
  C     -3.704363   -0.635304   -0.228971
  C     -2.492895   -1.320039   -0.112386
  H      2.399547    2.444188   -0.777851
  H      2.522232   -2.378324    0.108288
  H     -4.537100    1.319536   -0.598387
  N      0.001508    1.337733   -0.602099
  C      0.000589    2.755523   -0.807393
  C     -0.008828    3.613885    0.320107
  C      0.009080    3.258275   -2.081320
  C     -0.017192    3.133706    1.647723
  C     -0.009555    5.022959    0.093204
  C      0.008387    4.646578   -2.295713
  H      0.016266    2.572930   -2.919854
  C     -0.026090    4.005558    2.704132
  H     -0.016428    2.064687    1.823752
  C     -0.018869    5.889970    1.207674
  C     -0.000795    5.508324   -1.232329
  H      0.015129    5.027688   -3.308646
  C     -0.026998    5.394640    2.483768
  H     -0.032419    3.624881    3.717649
  H     -0.019373    6.958932    1.029812
  H     -0.001433    6.580116   -1.391425
  H     -0.034062    6.070912    3.329195
  H     -2.514975   -2.381166    0.104097
  H      4.540220    1.333784   -0.543174
  C      0.010212   -2.668797   -1.099010
  H      0.017806   -2.261356   -2.110328
  H      0.887544   -3.305229   -0.984735
  H     -0.870162   -3.303318   -0.997348
  C     -0.004161   -2.177231    1.352646
  H      0.877150   -2.800604    1.504203
  H     -0.012252   -1.409242    2.127200
  H     -0.881639   -2.808371    1.493167
  C      4.995505   -1.312863   -0.055138
  C      5.112487   -2.492544    0.693748
  C      6.155813   -0.810666   -0.661482
  C      6.319797   -3.142058    0.831038
  H      4.244310   -2.897679    1.196778
  C      7.370161   -1.448442   -0.532390
  H      6.100711    0.086684   -1.263537
  C      7.465663   -2.625823    0.216810
  H      6.388994   -4.046851    1.420014
  H      8.251138   -1.047752   -1.015800
  C     -4.989972   -1.326003   -0.095689
  C     -5.112691   -2.697135   -0.362945
  C     -6.143458   -0.636621    0.305047
  C     -6.319150   -3.350641   -0.237329
  H     -4.249758   -3.258689   -0.696123
  C     -7.356895   -1.276105    0.433842
  H     -6.083389    0.417561    0.541602
  C     -7.458334   -2.644787    0.163633
  H     -6.392916   -4.407526   -0.456335
  H     -8.232679   -0.726552    0.752317
  C     -8.702010   -3.308867    0.295079
  C      8.710011   -3.288006    0.352296
  N      9.727933   -3.829897    0.462870
  N     -9.719483   -3.852228    0.402576

 Total Charge           Charge          ....    0
 Multiplicity           Mult            ....    1
 Number of Electrons    NEL             ....  282
 Basis Dimension        Dim             .... 1464

ORBITAL ENERGIES
----------------

  NO   OCC          E(Eh)            E(eV)
   0   2.0000     -15.122940      -411.5161
   1   2.0000     -15.092583      -410.6901
   2   2.0000     -15.092442      -410.6862
   3   2.0000     -10.876836      -295.9737
   4   2.0000     -10.876767      -295.9719
   5   2.0000     -10.876312      -295.9595
   6   2.0000     -10.876218      -295.9569
   7   2.0000     -10.867067      -295.7079
   8   2.0000     -10.862866      -295.5936
   9   2.0000     -10.862668      -295.5882
  10   2.0000     -10.852816      -295.3201
  11   2.0000     -10.852543      -295.3127
  12   2.0000     -10.843576      -295.0687
  13   2.0000     -10.843513      -295.0670
  14   2.0000     -10.843345      -295.0624
  15   2.0000     -10.843277      -295.0606
  16   2.0000     -10.842322      -295.0346
  17   2.0000     -10.838906      -294.9416
  18   2.0000     -10.837550      -294.9047
  19   2.0000     -10.829981      -294.6988
  20   2.0000     -10.829845      -294.6951
  21   2.0000     -10.829811      -294.6942
  22   2.0000     -10.829760      -294.6928
  23   2.0000     -10.829405      -294.6831
  24   2.0000     -10.829333      -294.6811
  25   2.0000     -10.829181      -294.6770
  26   2.0000     -10.829048      -294.6734
  27   2.0000     -10.827916      -294.6426
  28   2.0000     -10.827224      -294.6237
  29   2.0000     -10.825157      -294.5675
  30   2.0000     -10.825020      -294.5638
  31   2.0000     -10.824938      -294.5615
  32   2.0000     -10.824775      -294.5571
  33   2.0000     -10.824769      -294.5569
  34   2.0000     -10.824181      -294.5409
  35   2.0000     -10.824112      -294.5391
  36   2.0000     -10.823876      -294.5326
  37   2.0000     -10.822676      -294.5000
  38   2.0000     -10.818423      -294.3842
  39   2.0000     -10.818346      -294.3822
  40   2.0000     -10.796190      -293.7793
  41   2.0000     -10.796086      -293.7764
  42   2.0000      -1.196984       -32.5716
  43   2.0000      -1.124798       -30.6073
  44   2.0000      -1.124660       -30.6036
  45   2.0000      -1.086430       -29.5633
  46   2.0000      -1.082834       -29.4654
  47   2.0000      -1.078783       -29.3552
  48   2.0000      -1.059098       -28.8195
  49   2.0000      -1.056966       -28.7615
  50   2.0000      -1.019558       -27.7436
  51   2.0000      -1.013064       -27.5669
  52   2.0000      -0.986951       -26.8563
  53   2.0000      -0.970960       -26.4212
  54   2.0000      -0.958634       -26.0857
  55   2.0000      -0.944418       -25.6989
  56   2.0000      -0.942960       -25.6592
  57   2.0000      -0.932820       -25.3833
  58   2.0000      -0.925917       -25.1955
  59   2.0000      -0.922497       -25.1024
  60   2.0000      -0.908893       -24.7322
  61   2.0000      -0.905226       -24.6324
  62   2.0000      -0.877945       -23.8901
  63   2.0000      -0.846783       -23.0421
  64   2.0000      -0.824716       -22.4417
  65   2.0000      -0.816912       -22.2293
  66   2.0000      -0.792015       -21.5518
  67   2.0000      -0.783083       -21.3088
  68   2.0000      -0.781256       -21.2591
  69   2.0000      -0.772156       -21.0114
  70   2.0000      -0.764750       -20.8099
  71   2.0000      -0.757724       -20.6187
  72   2.0000      -0.755235       -20.5510
  73   2.0000      -0.737513       -20.0688
  74   2.0000      -0.714713       -19.4483
  75   2.0000      -0.693070       -18.8594
  76   2.0000      -0.692208       -18.8359
  77   2.0000      -0.685963       -18.6660
  78   2.0000      -0.677213       -18.4279
  79   2.0000      -0.662800       -18.0357
  80   2.0000      -0.649327       -17.6691
  81   2.0000      -0.629734       -17.1359
  82   2.0000      -0.628661       -17.1067
  83   2.0000      -0.619870       -16.8675
  84   2.0000      -0.614546       -16.7226
  85   2.0000      -0.603839       -16.4313
  86   2.0000      -0.589873       -16.0513
  87   2.0000      -0.577034       -15.7019
  88   2.0000      -0.574080       -15.6215
  89   2.0000      -0.573588       -15.6081
  90   2.0000      -0.567317       -15.4375
  91   2.0000      -0.564273       -15.3547
  92   2.0000      -0.556373       -15.1397
  93   2.0000      -0.549984       -14.9658
  94   2.0000      -0.547750       -14.9050
  95   2.0000      -0.545041       -14.8313
  96   2.0000      -0.543204       -14.7813
  97   2.0000      -0.540852       -14.7173
  98   2.0000      -0.537052       -14.6139
  99   2.0000      -0.534261       -14.5380
 100   2.0000      -0.530408       -14.4331
 101   2.0000      -0.524872       -14.2825
 102   2.0000      -0.521290       -14.1850
 103   2.0000      -0.513391       -13.9701
 104   2.0000      -0.512774       -13.9533
 105   2.0000      -0.511421       -13.9165
 106   2.0000      -0.505637       -13.7591
 107   2.0000      -0.500561       -13.6210
 108   2.0000      -0.498670       -13.5695
 109   2.0000      -0.498122       -13.5546
 110   2.0000      -0.494521       -13.4566
 111   2.0000      -0.490583       -13.3494
 112   2.0000      -0.481603       -13.1051
 113   2.0000      -0.475733       -12.9453
 114   2.0000      -0.472447       -12.8559
 115   2.0000      -0.467695       -12.7266
 116   2.0000      -0.467390       -12.7183
 117   2.0000      -0.462074       -12.5737
 118   2.0000      -0.458803       -12.4847
 119   2.0000      -0.448607       -12.2072
 120   2.0000      -0.445650       -12.1268
 121   2.0000      -0.445414       -12.1203
 122   2.0000      -0.437990       -11.9183
 123   2.0000      -0.435466       -11.8496
 124   2.0000      -0.432770       -11.7763
 125   2.0000      -0.432080       -11.7575
 126   2.0000      -0.425683       -11.5834
 127   2.0000      -0.418502       -11.3880
 128   2.0000      -0.416358       -11.3297
 129   2.0000      -0.406666       -11.0659
 130   2.0000      -0.369202       -10.0465
 131   2.0000      -0.362185        -9.8555
 132   2.0000      -0.337053        -9.1717
 133   2.0000      -0.336799        -9.1648
 134   2.0000      -0.335218        -9.1217
 135   2.0000      -0.324050        -8.8178
 136   2.0000      -0.315632        -8.5888
 137   2.0000      -0.312718        -8.5095
 138   2.0000      -0.293128        -7.9764
 139   2.0000      -0.281352        -7.6560
 140   2.0000      -0.244165        -6.6441
 141   0.0000      -0.007003        -0.1906
 142   0.0000       0.004649         0.1265
 143   0.0000       0.012150         0.3306
 144   0.0000       0.038197         1.0394
 145   0.0000       0.041587         1.1316

MULLIKEN ATOMIC CHARGES
-----------------------
   0 C :   -0.246683
   1 C :   -0.325508
   2 C :    0.238608
   3 C :   -0.154548
   4 C :   -0.320246
   5 C :    0.169728
   6 C :    0.255035
   7 C :   -0.165426
   8 C :    0.240584
   9 C :   -0.323834
  10 H :    0.176938
  11 C :   -0.247592
  12 C :    0.162388
  13 C :   -0.312733
  14 H :    0.177328
  15 H :    0.188291
  16 H :    0.171155
  17 N :    0.152218
  18 C :    0.143268
  19 C :    0.074505
  20 C :   -0.175559
  21 C :   -0.368479
  22 C :    0.094870
  23 C :   -0.137402
  24 H :    0.171176
  25 C :   -0.107084
  26 H :    0.180833
  27 C :   -0.224291
  28 C :   -0.288212
  29 H :    0.172420
  30 C :   -0.176785
  31 H :    0.172624
  32 H :    0.174375
  33 H :    0.173165
  34 H :    0.172312
  35 H :    0.187485
  36 H :    0.170164
  37 C :   -0.438545
  38 H :    0.143505
  39 H :    0.145931
  40 H :    0.147088
  41 C :   -0.437698
  42 H :    0.147698
  43 H :    0.144036
  44 H :    0.146265
  45 C :    0.117281
  46 C :   -0.230953
  47 C :   -0.223999
  48 C :   -0.243243
  49 H :    0.180429
  50 C :   -0.242983
  51 H :    0.177966
  52 C :    0.344872
  53 H :    0.184779
  54 H :    0.184810
  55 C :    0.127746
  56 C :   -0.237818
  57 C :   -0.223205
  58 C :   -0.243031
  59 H :    0.181787
  60 C :   -0.243882
  61 H :    0.176460
  62 C :    0.343611
  63 H :    0.185017
  64 H :    0.185587
  65 C :   -0.149576
  66 C :   -0.147983
  67 N :   -0.224393
  68 N :   -0.222649
Sum of atomic charges:    0.0000000

LOEWDIN ATOMIC CHARGES
----------------------
   0 C :   -0.099315
   1 C :   -0.121851
   2 C :   -0.119908
   3 C :   -0.067778
   4 C :   -0.053696
   5 C :   -0.130416
   6 C :   -0.237998
   7 C :   -0.067741
   8 C :   -0.119918
   9 C :   -0.121736
  10 H :    0.166001
  11 C :   -0.099566
  12 C :   -0.130664
  13 C :   -0.053680
  14 H :    0.165952
  15 H :    0.166375
  16 H :    0.161725
  17 N :    0.287344
  18 C :   -0.140150
  19 C :   -0.073404
  20 C :   -0.093048
  21 C :   -0.101399
  22 C :   -0.100757
  23 C :   -0.140401
  24 H :    0.164715
  25 C :   -0.140018
  26 H :    0.163231
  27 C :   -0.103085
  28 C :   -0.096306
  29 H :    0.157298
  30 C :   -0.144551
  31 H :    0.156119
  32 H :    0.160199
  33 H :    0.161212
  34 H :    0.155567
  35 H :    0.166329
  36 H :    0.161764
  37 C :   -0.235161
  38 H :    0.127141
  39 H :    0.126995
  40 H :    0.127170
  41 C :   -0.235092
  42 H :    0.127152
  43 H :    0.127275
  44 H :    0.126952
  45 C :   -0.084298
  46 C :   -0.093853
  47 C :   -0.093653
  48 C :   -0.070308
  49 H :    0.163743
  50 C :   -0.070268
  51 H :    0.163837
  52 C :   -0.165093
  53 H :    0.167706
  54 H :    0.167737
  55 C :   -0.084423
  56 C :   -0.093919
  57 C :   -0.093746
  58 C :   -0.070301
  59 H :    0.163867
  60 C :   -0.070446
  61 H :    0.163721
  62 C :   -0.165283
  63 H :    0.167751
  64 H :    0.167800
  65 C :   -0.124369
  66 C :   -0.124149
  67 N :   -0.025622
  68 N :   -0.025308

  Mayer bond orders larger than 0.100000
B(  0-C ,  1-C ) :   1.4675 B(  0-C ,  5-C ) :   1.3271 B(  0-C , 36-H ) :   0.9720
B(  1-C ,  2-C ) :   1.3397 B(  1-C , 14-H ) :   0.9846 B(  2-C ,  3-C ) :   1.2669
B(  2-C , 17-N ) :   1.1222 B(  3-C ,  4-C ) :   1.3707 B(  3-C ,  6-C ) :   0.9959
B(  4-C ,  5-C ) :   1.3930 B(  4-C , 15-H ) :   0.9450 B(  5-C , 45-C ) :   0.9154
B(  6-C ,  7-C ) :   0.9947 B(  6-C , 37-C ) :   0.8845 B(  6-C , 41-C ) :   0.8775
B(  7-C ,  8-C ) :   1.2658 B(  7-C , 13-C ) :   1.3675 B(  8-C ,  9-C ) :   1.3385
B(  8-C , 17-N ) :   1.1233 B(  9-C , 10-H ) :   0.9852 B(  9-C , 11-C ) :   1.4690
B( 11-C , 12-C ) :   1.3274 B( 11-C , 16-H ) :   0.9702 B( 12-C , 13-C ) :   1.3927
B( 12-C , 55-C ) :   0.9192 B( 13-C , 35-H ) :   0.9457 B( 17-N , 18-C ) :   0.7252
B( 18-C , 19-C ) :   1.1740 B( 18-C , 20-C ) :   1.6741 B( 18-C , 21-C ) :  -0.1227
B( 18-C , 22-C ) :  -0.1251 B( 19-C , 21-C ) :   1.2785 B( 19-C , 22-C ) :   1.2933
B( 20-C , 23-C ) :   1.2416 B( 20-C , 24-H ) :   0.9805 B( 21-C , 25-C ) :   1.5632
B( 21-C , 26-H ) :   0.9741 B( 22-C , 27-C ) :   1.2624 B( 22-C , 28-C ) :   1.2335
B( 23-C , 28-C ) :   1.4996 B( 23-C , 29-H ) :   0.9868 B( 25-C , 30-C ) :   1.2334
B( 25-C , 31-H ) :   0.9806 B( 27-C , 30-C ) :   1.5324 B( 27-C , 32-H ) :   0.9841
B( 28-C , 33-H ) :   0.9936 B( 30-C , 34-H ) :   0.9809 B( 37-C , 38-H ) :   0.9809
B( 37-C , 39-H ) :   0.9689 B( 37-C , 40-H ) :   0.9694 B( 41-C , 42-H ) :   0.9686
B( 41-C , 43-H ) :   0.9806 B( 41-C , 44-H ) :   0.9681 B( 45-C , 46-C ) :   1.3623
B( 45-C , 47-C ) :   1.3610 B( 46-C , 48-C ) :   1.4813 B( 46-C , 49-H ) :   0.9654
B( 47-C , 50-C ) :   1.4783 B( 47-C , 51-H ) :   0.9701 B( 48-C , 52-C ) :   1.3169
B( 48-C , 53-H ) :   0.9807 B( 50-C , 52-C ) :   1.3147 B( 50-C , 54-H ) :   0.9810
B( 52-C , 66-C ) :   0.9433 B( 55-C , 56-C ) :   1.3600 B( 55-C , 57-C ) :   1.3571
B( 56-C , 58-C ) :   1.4831 B( 56-C , 59-H ) :   0.9652 B( 57-C , 60-C ) :   1.4802
B( 57-C , 61-H ) :   0.9703 B( 58-C , 62-C ) :   1.3175 B( 58-C , 63-H ) :   0.9800
B( 60-C , 62-C ) :   1.3139 B( 60-C , 64-H ) :   0.9800 B( 62-C , 65-C ) :   0.9453
B( 65-C , 68-N ) :   3.0030 B( 66-C , 67-N ) :   3.0040

MP2 TOTAL ENERGY:    -1665.057934323 Eh

-----------------------------------------------------------------------------
         ABSORPTION SPECTRUM VIA TRANSITION ELECTRIC DIPOLE MOMENTS
-----------------------------------------------------------------------------
State   Energy    Wavelength  fosc         T2        TX        TY        TZ
        (cm-1)      (nm)                 (au**2)    (au)      (au)      (au)
-----------------------------------------------------------------------------
   1   26825.5    372.8   1.481237031  18.17827  -4.26354  -0.01565  -0.01560
   2   31498.1    317.5   0.496226165   5.18645  -0.01804   2.26328  -0.25232
   3   30164.7    331.5   0.002291014   0.02500   0.11959  -0.10240   0.01463
   4   36235.5    276.0   0.097358772   0.88454   0.01622   0.93633  -0.08700
   5   32639.0    306.4   0.103559604   1.04455  -0.00202  -1.01474   0.12183
   6   33536.9    298.2   0.001503679   0.01476  -0.09258   0.07096   0.03396
   7   33077.0    302.3   0.067987592   0.67667  -0.82216  -0.00834  -0.02575
   8   36261.1    275.8   0.001549508   0.01407  -0.00538  -0.11462   0.03002
   9   36397.7    274.7   0.011941414   0.10801   0.27105   0.03052   0.18333
  10   39825.3    251.1   0.276625260   2.28670   1.51205  -0.00040  -0.02032
  11   38338.4    260.8   0.006986680   0.05999   0.00475  -0.14712   0.19577
  12   38146.6    262.1   0.004748568   0.04098  -0.18951  -0.01274  -0.07002
  13   41444.4    241.3   0.082870106   0.65827   0.01770  -0.01926   0.81092
  14   41599.1    240.4   0.005885562   0.04658  -0.20990   0.04045  -0.02969
  15   43386.2    230.5   0.917971920   6.96552  -0.04195  -0.78232  -2.52027
  16   44933.1    222.6   0.248945338   1.82395   0.00223   0.80383   1.08527
  17   44624.5    224.1   0.147689654   1.08956  -0.06450   0.35551   0.97929
  18   43543.7    229.7   0.284782369   2.15310  -1.46031  -0.00845   0.14322
  19   43153.9    231.7   0.402517207   3.07072   0.02131  -1.66951   0.53197
  20   43967.0    227.4   0.214853850   1.60876  -1.11053   0.15684   0.59235
  21   48138.1    207.7   0.928570167   6.35040   0.01792   2.44676  -0.60285
  22   44533.4    224.6   0.273037651   2.01842   1.41703  -0.04294  -0.09271
  23   49904.9    200.4   0.042305967   0.27908   0.40278   0.01045   0.34168
  24   46383.8    215.6   0.865856755   6.14547   2.47866   0.03527  -0.02188
  25   49294.6    202.9   0.045741379   0.30548   0.13520  -0.49380   0.20823
  26   46838.0    213.5   0.076581073   0.53827   0.53497   0.07452  -0.49651
  27   47688.3    209.7   0.322846357   2.22874  -1.46776  -0.01316  -0.27251
  28   49585.8    201.7   0.025200207   0.16731   0.38069   0.13142   0.07153
  29   55351.1    180.7   0.000083178   0.00049   0.01567  -0.01537   0.00361
  30   55330.8    180.7   0.000161954   0.00096  -0.00522   0.03019   0.00502

FINAL SINGLE POINT ENERGY     -1662.456592608198

DIPOLE MOMENT
-------------
                                X             Y             Z
Electronic contribution:      0.02223      -0.46833      -1.80893
Nuclear contribution   :     -0.01502       3.81011       1.25834
                        -----------------------------------------
Total Dipole Moment    :      0.00721       3.34178      -0.55059
                        -----------------------------------------
Magnitude (a.u.)       :      3.38685
Magnitude (Debye)      :      8.60868

Rotational constants in cm-1:     0.003437     0.001388     0.001054
Rotational constants in MHz :   103.045994    41.609262    31.611058

                             ****ORCA TERMINATED NORMALLY****
TOTAL RUN TIME: 1 days 11 hours 3 minutes 9 seconds 153 msec
