                         Program Version 5.0.2 -  RELEASE  -
|  1> %maxcore 24000
|  2> %pal
|  3>  nprocs= 8
|  4> end
|  5> ! RI-DSD-BLYP D3BJ def2-TZVP def2/J def2-TZVP/C RIJCOSX CPCM TightSCF
|  6> %TDDFT
|  7>    NROOTS   30
|  8>    dcorr 4
|  9>    doscs true
| 10>    scspar 0.333, 1.2, 0.43, 1.24
| 11>    TDA      FALSE
| 12> END
| 13>
| 14> %CPCM
| 15>    SMD          TRUE
| 16>    SMDsolvent   "N,N-DIMETHYLFORMAMIDE"
| 17> END
| 18>
| 19>
| 20> * xyz 0 1
| 21> C                   3.63553800    0.74494900   -0.46163900
| 22> C                   2.42107900    1.38030500   -0.58758400
| 23> C                   1.21656200    0.67285700   -0.46712700
| 24> C                   1.25819300   -0.70454500   -0.20388600
| 25> C                   2.49840900   -1.31093200   -0.07569600
| 26> C                   3.70901100   -0.62592000   -0.19895200
| 27> C                   0.00281000   -1.54830600   -0.04909500
| 28> C                  -1.25323300   -0.70909400   -0.22215700
| 29> C                  -1.21280700    0.66998300   -0.47644700
| 30> C                  -2.41813500    1.37537900   -0.60084500
| 31> H                  -2.39777200    2.43601700   -0.80861100
| 32> C                  -3.63194100    0.73875100   -0.47511300
| 33> C                  -3.70436300   -0.63530400   -0.22897100
| 34> C                  -2.49289500   -1.32003900   -0.11238600
| 35> H                   2.39954700    2.44418800   -0.77785100
| 36> H                   2.52223200   -2.37832400    0.10828800
| 37> H                  -4.53710000    1.31953600   -0.59838700
| 38> N                   0.00150800    1.33773300   -0.60209900
| 39> C                   0.00058900    2.75552300   -0.80739300
| 40> C                  -0.00882800    3.61388500    0.32010700
| 41> C                   0.00908000    3.25827500   -2.08132000
| 42> C                  -0.01719200    3.13370600    1.64772300
| 43> C                  -0.00955500    5.02295900    0.09320400
| 44> C                   0.00838700    4.64657800   -2.29571300
| 45> H                   0.01626600    2.57293000   -2.91985400
| 46> C                  -0.02609000    4.00555800    2.70413200
| 47> H                  -0.01642800    2.06468700    1.82375200
| 48> C                  -0.01886900    5.88997000    1.20767400
| 49> C                  -0.00079500    5.50832400   -1.23232900
| 50> H                   0.01512900    5.02768800   -3.30864600
| 51> C                  -0.02699800    5.39464000    2.48376800
| 52> H                  -0.03241900    3.62488100    3.71764900
| 53> H                  -0.01937300    6.95893200    1.02981200
| 54> H                  -0.00143300    6.58011600   -1.39142500
| 55> H                  -0.03406200    6.07091200    3.32919500
| 56> H                  -2.51497500   -2.38116600    0.10409700
| 57> H                   4.54022000    1.33378400   -0.54317400
| 58> C                   0.01021200   -2.66879700   -1.09901000
| 59> H                   0.01780600   -2.26135600   -2.11032800
| 60> H                   0.88754400   -3.30522900   -0.98473500
| 61> H                  -0.87016200   -3.30331800   -0.99734800
| 62> C                  -0.00416100   -2.17723100    1.35264600
| 63> H                   0.87715000   -2.80060400    1.50420300
| 64> H                  -0.01225200   -1.40924200    2.12720000
| 65> H                  -0.88163900   -2.80837100    1.49316700
| 66> C                   4.99550500   -1.31286300   -0.05513800
| 67> C                   5.11248700   -2.49254400    0.69374800
| 68> C                   6.15581300   -0.81066600   -0.66148200
| 69> C                   6.31979700   -3.14205800    0.83103800
| 70> H                   4.24431000   -2.89767900    1.19677800
| 71> C                   7.37016100   -1.44844200   -0.53239000
| 72> H                   6.10071100    0.08668400   -1.26353700
| 73> C                   7.46566300   -2.62582300    0.21681000
| 74> H                   6.38899400   -4.04685100    1.42001400
| 75> H                   8.25113800   -1.04775200   -1.01580000
| 76> C                  -4.98997200   -1.32600300   -0.09568900
| 77> C                  -5.11269100   -2.69713500   -0.36294500
| 78> C                  -6.14345800   -0.63662100    0.30504700
| 79> C                  -6.31915000   -3.35064100   -0.23732900
| 80> H                  -4.24975800   -3.25868900   -0.69612300
| 81> C                  -7.35689500   -1.27610500    0.43384200
| 82> H                  -6.08338900    0.41756100    0.54160200
| 83> C                  -7.45833400   -2.64478700    0.16363300
| 84> H                  -6.39291600   -4.40752600   -0.45633500
| 85> H                  -8.23267900   -0.72655200    0.75231700
| 86> C                  -8.70201000   -3.30886700    0.29507900
| 87> C                   8.71001100   -3.28800600    0.35229600
| 88> N                   9.72793300   -3.82989700    0.46287000
| 89> N                  -9.71948300   -3.85222800    0.40257600
| 90> *
| 91>
| 92>
| 93>                          ****END OF INPUT****

CARTESIAN COORDINATES (ANGSTROEM)
---------------------------------
  C      3.635538    0.744949   -0.461639
  C      2.421079    1.380305   -0.587584
  C      1.216562    0.672857   -0.467127
  C      1.258193   -0.704545   -0.203886
  C      2.498409   -1.310932   -0.075696
  C      3.709011   -0.625920   -0.198952
  C      0.002810   -1.548306   -0.049095
  C     -1.253233   -0.709094   -0.222157
  C     -1.212807    0.669983   -0.476447
  C     -2.418135    1.375379   -0.600845
  H     -2.397772    2.436017   -0.808611
  C     -3.631941    0.738751   -0.475113
  C     -3.704363   -0.635304   -0.228971
  C     -2.492895   -1.320039   -0.112386
  H      2.399547    2.444188   -0.777851
  H      2.522232   -2.378324    0.108288
  H     -4.537100    1.319536   -0.598387
  N      0.001508    1.337733   -0.602099
  C      0.000589    2.755523   -0.807393
  C     -0.008828    3.613885    0.320107
  C      0.009080    3.258275   -2.081320
  C     -0.017192    3.133706    1.647723
  C     -0.009555    5.022959    0.093204
  C      0.008387    4.646578   -2.295713
  H      0.016266    2.572930   -2.919854
  C     -0.026090    4.005558    2.704132
  H     -0.016428    2.064687    1.823752
  C     -0.018869    5.889970    1.207674
  C     -0.000795    5.508324   -1.232329
  H      0.015129    5.027688   -3.308646
  C     -0.026998    5.394640    2.483768
  H     -0.032419    3.624881    3.717649
  H     -0.019373    6.958932    1.029812
  H     -0.001433    6.580116   -1.391425
  H     -0.034062    6.070912    3.329195
  H     -2.514975   -2.381166    0.104097
  H      4.540220    1.333784   -0.543174
  C      0.010212   -2.668797   -1.099010
  H      0.017806   -2.261356   -2.110328
  H      0.887544   -3.305229   -0.984735
  H     -0.870162   -3.303318   -0.997348
  C     -0.004161   -2.177231    1.352646
  H      0.877150   -2.800604    1.504203
  H     -0.012252   -1.409242    2.127200
  H     -0.881639   -2.808371    1.493167
  C      4.995505   -1.312863   -0.055138
  C      5.112487   -2.492544    0.693748
  C      6.155813   -0.810666   -0.661482
  C      6.319797   -3.142058    0.831038
  H      4.244310   -2.897679    1.196778
  C      7.370161   -1.448442   -0.532390
  H      6.100711    0.086684   -1.263537
  C      7.465663   -2.625823    0.216810
  H      6.388994   -4.046851    1.420014
  H      8.251138   -1.047752   -1.015800
  C     -4.989972   -1.326003   -0.095689
  C     -5.112691   -2.697135   -0.362945
  C     -6.143458   -0.636621    0.305047
  C     -6.319150   -3.350641   -0.237329
  H     -4.249758   -3.258689   -0.696123
  C     -7.356895   -1.276105    0.433842
  H     -6.083389    0.417561    0.541602
  C     -7.458334   -2.644787    0.163633
  H     -6.392916   -4.407526   -0.456335
  H     -8.232679   -0.726552    0.752317
  C     -8.702010   -3.308867    0.295079
  C      8.710011   -3.288006    0.352296
  N      9.727933   -3.829897    0.462870
  N     -9.719483   -3.852228    0.402576

 Total Charge           Charge          ....    0
 Multiplicity           Mult            ....    1
 Number of Electrons    NEL             ....  282
 Basis Dimension        Dim             .... 1464

ORBITAL ENERGIES
----------------

  NO   OCC          E(Eh)            E(eV)
   0   2.0000     -15.122641      -411.5080
   1   2.0000     -15.097728      -410.8301
   2   2.0000     -15.097584      -410.8261
   3   2.0000     -10.883367      -296.1515
   4   2.0000     -10.883271      -296.1489
   5   2.0000     -10.881031      -296.0879
   6   2.0000     -10.880958      -296.0859
   7   2.0000     -10.870944      -295.8134
   8   2.0000     -10.867638      -295.7235
   9   2.0000     -10.867436      -295.7180
  10   2.0000     -10.857297      -295.4421
  11   2.0000     -10.857018      -295.4345
  12   2.0000     -10.849206      -295.2219
  13   2.0000     -10.849145      -295.2202
  14   2.0000     -10.848971      -295.2155
  15   2.0000     -10.848905      -295.2137
  16   2.0000     -10.845766      -295.1283
  17   2.0000     -10.843007      -295.0532
  18   2.0000     -10.841903      -295.0232
  19   2.0000     -10.834630      -294.8253
  20   2.0000     -10.834566      -294.8235
  21   2.0000     -10.834402      -294.8191
  22   2.0000     -10.834277      -294.8157
  23   2.0000     -10.833931      -294.8063
  24   2.0000     -10.833778      -294.8021
  25   2.0000     -10.833160      -294.7853
  26   2.0000     -10.833117      -294.7841
  27   2.0000     -10.832919      -294.7787
  28   2.0000     -10.832528      -294.7681
  29   2.0000     -10.830609      -294.7159
  30   2.0000     -10.830490      -294.7126
  31   2.0000     -10.830296      -294.7073
  32   2.0000     -10.829850      -294.6952
  33   2.0000     -10.829677      -294.6905
  34   2.0000     -10.829343      -294.6814
  35   2.0000     -10.828717      -294.6644
  36   2.0000     -10.828644      -294.6624
  37   2.0000     -10.828315      -294.6534
  38   2.0000     -10.823199      -294.5142
  39   2.0000     -10.823121      -294.5121
  40   2.0000     -10.803320      -293.9733
  41   2.0000     -10.803230      -293.9708
  42   2.0000      -1.183523       -32.2053
  43   2.0000      -1.114416       -30.3248
  44   2.0000      -1.114276       -30.3210
  45   2.0000      -1.074069       -29.2269
  46   2.0000      -1.070751       -29.1366
  47   2.0000      -1.066765       -29.0282
  48   2.0000      -1.046827       -28.4856
  49   2.0000      -1.044709       -28.4280
  50   2.0000      -1.007734       -27.4218
  51   2.0000      -1.001148       -27.2426
  52   2.0000      -0.975421       -26.5426
  53   2.0000      -0.959572       -26.1113
  54   2.0000      -0.947339       -25.7784
  55   2.0000      -0.933532       -25.4027
  56   2.0000      -0.932167       -25.3655
  57   2.0000      -0.921538       -25.0763
  58   2.0000      -0.915012       -24.8987
  59   2.0000      -0.911295       -24.7976
  60   2.0000      -0.897931       -24.4339
  61   2.0000      -0.894295       -24.3350
  62   2.0000      -0.867187       -23.5973
  63   2.0000      -0.836873       -22.7725
  64   2.0000      -0.813904       -22.1475
  65   2.0000      -0.806101       -21.9351
  66   2.0000      -0.781868       -21.2757
  67   2.0000      -0.772906       -21.0318
  68   2.0000      -0.771070       -20.9819
  69   2.0000      -0.761996       -20.7350
  70   2.0000      -0.754762       -20.5381
  71   2.0000      -0.747462       -20.3395
  72   2.0000      -0.744884       -20.2693
  73   2.0000      -0.727614       -19.7994
  74   2.0000      -0.704778       -19.1780
  75   2.0000      -0.683336       -18.5945
  76   2.0000      -0.682677       -18.5766
  77   2.0000      -0.676290       -18.4028
  78   2.0000      -0.666281       -18.1304
  79   2.0000      -0.652452       -17.7541
  80   2.0000      -0.640088       -17.4177
  81   2.0000      -0.620418       -16.8824
  82   2.0000      -0.619400       -16.8547
  83   2.0000      -0.610708       -16.6182
  84   2.0000      -0.605156       -16.4671
  85   2.0000      -0.594658       -16.1815
  86   2.0000      -0.581118       -15.8130
  87   2.0000      -0.568097       -15.4587
  88   2.0000      -0.565469       -15.3872
  89   2.0000      -0.564859       -15.3706
  90   2.0000      -0.558765       -15.2048
  91   2.0000      -0.556218       -15.1355
  92   2.0000      -0.548415       -14.9231
  93   2.0000      -0.542156       -14.7528
  94   2.0000      -0.539122       -14.6703
  95   2.0000      -0.537497       -14.6260
  96   2.0000      -0.535222       -14.5641
  97   2.0000      -0.532921       -14.5015
  98   2.0000      -0.528768       -14.3885
  99   2.0000      -0.525753       -14.3065
 100   2.0000      -0.522360       -14.2141
 101   2.0000      -0.516902       -14.0656
 102   2.0000      -0.513311       -13.9679
 103   2.0000      -0.505900       -13.7662
 104   2.0000      -0.501959       -13.6590
 105   2.0000      -0.500618       -13.6225
 106   2.0000      -0.498464       -13.5639
 107   2.0000      -0.491460       -13.3733
 108   2.0000      -0.490119       -13.3368
 109   2.0000      -0.488210       -13.2849
 110   2.0000      -0.485506       -13.2113
 111   2.0000      -0.483363       -13.1530
 112   2.0000      -0.474566       -12.9136
 113   2.0000      -0.468650       -12.7526
 114   2.0000      -0.462861       -12.5951
 115   2.0000      -0.460628       -12.5343
 116   2.0000      -0.460192       -12.5225
 117   2.0000      -0.451898       -12.2968
 118   2.0000      -0.450951       -12.2710
 119   2.0000      -0.440911       -11.9978
 120   2.0000      -0.438149       -11.9226
 121   2.0000      -0.434910       -11.8345
 122   2.0000      -0.431306       -11.7364
 123   2.0000      -0.428454       -11.6588
 124   2.0000      -0.424540       -11.5523
 125   2.0000      -0.424005       -11.5378
 126   2.0000      -0.415505       -11.3065
 127   2.0000      -0.409117       -11.1326
 128   2.0000      -0.407084       -11.0773
 129   2.0000      -0.399832       -10.8800
 130   2.0000      -0.358037        -9.7427
 131   2.0000      -0.350972        -9.5504
 132   2.0000      -0.326272        -8.8783
 133   2.0000      -0.326013        -8.8713
 134   2.0000      -0.324347        -8.8259
 135   2.0000      -0.312929        -8.5152
 136   2.0000      -0.304885        -8.2964
 137   2.0000      -0.301584        -8.2065
 138   2.0000      -0.281955        -7.6724
 139   2.0000      -0.270519        -7.3612
 140   2.0000      -0.233627        -6.3573
 141   0.0000       0.003194         0.0869
 142   0.0000       0.014511         0.3949
 143   0.0000       0.021979         0.5981
 144   0.0000       0.047705         1.2981
 145   0.0000       0.050606         1.3771

MULLIKEN ATOMIC CHARGES
-----------------------
   0 C :   -0.233127
   1 C :   -0.298429
   2 C :    0.234316
   3 C :   -0.132484
   4 C :   -0.300106
   5 C :    0.151725
   6 C :    0.279751
   7 C :   -0.142741
   8 C :    0.236614
   9 C :   -0.297070
  10 H :    0.168486
  11 C :   -0.234191
  12 C :    0.144124
  13 C :   -0.292718
  14 H :    0.168911
  15 H :    0.175893
  16 H :    0.161532
  17 N :    0.073087
  18 C :    0.207740
  19 C :    0.040214
  20 C :   -0.184877
  21 C :   -0.343604
  22 C :    0.078834
  23 C :   -0.127741
  24 H :    0.161823
  25 C :   -0.107684
  26 H :    0.176015
  27 C :   -0.197949
  28 C :   -0.259201
  29 H :    0.162791
  30 C :   -0.170809
  31 H :    0.163482
  32 H :    0.163298
  33 H :    0.162570
  34 H :    0.162560
  35 H :    0.175071
  36 H :    0.160482
  37 C :   -0.419310
  38 H :    0.128414
  39 H :    0.131329
  40 H :    0.132657
  41 C :   -0.419075
  42 H :    0.133306
  43 H :    0.129166
  44 H :    0.131650
  45 C :    0.116175
  46 C :   -0.219106
  47 C :   -0.210970
  48 C :   -0.232210
  49 H :    0.172695
  50 C :   -0.230976
  51 H :    0.168291
  52 C :    0.320700
  53 H :    0.176178
  54 H :    0.176182
  55 C :    0.127007
  56 C :   -0.226137
  57 C :   -0.210102
  58 C :   -0.231908
  59 H :    0.174019
  60 C :   -0.232163
  61 H :    0.166761
  62 C :    0.319456
  63 H :    0.176423
  64 H :    0.176928
  65 C :   -0.132928
  66 C :   -0.131400
  67 N :   -0.224705
  68 N :   -0.222936
Sum of atomic charges:    0.0000000

LOEWDIN ATOMIC CHARGES
----------------------
   0 C :   -0.097743
   1 C :   -0.120413
   2 C :   -0.115776
   3 C :   -0.064907
   4 C :   -0.051547
   5 C :   -0.126659
   6 C :   -0.230437
   7 C :   -0.064864
   8 C :   -0.115775
   9 C :   -0.120287
  10 H :    0.162211
  11 C :   -0.097993
  12 C :   -0.126930
  13 C :   -0.051553
  14 H :    0.162162
  15 H :    0.162620
  16 H :    0.157874
  17 N :    0.284416
  18 C :   -0.133339
  19 C :   -0.069913
  20 C :   -0.091589
  21 C :   -0.098822
  22 C :   -0.097139
  23 C :   -0.138582
  24 H :    0.160540
  25 C :   -0.138169
  26 H :    0.159658
  27 C :   -0.101024
  28 C :   -0.094821
  29 H :    0.153490
  30 C :   -0.142413
  31 H :    0.152378
  32 H :    0.156386
  33 H :    0.157350
  34 H :    0.151850
  35 H :    0.162580
  36 H :    0.157917
  37 C :   -0.227914
  38 H :    0.122656
  39 H :    0.122767
  40 H :    0.122978
  41 C :   -0.227873
  42 H :    0.122947
  43 H :    0.122836
  44 H :    0.122708
  45 C :   -0.079379
  46 C :   -0.092229
  47 C :   -0.092019
  48 C :   -0.068114
  49 H :    0.160121
  50 C :   -0.068053
  51 H :    0.160159
  52 C :   -0.161305
  53 H :    0.164082
  54 H :    0.164110
  55 C :   -0.079507
  56 C :   -0.092304
  57 C :   -0.092103
  58 C :   -0.068094
  59 H :    0.160249
  60 C :   -0.068248
  61 H :    0.160040
  62 C :   -0.161500
  63 H :    0.164130
  64 H :    0.164179
  65 C :   -0.123603
  66 C :   -0.123374
  67 N :   -0.029701
  68 N :   -0.029379

  Mayer bond orders larger than 0.100000
B(  0-C ,  1-C ) :   1.4698 B(  0-C ,  5-C ) :   1.3311 B(  0-C , 36-H ) :   0.9746
B(  1-C ,  2-C ) :   1.3414 B(  1-C , 14-H ) :   0.9870 B(  2-C ,  3-C ) :   1.2535
B(  2-C , 17-N ) :   1.1181 B(  3-C ,  4-C ) :   1.3906 B(  3-C ,  6-C ) :   0.9842
B(  4-C ,  5-C ) :   1.4032 B(  4-C , 15-H ) :   0.9499 B(  5-C , 45-C ) :   0.9275
B(  6-C ,  7-C ) :   0.9824 B(  6-C , 37-C ) :   0.8809 B(  6-C , 41-C ) :   0.8744
B(  7-C ,  8-C ) :   1.2527 B(  7-C , 13-C ) :   1.3877 B(  8-C ,  9-C ) :   1.3398
B(  8-C , 17-N ) :   1.1191 B(  9-C , 10-H ) :   0.9877 B(  9-C , 11-C ) :   1.4712
B( 11-C , 12-C ) :   1.3314 B( 11-C , 16-H ) :   0.9727 B( 12-C , 13-C ) :   1.4030
B( 12-C , 55-C ) :   0.9310 B( 13-C , 35-H ) :   0.9506 B( 17-N , 18-C ) :   0.6999
B( 18-C , 19-C ) :   1.1589 B( 18-C , 20-C ) :   1.6513 B( 18-C , 21-C ) :  -0.1108
B( 18-C , 22-C ) :  -0.1223 B( 19-C , 21-C ) :   1.2689 B( 19-C , 22-C ) :   1.2956
B( 20-C , 23-C ) :   1.2386 B( 20-C , 24-H ) :   0.9868 B( 21-C , 25-C ) :   1.5676
B( 21-C , 26-H ) :   0.9706 B( 22-C , 27-C ) :   1.2617 B( 22-C , 28-C ) :   1.2321
B( 23-C , 28-C ) :   1.5099 B( 23-C , 29-H ) :   0.9919 B( 25-C , 30-C ) :   1.2342
B( 25-C , 31-H ) :   0.9850 B( 27-C , 30-C ) :   1.5385 B( 27-C , 32-H ) :   0.9838
B( 28-C , 33-H ) :   0.9915 B( 30-C , 34-H ) :   0.9851 B( 37-C , 38-H ) :   0.9868
B( 37-C , 39-H ) :   0.9783 B( 37-C , 40-H ) :   0.9790 B( 41-C , 42-H ) :   0.9782
B( 41-C , 43-H ) :   0.9866 B( 41-C , 44-H ) :   0.9775 B( 45-C , 46-C ) :   1.3615
B( 45-C , 47-C ) :   1.3617 B( 46-C , 48-C ) :   1.4850 B( 46-C , 49-H ) :   0.9672
B( 47-C , 50-C ) :   1.4822 B( 47-C , 51-H ) :   0.9729 B( 48-C , 52-C ) :   1.3171
B( 48-C , 53-H ) :   0.9828 B( 50-C , 52-C ) :   1.3149 B( 50-C , 54-H ) :   0.9833
B( 52-C , 66-C ) :   0.9389 B( 55-C , 56-C ) :   1.3591 B( 55-C , 57-C ) :   1.3576
B( 56-C , 58-C ) :   1.4871 B( 56-C , 59-H ) :   0.9670 B( 57-C , 60-C ) :   1.4841
B( 57-C , 61-H ) :   0.9731 B( 58-C , 62-C ) :   1.3177 B( 58-C , 63-H ) :   0.9821
B( 60-C , 62-C ) :   1.3140 B( 60-C , 64-H ) :   0.9823 B( 62-C , 65-C ) :   0.9409
B( 65-C , 68-N ) :   3.0293 B( 66-C , 67-N ) :   3.0303

MP2 TOTAL ENERGY:    -1665.087005610 Eh

-----------------------------------------------------------------------------
         ABSORPTION SPECTRUM VIA TRANSITION ELECTRIC DIPOLE MOMENTS
-----------------------------------------------------------------------------
State   Energy    Wavelength  fosc         T2        TX        TY        TZ
        (cm-1)      (nm)                 (au**2)    (au)      (au)      (au)
-----------------------------------------------------------------------------
   1   19660.6    508.6   1.083874599  18.14921   4.26013   0.01576   0.01551
   2   25207.7    396.7   0.400763312   5.23395  -0.01802   2.27328  -0.25660
   3   25867.7    386.6   0.034713592   0.44179  -0.08271   0.65606  -0.06734
   4   24672.7    405.3   0.026345223   0.35153  -0.09498  -0.58295   0.05172
   5   22855.0    437.5   0.073103485   1.05301  -0.00356  -1.01895   0.12143
   6   24362.1    410.5   0.001268874   0.01715  -0.10111   0.07248   0.04086
   7   22758.6    439.4   0.044598070   0.64513   0.80258   0.01024   0.02989
   8   26408.9    378.7   0.000669859   0.00835  -0.00243  -0.08704   0.02771
   9   26633.5    375.5   0.009711325   0.12004  -0.29882  -0.02993  -0.17277
  10   33864.2    295.3   0.210661147   2.04795  -1.43090   0.00089   0.02206
  11   25798.4    387.6   0.004057784   0.05178  -0.00515   0.10145  -0.20363
  12   24419.6    409.5   0.003449646   0.04651  -0.19957  -0.01570  -0.08020
  13   31327.4    319.2   0.035731466   0.37549   0.01873  -0.02200   0.61209
  14   31282.1    319.7   0.003020698   0.03179   0.16706  -0.03372   0.05237
  15   36157.3    276.6   0.845873449   7.70168  -0.03641  -0.80058  -2.65696
  16   40658.3    246.0   0.132007752   1.06887   0.00735   0.71301   0.74862
  17   33536.9    298.2   0.148391775   1.45668  -0.10270   0.60305   1.04042
  18   33829.5    295.6   0.244323600   2.37764   1.53936   0.03337  -0.08311
  19   31707.0    315.4   0.296867484   3.08236  -0.00639  -1.64812   0.60501
  20   33492.5    298.6   0.179878006   1.76810   1.16715  -0.21090  -0.60115
  21   42571.0    234.9   0.832256349   6.43604   0.02111   2.46132  -0.61442
  22   45654.6    219.0   0.021479732   0.15489   0.03518  -0.07952  -0.38383
  23   31653.3    315.9   0.230355411   2.39583   1.54750  -0.03094  -0.00998
  24   35304.5    283.2   0.643938569   6.00467  -2.45020  -0.03374   0.00815
  25   41031.4    243.7   0.021511675   0.17260  -0.19407  -0.21080  -0.30083
  26   42521.3    235.2   0.048310344   0.37403  -0.15432   0.49424  -0.32548
  27   38005.9    263.1   0.282790000   2.44956  -1.56233  -0.04592  -0.08109
  28   32294.7    309.6   0.019359596   0.19735   0.07088   0.11072  -0.42435
  29   55334.7    180.7   0.000023313   0.00014   0.00091  -0.01127  -0.00331
  30   55325.0    180.8   0.000287807   0.00171   0.03750  -0.01750  -0.00035

Dispersion correction           -0.072123522
FINAL SINGLE POINT ENERGY     -1661.789624226698

DIPOLE MOMENT
-------------
                                X             Y             Z
Electronic contribution:      0.02245      -0.45861      -1.81750
Nuclear contribution   :     -0.01502       3.81011       1.25834
                        -----------------------------------------
Total Dipole Moment    :      0.00743       3.35150      -0.55916
                        -----------------------------------------
Magnitude (a.u.)       :      3.39784
Magnitude (Debye)      :      8.63661

Rotational constants in cm-1:     0.003437     0.001388     0.001054
Rotational constants in MHz :   103.045994    41.609262    31.611058

                             ****ORCA TERMINATED NORMALLY****
TOTAL RUN TIME: 0 days 7 hours 19 minutes 48 seconds 681 msec
