                         Program Version 5.0.2 -  RELEASE  -
|  1> %maxcore 20000
|  2> %pal
|  3>  nprocs= 4
|  4> end
|  5> ! RI-B2GP-PLYP   def2-TZVP def2/J def2-TZVP/C RIJCOSX CPCM TightSCF
|  6> %TDDFT
|  7>    NROOTS   30
|  8>    dcorr 4
|  9>    TDA      FALSE
| 10> END
| 11>
| 12> %CPCM
| 13>    SMD          TRUE
| 14>    SMDsolvent   "N,N-DIMETHYLFORMAMIDE"
| 15> END
| 16>
| 17>
| 18> * xyz 0 1
| 19> C                   3.63553800    0.74494900   -0.46163900
| 20> C                   2.42107900    1.38030500   -0.58758400
| 21> C                   1.21656200    0.67285700   -0.46712700
| 22> C                   1.25819300   -0.70454500   -0.20388600
| 23> C                   2.49840900   -1.31093200   -0.07569600
| 24> C                   3.70901100   -0.62592000   -0.19895200
| 25> C                   0.00281000   -1.54830600   -0.04909500
| 26> C                  -1.25323300   -0.70909400   -0.22215700
| 27> C                  -1.21280700    0.66998300   -0.47644700
| 28> C                  -2.41813500    1.37537900   -0.60084500
| 29> H                  -2.39777200    2.43601700   -0.80861100
| 30> C                  -3.63194100    0.73875100   -0.47511300
| 31> C                  -3.70436300   -0.63530400   -0.22897100
| 32> C                  -2.49289500   -1.32003900   -0.11238600
| 33> H                   2.39954700    2.44418800   -0.77785100
| 34> H                   2.52223200   -2.37832400    0.10828800
| 35> H                  -4.53710000    1.31953600   -0.59838700
| 36> N                   0.00150800    1.33773300   -0.60209900
| 37> C                   0.00058900    2.75552300   -0.80739300
| 38> C                  -0.00882800    3.61388500    0.32010700
| 39> C                   0.00908000    3.25827500   -2.08132000
| 40> C                  -0.01719200    3.13370600    1.64772300
| 41> C                  -0.00955500    5.02295900    0.09320400
| 42> C                   0.00838700    4.64657800   -2.29571300
| 43> H                   0.01626600    2.57293000   -2.91985400
| 44> C                  -0.02609000    4.00555800    2.70413200
| 45> H                  -0.01642800    2.06468700    1.82375200
| 46> C                  -0.01886900    5.88997000    1.20767400
| 47> C                  -0.00079500    5.50832400   -1.23232900
| 48> H                   0.01512900    5.02768800   -3.30864600
| 49> C                  -0.02699800    5.39464000    2.48376800
| 50> H                  -0.03241900    3.62488100    3.71764900
| 51> H                  -0.01937300    6.95893200    1.02981200
| 52> H                  -0.00143300    6.58011600   -1.39142500
| 53> H                  -0.03406200    6.07091200    3.32919500
| 54> H                  -2.51497500   -2.38116600    0.10409700
| 55> H                   4.54022000    1.33378400   -0.54317400
| 56> C                   0.01021200   -2.66879700   -1.09901000
| 57> H                   0.01780600   -2.26135600   -2.11032800
| 58> H                   0.88754400   -3.30522900   -0.98473500
| 59> H                  -0.87016200   -3.30331800   -0.99734800
| 60> C                  -0.00416100   -2.17723100    1.35264600
| 61> H                   0.87715000   -2.80060400    1.50420300
| 62> H                  -0.01225200   -1.40924200    2.12720000
| 63> H                  -0.88163900   -2.80837100    1.49316700
| 64> C                   4.99550500   -1.31286300   -0.05513800
| 65> C                   5.11248700   -2.49254400    0.69374800
| 66> C                   6.15581300   -0.81066600   -0.66148200
| 67> C                   6.31979700   -3.14205800    0.83103800
| 68> H                   4.24431000   -2.89767900    1.19677800
| 69> C                   7.37016100   -1.44844200   -0.53239000
| 70> H                   6.10071100    0.08668400   -1.26353700
| 71> C                   7.46566300   -2.62582300    0.21681000
| 72> H                   6.38899400   -4.04685100    1.42001400
| 73> H                   8.25113800   -1.04775200   -1.01580000
| 74> C                  -4.98997200   -1.32600300   -0.09568900
| 75> C                  -5.11269100   -2.69713500   -0.36294500
| 76> C                  -6.14345800   -0.63662100    0.30504700
| 77> C                  -6.31915000   -3.35064100   -0.23732900
| 78> H                  -4.24975800   -3.25868900   -0.69612300
| 79> C                  -7.35689500   -1.27610500    0.43384200
| 80> H                  -6.08338900    0.41756100    0.54160200
| 81> C                  -7.45833400   -2.64478700    0.16363300
| 82> H                  -6.39291600   -4.40752600   -0.45633500
| 83> H                  -8.23267900   -0.72655200    0.75231700
| 84> C                  -8.70201000   -3.30886700    0.29507900
| 85> C                   8.71001100   -3.28800600    0.35229600
| 86> N                   9.72793300   -3.82989700    0.46287000
| 87> N                  -9.71948300   -3.85222800    0.40257600
| 88> *
| 89>
| 90>
| 91>                          ****END OF INPUT****

CARTESIAN COORDINATES (ANGSTROEM)
---------------------------------
  C      3.635538    0.744949   -0.461639
  C      2.421079    1.380305   -0.587584
  C      1.216562    0.672857   -0.467127
  C      1.258193   -0.704545   -0.203886
  C      2.498409   -1.310932   -0.075696
  C      3.709011   -0.625920   -0.198952
  C      0.002810   -1.548306   -0.049095
  C     -1.253233   -0.709094   -0.222157
  C     -1.212807    0.669983   -0.476447
  C     -2.418135    1.375379   -0.600845
  H     -2.397772    2.436017   -0.808611
  C     -3.631941    0.738751   -0.475113
  C     -3.704363   -0.635304   -0.228971
  C     -2.492895   -1.320039   -0.112386
  H      2.399547    2.444188   -0.777851
  H      2.522232   -2.378324    0.108288
  H     -4.537100    1.319536   -0.598387
  N      0.001508    1.337733   -0.602099
  C      0.000589    2.755523   -0.807393
  C     -0.008828    3.613885    0.320107
  C      0.009080    3.258275   -2.081320
  C     -0.017192    3.133706    1.647723
  C     -0.009555    5.022959    0.093204
  C      0.008387    4.646578   -2.295713
  H      0.016266    2.572930   -2.919854
  C     -0.026090    4.005558    2.704132
  H     -0.016428    2.064687    1.823752
  C     -0.018869    5.889970    1.207674
  C     -0.000795    5.508324   -1.232329
  H      0.015129    5.027688   -3.308646
  C     -0.026998    5.394640    2.483768
  H     -0.032419    3.624881    3.717649
  H     -0.019373    6.958932    1.029812
  H     -0.001433    6.580116   -1.391425
  H     -0.034062    6.070912    3.329195
  H     -2.514975   -2.381166    0.104097
  H      4.540220    1.333784   -0.543174
  C      0.010212   -2.668797   -1.099010
  H      0.017806   -2.261356   -2.110328
  H      0.887544   -3.305229   -0.984735
  H     -0.870162   -3.303318   -0.997348
  C     -0.004161   -2.177231    1.352646
  H      0.877150   -2.800604    1.504203
  H     -0.012252   -1.409242    2.127200
  H     -0.881639   -2.808371    1.493167
  C      4.995505   -1.312863   -0.055138
  C      5.112487   -2.492544    0.693748
  C      6.155813   -0.810666   -0.661482
  C      6.319797   -3.142058    0.831038
  H      4.244310   -2.897679    1.196778
  C      7.370161   -1.448442   -0.532390
  H      6.100711    0.086684   -1.263537
  C      7.465663   -2.625823    0.216810
  H      6.388994   -4.046851    1.420014
  H      8.251138   -1.047752   -1.015800
  C     -4.989972   -1.326003   -0.095689
  C     -5.112691   -2.697135   -0.362945
  C     -6.143458   -0.636621    0.305047
  C     -6.319150   -3.350641   -0.237329
  H     -4.249758   -3.258689   -0.696123
  C     -7.356895   -1.276105    0.433842
  H     -6.083389    0.417561    0.541602
  C     -7.458334   -2.644787    0.163633
  H     -6.392916   -4.407526   -0.456335
  H     -8.232679   -0.726552    0.752317
  C     -8.702010   -3.308867    0.295079
  C      8.710011   -3.288006    0.352296
  N      9.727933   -3.829897    0.462870
  N     -9.719483   -3.852228    0.402576

 Total Charge           Charge          ....    0
 Multiplicity           Mult            ....    1
 Number of Electrons    NEL             ....  282
 Basis Dimension        Dim             .... 1464

ORBITAL ENERGIES
----------------

  NO   OCC          E(Eh)            E(eV)
   0   2.0000     -15.062970      -409.8843
   1   2.0000     -15.037029      -409.1784
   2   2.0000     -15.036885      -409.1745
   3   2.0000     -10.832048      -294.7550
   4   2.0000     -10.831953      -294.7524
   5   2.0000     -10.829844      -294.6950
   6   2.0000     -10.829772      -294.6931
   7   2.0000     -10.820094      -294.4297
   8   2.0000     -10.816835      -294.3410
   9   2.0000     -10.816635      -294.3356
  10   2.0000     -10.806156      -294.0504
  11   2.0000     -10.805879      -294.0429
  12   2.0000     -10.798020      -293.8291
  13   2.0000     -10.797960      -293.8274
  14   2.0000     -10.797788      -293.8227
  15   2.0000     -10.797721      -293.8209
  16   2.0000     -10.795127      -293.7503
  17   2.0000     -10.792211      -293.6710
  18   2.0000     -10.791105      -293.6409
  19   2.0000     -10.783822      -293.4427
  20   2.0000     -10.783759      -293.4410
  21   2.0000     -10.783597      -293.4366
  22   2.0000     -10.783472      -293.4332
  23   2.0000     -10.783196      -293.4257
  24   2.0000     -10.783043      -293.4215
  25   2.0000     -10.782526      -293.4074
  26   2.0000     -10.782483      -293.4063
  27   2.0000     -10.782065      -293.3949
  28   2.0000     -10.781613      -293.3826
  29   2.0000     -10.779741      -293.3317
  30   2.0000     -10.779550      -293.3265
  31   2.0000     -10.779362      -293.3214
  32   2.0000     -10.778793      -293.3059
  33   2.0000     -10.778622      -293.3012
  34   2.0000     -10.778445      -293.2964
  35   2.0000     -10.777693      -293.2759
  36   2.0000     -10.777621      -293.2740
  37   2.0000     -10.777413      -293.2683
  38   2.0000     -10.772464      -293.1337
  39   2.0000     -10.772386      -293.1315
  40   2.0000     -10.752520      -292.5909
  41   2.0000     -10.752431      -292.5885
  42   2.0000      -1.169181       -31.8150
  43   2.0000      -1.100276       -29.9400
  44   2.0000      -1.100137       -29.9363
  45   2.0000      -1.060472       -28.8569
  46   2.0000      -1.057165       -28.7669
  47   2.0000      -1.053254       -28.6605
  48   2.0000      -1.033542       -28.1241
  49   2.0000      -1.031481       -28.0680
  50   2.0000      -0.994875       -27.0719
  51   2.0000      -0.988378       -26.8951
  52   2.0000      -0.963007       -26.2047
  53   2.0000      -0.947297       -25.7773
  54   2.0000      -0.935185       -25.4477
  55   2.0000      -0.921437       -25.0736
  56   2.0000      -0.920083       -25.0367
  57   2.0000      -0.909616       -24.7519
  58   2.0000      -0.903132       -24.5755
  59   2.0000      -0.899577       -24.4787
  60   2.0000      -0.886355       -24.1190
  61   2.0000      -0.882610       -24.0170
  62   2.0000      -0.855982       -23.2925
  63   2.0000      -0.825938       -22.4749
  64   2.0000      -0.803788       -21.8722
  65   2.0000      -0.796023       -21.6609
  66   2.0000      -0.771909       -21.0047
  67   2.0000      -0.763046       -20.7635
  68   2.0000      -0.761328       -20.7168
  69   2.0000      -0.752255       -20.4699
  70   2.0000      -0.745162       -20.2769
  71   2.0000      -0.738024       -20.0827
  72   2.0000      -0.735530       -20.0148
  73   2.0000      -0.718257       -19.5448
  74   2.0000      -0.695853       -18.9351
  75   2.0000      -0.675071       -18.3696
  76   2.0000      -0.674341       -18.3498
  77   2.0000      -0.667608       -18.1665
  78   2.0000      -0.658425       -17.9167
  79   2.0000      -0.644639       -17.5415
  80   2.0000      -0.631905       -17.1950
  81   2.0000      -0.612535       -16.6679
  82   2.0000      -0.611660       -16.6441
  83   2.0000      -0.602997       -16.4084
  84   2.0000      -0.597683       -16.2638
  85   2.0000      -0.587317       -15.9817
  86   2.0000      -0.573810       -15.6142
  87   2.0000      -0.560968       -15.2647
  88   2.0000      -0.558231       -15.1902
  89   2.0000      -0.557736       -15.1768
  90   2.0000      -0.551703       -15.0126
  91   2.0000      -0.549068       -14.9409
  92   2.0000      -0.541331       -14.7304
  93   2.0000      -0.535183       -14.5631
  94   2.0000      -0.532334       -14.4856
  95   2.0000      -0.530562       -14.4373
  96   2.0000      -0.528359       -14.3774
  97   2.0000      -0.526029       -14.3140
  98   2.0000      -0.521982       -14.2038
  99   2.0000      -0.519119       -14.1259
 100   2.0000      -0.515549       -14.0288
 101   2.0000      -0.509851       -13.8738
 102   2.0000      -0.505858       -13.7651
 103   2.0000      -0.499219       -13.5844
 104   2.0000      -0.496161       -13.5012
 105   2.0000      -0.494837       -13.4652
 106   2.0000      -0.491114       -13.3639
 107   2.0000      -0.484630       -13.1875
 108   2.0000      -0.484090       -13.1728
 109   2.0000      -0.482480       -13.1289
 110   2.0000      -0.479336       -13.0434
 111   2.0000      -0.476976       -12.9792
 112   2.0000      -0.468289       -12.7428
 113   2.0000      -0.462443       -12.5837
 114   2.0000      -0.457255       -12.4425
 115   2.0000      -0.454534       -12.3685
 116   2.0000      -0.454157       -12.3582
 117   2.0000      -0.446579       -12.1520
 118   2.0000      -0.445147       -12.1131
 119   2.0000      -0.435146       -11.8409
 120   2.0000      -0.432421       -11.7668
 121   2.0000      -0.429949       -11.6995
 122   2.0000      -0.425568       -11.5803
 123   2.0000      -0.422799       -11.5049
 124   2.0000      -0.419310       -11.4100
 125   2.0000      -0.418722       -11.3940
 126   2.0000      -0.410665       -11.1748
 127   2.0000      -0.404129       -10.9969
 128   2.0000      -0.402175       -10.9437
 129   2.0000      -0.394483       -10.7344
 130   2.0000      -0.354649        -9.6505
 131   2.0000      -0.347739        -9.4625
 132   2.0000      -0.323544        -8.8041
 133   2.0000      -0.323288        -8.7971
 134   2.0000      -0.321354        -8.7445
 135   2.0000      -0.310176        -8.4403
 136   2.0000      -0.302116        -8.2210
 137   2.0000      -0.299408        -8.1473
 138   2.0000      -0.279878        -7.6159
 139   2.0000      -0.268543        -7.3074
 140   2.0000      -0.231557        -6.3010
 141   0.0000      -0.004444        -0.1209
 142   0.0000       0.006769         0.1842
 143   0.0000       0.014129         0.3845
 144   0.0000       0.039909         1.0860
 145   0.0000       0.042675         1.1612

MULLIKEN ATOMIC CHARGES
-----------------------
   0 C :   -0.232774
   1 C :   -0.293179
   2 C :    0.226502
   3 C :   -0.127932
   4 C :   -0.296016
   5 C :    0.147602
   6 C :    0.268044
   7 C :   -0.138104
   8 C :    0.228973
   9 C :   -0.292166
  10 H :    0.169100
  11 C :   -0.233598
  12 C :    0.140154
  13 C :   -0.288618
  14 H :    0.169526
  15 H :    0.175780
  16 H :    0.161349
  17 N :    0.072762
  18 C :    0.195192
  19 C :    0.036718
  20 C :   -0.182411
  21 C :   -0.336092
  22 C :    0.078354
  23 C :   -0.128424
  24 H :    0.161760
  25 C :   -0.110203
  26 H :    0.176833
  27 C :   -0.195711
  28 C :   -0.253936
  29 H :    0.162828
  30 C :   -0.170523
  31 H :    0.163501
  32 H :    0.162995
  33 H :    0.162352
  34 H :    0.162645
  35 H :    0.175011
  36 H :    0.160340
  37 C :   -0.421086
  38 H :    0.129685
  39 H :    0.132483
  40 H :    0.133862
  41 C :   -0.420930
  42 H :    0.134510
  43 H :    0.130460
  44 H :    0.132800
  45 C :    0.115048
  46 C :   -0.217033
  47 C :   -0.208991
  48 C :   -0.231677
  49 H :    0.173136
  50 C :   -0.230385
  51 H :    0.168442
  52 C :    0.312731
  53 H :    0.176209
  54 H :    0.176226
  55 C :    0.125322
  56 C :   -0.223652
  57 C :   -0.208188
  58 C :   -0.231435
  59 H :    0.174397
  60 C :   -0.231505
  61 H :    0.167002
  62 C :    0.311553
  63 H :    0.176449
  64 H :    0.176949
  65 C :   -0.137240
  66 C :   -0.135791
  67 N :   -0.214834
  68 N :   -0.213149
Sum of atomic charges:   -0.0000000

LOEWDIN ATOMIC CHARGES
----------------------
   0 C :   -0.098456
   1 C :   -0.120219
   2 C :   -0.116697
   3 C :   -0.064748
   4 C :   -0.052362
   5 C :   -0.126471
   6 C :   -0.230887
   7 C :   -0.064705
   8 C :   -0.116699
   9 C :   -0.120095
  10 H :    0.162623
  11 C :   -0.098705
  12 C :   -0.126739
  13 C :   -0.052369
  14 H :    0.162574
  15 H :    0.162879
  16 H :    0.158183
  17 N :    0.286148
  18 C :   -0.133914
  19 C :   -0.070052
  20 C :   -0.092045
  21 C :   -0.099008
  22 C :   -0.097186
  23 C :   -0.138739
  24 H :    0.160961
  25 C :   -0.138458
  26 H :    0.160019
  27 C :   -0.101243
  28 C :   -0.095030
  29 H :    0.153899
  30 C :   -0.142631
  31 H :    0.152769
  32 H :    0.156762
  33 H :    0.157728
  34 H :    0.152249
  35 H :    0.162838
  36 H :    0.158229
  37 C :   -0.229233
  38 H :    0.123294
  39 H :    0.123360
  40 H :    0.123572
  41 C :   -0.229184
  42 H :    0.123545
  43 H :    0.123468
  44 H :    0.123306
  45 C :   -0.080110
  46 C :   -0.092053
  47 C :   -0.091837
  48 C :   -0.068944
  49 H :    0.160513
  50 C :   -0.068881
  51 H :    0.160544
  52 C :   -0.161163
  53 H :    0.164398
  54 H :    0.164426
  55 C :   -0.080240
  56 C :   -0.092124
  57 C :   -0.091925
  58 C :   -0.068924
  59 H :    0.160637
  60 C :   -0.069077
  61 H :    0.160429
  62 C :   -0.161358
  63 H :    0.164445
  64 H :    0.164493
  65 C :   -0.125255
  66 C :   -0.125028
  67 N :   -0.027908
  68 N :   -0.027588

  Mayer bond orders larger than 0.100000
B(  0-C ,  1-C ) :   1.4719 B(  0-C ,  5-C ) :   1.3301 B(  0-C , 36-H ) :   0.9726
B(  1-C ,  2-C ) :   1.3381 B(  1-C , 14-H ) :   0.9849 B(  2-C ,  3-C ) :   1.2556
B(  2-C , 17-N ) :   1.1183 B(  3-C ,  4-C ) :   1.3923 B(  3-C ,  6-C ) :   0.9825
B(  4-C ,  5-C ) :   1.4052 B(  4-C , 15-H ) :   0.9462 B(  5-C , 45-C ) :   0.9326
B(  6-C ,  7-C ) :   0.9808 B(  6-C , 37-C ) :   0.8839 B(  6-C , 41-C ) :   0.8777
B(  7-C ,  8-C ) :   1.2549 B(  7-C , 13-C ) :   1.3896 B(  8-C ,  9-C ) :   1.3363
B(  8-C , 17-N ) :   1.1193 B(  9-C , 10-H ) :   0.9856 B(  9-C , 11-C ) :   1.4735
B( 11-C , 12-C ) :   1.3305 B( 11-C , 16-H ) :   0.9707 B( 12-C , 13-C ) :   1.4051
B( 12-C , 55-C ) :   0.9360 B( 13-C , 35-H ) :   0.9468 B( 17-N , 18-C ) :   0.7002
B( 18-C , 19-C ) :   1.1582 B( 18-C , 20-C ) :   1.6467 B( 18-C , 21-C ) :  -0.1062
B( 18-C , 22-C ) :  -0.1176 B( 19-C , 21-C ) :   1.2692 B( 19-C , 22-C ) :   1.2903
B( 20-C , 23-C ) :   1.2390 B( 20-C , 24-H ) :   0.9864 B( 21-C , 25-C ) :   1.5649
B( 21-C , 26-H ) :   0.9681 B( 22-C , 27-C ) :   1.2595 B( 22-C , 28-C ) :   1.2309
B( 23-C , 28-C ) :   1.5086 B( 23-C , 29-H ) :   0.9908 B( 25-C , 30-C ) :   1.2361
B( 25-C , 31-H ) :   0.9841 B( 27-C , 30-C ) :   1.5362 B( 27-C , 32-H ) :   0.9826
B( 28-C , 33-H ) :   0.9900 B( 30-C , 34-H ) :   0.9840 B( 37-C , 38-H ) :   0.9859
B( 37-C , 39-H ) :   0.9772 B( 37-C , 40-H ) :   0.9780 B( 41-C , 42-H ) :   0.9772
B( 41-C , 43-H ) :   0.9857 B( 41-C , 44-H ) :   0.9764 B( 45-C , 46-C ) :   1.3600
B( 45-C , 47-C ) :   1.3601 B( 46-C , 48-C ) :   1.4845 B( 46-C , 49-H ) :   0.9651
B( 47-C , 50-C ) :   1.4817 B( 47-C , 51-H ) :   0.9710 B( 48-C , 52-C ) :   1.3156
B( 48-C , 53-H ) :   0.9817 B( 50-C , 52-C ) :   1.3134 B( 50-C , 54-H ) :   0.9822
B( 52-C , 66-C ) :   0.9427 B( 55-C , 56-C ) :   1.3577 B( 55-C , 57-C ) :   1.3562
B( 56-C , 58-C ) :   1.4864 B( 56-C , 59-H ) :   0.9649 B( 57-C , 60-C ) :   1.4837
B( 57-C , 61-H ) :   0.9712 B( 58-C , 62-C ) :   1.3161 B( 58-C , 63-H ) :   0.9810
B( 60-C , 62-C ) :   1.3125 B( 60-C , 64-H ) :   0.9813 B( 62-C , 65-C ) :   0.9447
B( 65-C , 68-N ) :   3.0300 B( 66-C , 67-N ) :   3.0310

MP2 TOTAL ENERGY:    -1665.537563166 Eh

-----------------------------------------------------------------------------
         ABSORPTION SPECTRUM VIA TRANSITION ELECTRIC DIPOLE MOMENTS
-----------------------------------------------------------------------------
State   Energy    Wavelength  fosc         T2        TX        TY        TZ
        (cm-1)      (nm)                 (au**2)    (au)      (au)      (au)
-----------------------------------------------------------------------------
   1   26490.5    377.5   1.469151228  18.25793  -4.27287  -0.01564  -0.01562
   2   30980.2    322.8   0.478180258   5.08139   0.01825  -2.24001   0.25178
   3   28417.8    351.9   0.000603866   0.00700   0.08350  -0.00249   0.00418
   4   36194.2    276.3   0.113376522   1.03124  -0.00481  -1.01043   0.10120
   5   32955.5    303.4   0.094878072   0.94779   0.00409  -0.96658   0.11618
   6   33345.0    299.9   0.064767438   0.63944   0.79925   0.00301   0.02502
   7   34899.2    286.5   0.000795825   0.00751  -0.05201  -0.05162  -0.04624
   8   37217.7    268.7   0.000322822   0.00286  -0.00373  -0.04920   0.02051
   9   37222.0    268.7   0.011585266   0.10247   0.27706   0.02747   0.15796
  10   39710.5    251.8   0.276856730   2.29522  -1.51494  -0.00162   0.01323
  11   36842.4    271.4   0.009136826   0.08164  -0.00617   0.25083  -0.13671
  12   36930.1    270.8   0.001355224   0.01208  -0.10790  -0.00344  -0.02065
  13   40065.8    249.6   0.061095208   0.50201  -0.01845   0.03013  -0.70764
  14   40764.8    245.3   0.013004249   0.10502   0.18403   0.03443   0.26452
  15   41247.4    242.4   0.372614848   2.97399  -0.02282  -0.43261  -1.66923
  16   43795.2    228.3   0.819371704   6.15928  -0.02331  -1.11338  -2.21791
  17   41816.7    239.1   0.125667718   0.98935  -0.93769   0.00834   0.33169
  18   45960.2    217.6   0.083468531   0.59788  -0.21482   0.07038  -0.73945
  19   42231.0    236.8   0.363913385   2.83689  -0.01258  -1.60806   0.50088
  20   42747.1    233.9   0.242489962   1.86751   1.21360  -0.18232  -0.60120
  21   41866.2    238.9   0.035863381   0.28201   0.51332   0.08359  -0.10736
  22   47848.7    209.0   0.861936059   5.93035   0.00878  -2.36926   0.56292
  23   47386.3    211.0   0.073273872   0.50906   0.32361  -0.08243   0.63051
  24   46760.5    213.9   1.180400159   8.31047  -2.88178  -0.01871   0.07403
  25   47920.2    208.7   0.013483239   0.09263  -0.05186  -0.14060  -0.26490
  26   45692.7    218.9   0.017434798   0.12562  -0.06609   0.13955  -0.31902
  27   48386.0    206.7   0.045908850   0.31236   0.44524  -0.18293   0.28401
  28   46656.6    214.3   0.312620583   2.20587  -1.48206  -0.09445  -0.02120
  29   45073.5    221.9   0.044514117   0.32513   0.55615  -0.02542  -0.12320
  30   44764.0    223.4   0.006014794   0.04424  -0.16672   0.01271   0.12758

FINAL SINGLE POINT ENERGY     -1662.658833203813

DIPOLE MOMENT
-------------
                                X             Y             Z
Electronic contribution:      0.02250      -0.44948      -1.81672
Nuclear contribution   :     -0.01502       3.81011       1.25834
                        -----------------------------------------
Total Dipole Moment    :      0.00748       3.36063      -0.55838
                        -----------------------------------------
Magnitude (a.u.)       :      3.40671
Magnitude (Debye)      :      8.65916

Rotational constants in cm-1:     0.003437     0.001388     0.001054
Rotational constants in MHz :   103.045994    41.609262    31.611058

                             ****ORCA TERMINATED NORMALLY****
TOTAL RUN TIME: 2 days 7 hours 31 minutes 41 seconds 444 msec
