                         Program Version 5.0.2 -  RELEASE  -
|  1> %maxcore 3200
|  2> %pal
|  3>  nprocs= 8
|  4> end
|  5> ! RI-wB2PLYP def2-TZVP def2/J def2-TZVP/C RIJCOSX CPCM TightSCF
|  6> %TDDFT DCORR 1
|  7>    NROOTS   30
|  8>
|  9>    TDA      FALSE
| 10> END
| 11>
| 12> %CPCM
| 13>    SMD          TRUE
| 14>    SMDsolvent   "N,N-DIMETHYLFORMAMIDE"
| 15> END
| 16>
| 17>
| 18> * xyz 0 1
| 19> C                   3.63553800    0.74494900   -0.46163900
| 20> C                   2.42107900    1.38030500   -0.58758400
| 21> C                   1.21656200    0.67285700   -0.46712700
| 22> C                   1.25819300   -0.70454500   -0.20388600
| 23> C                   2.49840900   -1.31093200   -0.07569600
| 24> C                   3.70901100   -0.62592000   -0.19895200
| 25> C                   0.00281000   -1.54830600   -0.04909500
| 26> C                  -1.25323300   -0.70909400   -0.22215700
| 27> C                  -1.21280700    0.66998300   -0.47644700
| 28> C                  -2.41813500    1.37537900   -0.60084500
| 29> H                  -2.39777200    2.43601700   -0.80861100
| 30> C                  -3.63194100    0.73875100   -0.47511300
| 31> C                  -3.70436300   -0.63530400   -0.22897100
| 32> C                  -2.49289500   -1.32003900   -0.11238600
| 33> H                   2.39954700    2.44418800   -0.77785100
| 34> H                   2.52223200   -2.37832400    0.10828800
| 35> H                  -4.53710000    1.31953600   -0.59838700
| 36> N                   0.00150800    1.33773300   -0.60209900
| 37> C                   0.00058900    2.75552300   -0.80739300
| 38> C                  -0.00882800    3.61388500    0.32010700
| 39> C                   0.00908000    3.25827500   -2.08132000
| 40> C                  -0.01719200    3.13370600    1.64772300
| 41> C                  -0.00955500    5.02295900    0.09320400
| 42> C                   0.00838700    4.64657800   -2.29571300
| 43> H                   0.01626600    2.57293000   -2.91985400
| 44> C                  -0.02609000    4.00555800    2.70413200
| 45> H                  -0.01642800    2.06468700    1.82375200
| 46> C                  -0.01886900    5.88997000    1.20767400
| 47> C                  -0.00079500    5.50832400   -1.23232900
| 48> H                   0.01512900    5.02768800   -3.30864600
| 49> C                  -0.02699800    5.39464000    2.48376800
| 50> H                  -0.03241900    3.62488100    3.71764900
| 51> H                  -0.01937300    6.95893200    1.02981200
| 52> H                  -0.00143300    6.58011600   -1.39142500
| 53> H                  -0.03406200    6.07091200    3.32919500
| 54> H                  -2.51497500   -2.38116600    0.10409700
| 55> H                   4.54022000    1.33378400   -0.54317400
| 56> C                   0.01021200   -2.66879700   -1.09901000
| 57> H                   0.01780600   -2.26135600   -2.11032800
| 58> H                   0.88754400   -3.30522900   -0.98473500
| 59> H                  -0.87016200   -3.30331800   -0.99734800
| 60> C                  -0.00416100   -2.17723100    1.35264600
| 61> H                   0.87715000   -2.80060400    1.50420300
| 62> H                  -0.01225200   -1.40924200    2.12720000
| 63> H                  -0.88163900   -2.80837100    1.49316700
| 64> C                   4.99550500   -1.31286300   -0.05513800
| 65> C                   5.11248700   -2.49254400    0.69374800
| 66> C                   6.15581300   -0.81066600   -0.66148200
| 67> C                   6.31979700   -3.14205800    0.83103800
| 68> H                   4.24431000   -2.89767900    1.19677800
| 69> C                   7.37016100   -1.44844200   -0.53239000
| 70> H                   6.10071100    0.08668400   -1.26353700
| 71> C                   7.46566300   -2.62582300    0.21681000
| 72> H                   6.38899400   -4.04685100    1.42001400
| 73> H                   8.25113800   -1.04775200   -1.01580000
| 74> C                  -4.98997200   -1.32600300   -0.09568900
| 75> C                  -5.11269100   -2.69713500   -0.36294500
| 76> C                  -6.14345800   -0.63662100    0.30504700
| 77> C                  -6.31915000   -3.35064100   -0.23732900
| 78> H                  -4.24975800   -3.25868900   -0.69612300
| 79> C                  -7.35689500   -1.27610500    0.43384200
| 80> H                  -6.08338900    0.41756100    0.54160200
| 81> C                  -7.45833400   -2.64478700    0.16363300
| 82> H                  -6.39291600   -4.40752600   -0.45633500
| 83> H                  -8.23267900   -0.72655200    0.75231700
| 84> C                  -8.70201000   -3.30886700    0.29507900
| 85> C                   8.71001100   -3.28800600    0.35229600
| 86> N                   9.72793300   -3.82989700    0.46287000
| 87> N                  -9.71948300   -3.85222800    0.40257600
| 88> *
| 89>
| 90>
| 91>                          ****END OF INPUT****

CARTESIAN COORDINATES (ANGSTROEM)
---------------------------------
  C      3.635538    0.744949   -0.461639
  C      2.421079    1.380305   -0.587584
  C      1.216562    0.672857   -0.467127
  C      1.258193   -0.704545   -0.203886
  C      2.498409   -1.310932   -0.075696
  C      3.709011   -0.625920   -0.198952
  C      0.002810   -1.548306   -0.049095
  C     -1.253233   -0.709094   -0.222157
  C     -1.212807    0.669983   -0.476447
  C     -2.418135    1.375379   -0.600845
  H     -2.397772    2.436017   -0.808611
  C     -3.631941    0.738751   -0.475113
  C     -3.704363   -0.635304   -0.228971
  C     -2.492895   -1.320039   -0.112386
  H      2.399547    2.444188   -0.777851
  H      2.522232   -2.378324    0.108288
  H     -4.537100    1.319536   -0.598387
  N      0.001508    1.337733   -0.602099
  C      0.000589    2.755523   -0.807393
  C     -0.008828    3.613885    0.320107
  C      0.009080    3.258275   -2.081320
  C     -0.017192    3.133706    1.647723
  C     -0.009555    5.022959    0.093204
  C      0.008387    4.646578   -2.295713
  H      0.016266    2.572930   -2.919854
  C     -0.026090    4.005558    2.704132
  H     -0.016428    2.064687    1.823752
  C     -0.018869    5.889970    1.207674
  C     -0.000795    5.508324   -1.232329
  H      0.015129    5.027688   -3.308646
  C     -0.026998    5.394640    2.483768
  H     -0.032419    3.624881    3.717649
  H     -0.019373    6.958932    1.029812
  H     -0.001433    6.580116   -1.391425
  H     -0.034062    6.070912    3.329195
  H     -2.514975   -2.381166    0.104097
  H      4.540220    1.333784   -0.543174
  C      0.010212   -2.668797   -1.099010
  H      0.017806   -2.261356   -2.110328
  H      0.887544   -3.305229   -0.984735
  H     -0.870162   -3.303318   -0.997348
  C     -0.004161   -2.177231    1.352646
  H      0.877150   -2.800604    1.504203
  H     -0.012252   -1.409242    2.127200
  H     -0.881639   -2.808371    1.493167
  C      4.995505   -1.312863   -0.055138
  C      5.112487   -2.492544    0.693748
  C      6.155813   -0.810666   -0.661482
  C      6.319797   -3.142058    0.831038
  H      4.244310   -2.897679    1.196778
  C      7.370161   -1.448442   -0.532390
  H      6.100711    0.086684   -1.263537
  C      7.465663   -2.625823    0.216810
  H      6.388994   -4.046851    1.420014
  H      8.251138   -1.047752   -1.015800
  C     -4.989972   -1.326003   -0.095689
  C     -5.112691   -2.697135   -0.362945
  C     -6.143458   -0.636621    0.305047
  C     -6.319150   -3.350641   -0.237329
  H     -4.249758   -3.258689   -0.696123
  C     -7.356895   -1.276105    0.433842
  H     -6.083389    0.417561    0.541602
  C     -7.458334   -2.644787    0.163633
  H     -6.392916   -4.407526   -0.456335
  H     -8.232679   -0.726552    0.752317
  C     -8.702010   -3.308867    0.295079
  C      8.710011   -3.288006    0.352296
  N      9.727933   -3.829897    0.462870
  N     -9.719483   -3.852228    0.402576

 Total Charge           Charge          ....    0
 Multiplicity           Mult            ....    1
 Number of Electrons    NEL             ....  282
 Basis Dimension        Dim             .... 1464

ORBITAL ENERGIES
----------------

  NO   OCC          E(Eh)            E(eV)
   0   2.0000     -14.946158      -406.7056
   1   2.0000     -14.921835      -406.0438
   2   2.0000     -14.921690      -406.0398
   3   2.0000     -10.744523      -292.3733
   4   2.0000     -10.744426      -292.3707
   5   2.0000     -10.741622      -292.2944
   6   2.0000     -10.741549      -292.2924
   7   2.0000     -10.731487      -292.0186
   8   2.0000     -10.728757      -291.9443
   9   2.0000     -10.728552      -291.9387
  10   2.0000     -10.718018      -291.6521
  11   2.0000     -10.717740      -291.6445
  12   2.0000     -10.709369      -291.4168
  13   2.0000     -10.709310      -291.4151
  14   2.0000     -10.709137      -291.4104
  15   2.0000     -10.709067      -291.4085
  16   2.0000     -10.706554      -291.3402
  17   2.0000     -10.703912      -291.2682
  18   2.0000     -10.702799      -291.2380
  19   2.0000     -10.695178      -291.0306
  20   2.0000     -10.695099      -291.0284
  21   2.0000     -10.694951      -291.0244
  22   2.0000     -10.694910      -291.0233
  23   2.0000     -10.694813      -291.0207
  24   2.0000     -10.694754      -291.0191
  25   2.0000     -10.694420      -291.0100
  26   2.0000     -10.694379      -291.0089
  27   2.0000     -10.693353      -290.9809
  28   2.0000     -10.692904      -290.9687
  29   2.0000     -10.690946      -290.9154
  30   2.0000     -10.690740      -290.9098
  31   2.0000     -10.690546      -290.9045
  32   2.0000     -10.690347      -290.8991
  33   2.0000     -10.690172      -290.8944
  34   2.0000     -10.689720      -290.8821
  35   2.0000     -10.689486      -290.8757
  36   2.0000     -10.689412      -290.8737
  37   2.0000     -10.688542      -290.8500
  38   2.0000     -10.683891      -290.7234
  39   2.0000     -10.683812      -290.7213
  40   2.0000     -10.662881      -290.1517
  41   2.0000     -10.662789      -290.1492
  42   2.0000      -1.202689       -32.7268
  43   2.0000      -1.133159       -30.8348
  44   2.0000      -1.133016       -30.8309
  45   2.0000      -1.097515       -29.8649
  46   2.0000      -1.094070       -29.7712
  47   2.0000      -1.090154       -29.6646
  48   2.0000      -1.070906       -29.1408
  49   2.0000      -1.068832       -29.0844
  50   2.0000      -1.032599       -28.0984
  51   2.0000      -1.026597       -27.9351
  52   2.0000      -1.001207       -27.2442
  53   2.0000      -0.985502       -26.8169
  54   2.0000      -0.973251       -26.4835
  55   2.0000      -0.959628       -26.1128
  56   2.0000      -0.958141       -26.0723
  57   2.0000      -0.948040       -25.7975
  58   2.0000      -0.941063       -25.6076
  59   2.0000      -0.937857       -25.5204
  60   2.0000      -0.924806       -25.1653
  61   2.0000      -0.920824       -25.0569
  62   2.0000      -0.894567       -24.3424
  63   2.0000      -0.865580       -23.5536
  64   2.0000      -0.844038       -22.9674
  65   2.0000      -0.836806       -22.7707
  66   2.0000      -0.811987       -22.0953
  67   2.0000      -0.802818       -21.8458
  68   2.0000      -0.802261       -21.8306
  69   2.0000      -0.792327       -21.5603
  70   2.0000      -0.785494       -21.3744
  71   2.0000      -0.778123       -21.1738
  72   2.0000      -0.776381       -21.1264
  73   2.0000      -0.758377       -20.6365
  74   2.0000      -0.736770       -20.0485
  75   2.0000      -0.717876       -19.5344
  76   2.0000      -0.716632       -19.5006
  77   2.0000      -0.708366       -19.2756
  78   2.0000      -0.702008       -19.1026
  79   2.0000      -0.687398       -18.7050
  80   2.0000      -0.672745       -18.3063
  81   2.0000      -0.653718       -17.7886
  82   2.0000      -0.653100       -17.7717
  83   2.0000      -0.644719       -17.5437
  84   2.0000      -0.640284       -17.4230
  85   2.0000      -0.629847       -17.1390
  86   2.0000      -0.615040       -16.7361
  87   2.0000      -0.603157       -16.4127
  88   2.0000      -0.600784       -16.3482
  89   2.0000      -0.599395       -16.3104
  90   2.0000      -0.592955       -16.1351
  91   2.0000      -0.589976       -16.0541
  92   2.0000      -0.582991       -15.8640
  93   2.0000      -0.576735       -15.6938
  94   2.0000      -0.574911       -15.6441
  95   2.0000      -0.571343       -15.5470
  96   2.0000      -0.569568       -15.4987
  97   2.0000      -0.566948       -15.4274
  98   2.0000      -0.563604       -15.3365
  99   2.0000      -0.560961       -15.2645
 100   2.0000      -0.556390       -15.1402
 101   2.0000      -0.550255       -14.9732
 102   2.0000      -0.546677       -14.8758
 103   2.0000      -0.544857       -14.8263
 104   2.0000      -0.543005       -14.7759
 105   2.0000      -0.539041       -14.6681
 106   2.0000      -0.532086       -14.4788
 107   2.0000      -0.531299       -14.4574
 108   2.0000      -0.528843       -14.3905
 109   2.0000      -0.524471       -14.2716
 110   2.0000      -0.522090       -14.2068
 111   2.0000      -0.517451       -14.0805
 112   2.0000      -0.508014       -13.8238
 113   2.0000      -0.502712       -13.6795
 114   2.0000      -0.502118       -13.6633
 115   2.0000      -0.494748       -13.4628
 116   2.0000      -0.494567       -13.4578
 117   2.0000      -0.492412       -13.3992
 118   2.0000      -0.486841       -13.2476
 119   2.0000      -0.477067       -12.9816
 120   2.0000      -0.476189       -12.9578
 121   2.0000      -0.472865       -12.8673
 122   2.0000      -0.465129       -12.6568
 123   2.0000      -0.462640       -12.5891
 124   2.0000      -0.461549       -12.5594
 125   2.0000      -0.460559       -12.5324
 126   2.0000      -0.456643       -12.4259
 127   2.0000      -0.448018       -12.1912
 128   2.0000      -0.444070       -12.0838
 129   2.0000      -0.433550       -11.7975
 130   2.0000      -0.399052       -10.8588
 131   2.0000      -0.391154       -10.6438
 132   2.0000      -0.366071        -9.9613
 133   2.0000      -0.365813        -9.9543
 134   2.0000      -0.362991        -9.8775
 135   2.0000      -0.352293        -9.5864
 136   2.0000      -0.344245        -9.3674
 137   2.0000      -0.339785        -9.2460
 138   2.0000      -0.319753        -8.7009
 139   2.0000      -0.308190        -8.3863
 140   2.0000      -0.269090        -7.3223
 141   0.0000       0.018525         0.5041
 142   0.0000       0.030285         0.8241
 143   0.0000       0.037669         1.0250
 144   0.0000       0.063445         1.7264
 145   0.0000       0.066997         1.8231

MULLIKEN ATOMIC CHARGES
-----------------------
   0 C :   -0.226189
   1 C :   -0.299456
   2 C :    0.201925
   3 C :   -0.152054
   4 C :   -0.253594
   5 C :    0.105812
   6 C :    0.186487
   7 C :   -0.161356
   8 C :    0.203670
   9 C :   -0.298754
  10 H :    0.191573
  11 C :   -0.227324
  12 C :    0.098884
  13 C :   -0.246109
  14 H :    0.192078
  15 H :    0.198481
  16 H :    0.180189
  17 N :    0.044439
  18 C :    0.049985
  19 C :    0.055105
  20 C :   -0.173876
  21 C :   -0.323681
  22 C :    0.069226
  23 C :   -0.145726
  24 H :    0.179451
  25 C :   -0.139114
  26 H :    0.196491
  27 C :   -0.192591
  28 C :   -0.235353
  29 H :    0.180595
  30 C :   -0.190788
  31 H :    0.181249
  32 H :    0.180060
  33 H :    0.180179
  34 H :    0.180289
  35 H :    0.197605
  36 H :    0.179308
  37 C :   -0.437755
  38 H :    0.148469
  39 H :    0.148876
  40 H :    0.149859
  41 C :   -0.437282
  42 H :    0.150521
  43 H :    0.148776
  44 H :    0.149241
  45 C :    0.113773
  46 C :   -0.225951
  47 C :   -0.220710
  48 C :   -0.229066
  49 H :    0.191458
  50 C :   -0.228739
  51 H :    0.187503
  52 C :    0.248643
  53 H :    0.196296
  54 H :    0.196279
  55 C :    0.122892
  56 C :   -0.231623
  57 C :   -0.219658
  58 C :   -0.229059
  59 H :    0.192676
  60 C :   -0.229903
  61 H :    0.186220
  62 C :    0.248232
  63 H :    0.196498
  64 H :    0.196968
  65 C :   -0.165304
  66 C :   -0.163140
  67 N :   -0.161979
  68 N :   -0.160130
Sum of atomic charges:   -0.0000000

LOEWDIN ATOMIC CHARGES
----------------------
   0 C :   -0.101161
   1 C :   -0.123422
   2 C :   -0.119495
   3 C :   -0.067523
   4 C :   -0.055326
   5 C :   -0.128584
   6 C :   -0.235804
   7 C :   -0.067476
   8 C :   -0.119507
   9 C :   -0.123300
  10 H :    0.166475
  11 C :   -0.101405
  12 C :   -0.128843
  13 C :   -0.055343
  14 H :    0.166425
  15 H :    0.166472
  16 H :    0.162127
  17 N :    0.287675
  18 C :   -0.139946
  19 C :   -0.071990
  20 C :   -0.095105
  21 C :   -0.102518
  22 C :   -0.099164
  23 C :   -0.141994
  24 H :    0.165200
  25 C :   -0.141454
  26 H :    0.163631
  27 C :   -0.104206
  28 C :   -0.097711
  29 H :    0.157897
  30 C :   -0.146022
  31 H :    0.156771
  32 H :    0.160774
  33 H :    0.161778
  34 H :    0.156227
  35 H :    0.166431
  36 H :    0.162182
  37 C :   -0.239286
  38 H :    0.128013
  39 H :    0.127775
  40 H :    0.127927
  41 C :   -0.239124
  42 H :    0.127894
  43 H :    0.128089
  44 H :    0.127724
  45 C :   -0.081849
  46 C :   -0.095241
  47 C :   -0.095076
  48 C :   -0.071726
  49 H :    0.164245
  50 C :   -0.071671
  51 H :    0.164360
  52 C :   -0.162813
  53 H :    0.168538
  54 H :    0.168567
  55 C :   -0.081981
  56 C :   -0.095295
  57 C :   -0.095150
  58 C :   -0.071701
  59 H :    0.164365
  60 C :   -0.071869
  61 H :    0.164255
  62 C :   -0.163005
  63 H :    0.168588
  64 H :    0.168631
  65 C :   -0.128573
  66 C :   -0.128349
  67 N :   -0.019673
  68 N :   -0.019353

  Mayer bond orders larger than 0.100000
B(  0-C ,  1-C ) :   1.5052 B(  0-C ,  5-C ) :   1.3387 B(  0-C , 36-H ) :   0.9541
B(  1-C ,  2-C ) :   1.3256 B(  1-C , 14-H ) :   0.9712 B(  2-C ,  3-C ) :   1.3012
B(  2-C , 17-N ) :   1.1144 B(  3-C ,  4-C ) :   1.4402 B(  3-C ,  6-C ) :   0.9433
B(  4-C ,  5-C ) :   1.4304 B(  4-C , 15-H ) :   0.9124 B(  5-C , 45-C ) :   0.9373
B(  6-C ,  7-C ) :   0.9409 B(  6-C , 37-C ) :   0.9398 B(  6-C , 41-C ) :   0.9338
B(  7-C ,  8-C ) :   1.3023 B(  7-C , 13-C ) :   1.4384 B(  8-C ,  9-C ) :   1.3232
B(  8-C , 17-N ) :   1.1155 B(  9-C , 10-H ) :   0.9719 B(  9-C , 11-C ) :   1.5082
B( 11-C , 12-C ) :   1.3389 B( 11-C , 16-H ) :   0.9521 B( 12-C , 13-C ) :   1.4305
B( 12-C , 55-C ) :   0.9401 B( 13-C , 35-H ) :   0.9131 B( 17-N , 18-C ) :   0.7119
B( 18-C , 19-C ) :   1.1293 B( 18-C , 20-C ) :   1.6692 B( 19-C , 21-C ) :   1.2468
B( 19-C , 22-C ) :   1.2743 B( 20-C , 23-C ) :   1.2323 B( 20-C , 24-H ) :   0.9777
B( 21-C , 25-C ) :   1.5852 B( 21-C , 26-H ) :   0.9554 B( 22-C , 27-C ) :   1.2464
B( 22-C , 28-C ) :   1.2262 B( 23-C , 28-C ) :   1.5349 B( 23-C , 29-H ) :   0.9829
B( 25-C , 30-C ) :   1.2376 B( 25-C , 31-H ) :   0.9763 B( 27-C , 30-C ) :   1.5540
B( 27-C , 32-H ) :   0.9676 B( 28-C , 33-H ) :   0.9711 B( 30-C , 34-H ) :   0.9775
B( 37-C , 38-H ) :   0.9819 B( 37-C , 39-H ) :   0.9730 B( 37-C , 40-H ) :   0.9736
B( 41-C , 42-H ) :   0.9729 B( 41-C , 43-H ) :   0.9813 B( 41-C , 44-H ) :   0.9724
B( 45-C , 46-C ) :   1.3590 B( 45-C , 47-C ) :   1.3577 B( 46-C , 48-C ) :   1.4940
B( 46-C , 49-H ) :   0.9531 B( 47-C , 50-C ) :   1.4920 B( 47-C , 51-H ) :   0.9592
B( 48-C , 52-C ) :   1.3205 B( 48-C , 53-H ) :   0.9683 B( 50-C , 52-C ) :   1.3185
B( 50-C , 54-H ) :   0.9691 B( 52-C , 66-C ) :   0.9425 B( 55-C , 56-C ) :   1.3571
B( 55-C , 57-C ) :   1.3546 B( 56-C , 58-C ) :   1.4960 B( 56-C , 59-H ) :   0.9528
B( 57-C , 60-C ) :   1.4942 B( 57-C , 61-H ) :   0.9592 B( 58-C , 62-C ) :   1.3208
B( 58-C , 63-H ) :   0.9678 B( 60-C , 62-C ) :   1.3173 B( 60-C , 64-H ) :   0.9681
B( 62-C , 65-C ) :   0.9441 B( 65-C , 68-N ) :   3.0795 B( 66-C , 67-N ) :   3.0802

MP2 TOTAL ENERGY:    -1663.951162789 Eh

-----------------------------------------------------------------------------
         ABSORPTION SPECTRUM VIA TRANSITION ELECTRIC DIPOLE MOMENTS
-----------------------------------------------------------------------------
State   Energy    Wavelength  fosc         T2        TX        TY        TZ
        (cm-1)      (nm)                 (au**2)    (au)      (au)      (au)
-----------------------------------------------------------------------------
   1   29883.3    334.6   1.609834246  17.73490   4.21122   0.01599   0.01543
   2   34460.7    290.2   0.538181505   5.14139  -0.01755   2.25378  -0.24813
   3   37378.8    267.5   0.106046958   0.93400   0.00365  -0.96238   0.08841
   4   35766.3    279.6   0.112293835   1.03361   0.02180  -1.00767   0.13316
   5   36363.6    275.0   0.003538129   0.03203   0.03224  -0.16966  -0.04697
   6   35542.1    281.4   0.055956274   0.51830  -0.71531  -0.08052  -0.01223
   7   35359.8    282.8   0.023298312   0.21692   0.46295  -0.05013   0.00888
   8   39561.7    252.8   0.003474586   0.02891  -0.00169   0.16486  -0.04160
   9   39658.3    252.2   0.008044844   0.06678  -0.16374  -0.03441  -0.19694
  10   42147.5    237.3   0.256678816   2.00491  -1.41590  -0.00009   0.01187
  11   46000.2    217.4   0.356465193   2.55113  -0.00224  -0.41612  -1.54207
  12   46443.9    215.3   0.989660982   7.01509  -0.02665   0.87649   2.49923
  13   44664.2    223.9   0.062063706   0.45746  -0.37489  -0.13365  -0.54686
  14   45694.5    218.8   0.024182859   0.17423   0.00112  -0.08546   0.40856
  15   44637.5    224.0   0.068115047   0.50236   0.23135  -0.15034  -0.65287
  16   47682.2    209.7   0.136654330   0.94350   0.00318   0.80146  -0.54877
  17   49568.9    201.7   1.500281650   9.96412  -3.15199   0.04046   0.16576
  18   47377.8    211.1   0.716884641   4.98139  -0.01567  -2.17836   0.48568
  19   47928.0    208.6   0.135771260   0.93260   0.71881  -0.23011  -0.60246
  20   49662.8    201.4   0.768302369   5.09303  -0.02489  -2.21578   0.42745
  21   51182.5    195.4   0.003918609   0.02520  -0.04168  -0.15307  -0.00598
  22   50641.3    197.5   0.028754263   0.18693   0.19127   0.33140   0.20129
  23   49855.5    200.6   0.142221444   0.93913   0.12405  -0.83016   0.48433
  24   50286.0    198.9   0.041653156   0.27269   0.47018   0.19813  -0.11122
  25   50653.3    197.4   0.100764423   0.65490  -0.07495  -0.80233   0.07444
  26   55764.5    179.3   0.021531538   0.12711   0.35619   0.01440  -0.00582
  27   55367.4    180.6   0.126603529   0.75278  -0.86672   0.03924  -0.00579
  28   52487.7    190.5   0.855307912   5.36464   2.31594  -0.01568   0.02843
  29   52398.1    190.8   0.004945185   0.03107  -0.00648  -0.16211  -0.06892
  30   54140.2    184.7   0.006813740   0.04143  -0.02011  -0.20219  -0.01218

FINAL SINGLE POINT ENERGY     -1661.850134166653

DIPOLE MOMENT
-------------
                                X             Y             Z
Electronic contribution:      0.02216      -0.52470      -1.80342
Nuclear contribution   :     -0.01502       3.81011       1.25834
                        -----------------------------------------
Total Dipole Moment    :      0.00714       3.28541      -0.54508
                        -----------------------------------------
Magnitude (a.u.)       :      3.33033
Magnitude (Debye)      :      8.46503

Rotational constants in cm-1:     0.003437     0.001388     0.001054
Rotational constants in MHz :   103.045994    41.609262    31.611058

                             ****ORCA TERMINATED NORMALLY****
TOTAL RUN TIME: 0 days 7 hours 19 minutes 47 seconds 118 msec
