                         Program Version 5.0.2 -  RELEASE  -
|  1> %maxcore 60000
|  2> %pal
|  3>  nprocs= 4
|  4> end
|  5> !STEOM-DLPNO-CCSD DEF2-TZVP DEF2-TZVP/C def2/J TightSCF TightPNO CPCM
|  6> %MDCI
|  7>    Dorootwise true
|  8>    OTHRESH 0.005
|  9>    VTHRESH 0.005
| 10>    TCutPNOSingles 1e-11
| 11>    DTol 1e-5
| 12>    NROOTS  25
| 13>    DOSOLV  TRUE
| 14>    MAXITER 500
| 15> END
| 16> %CPCM
| 17>    SMD          TRUE
| 18>    SMDsolvent   "N,N-DIMETHYLFORMAMIDE"
| 19> END
| 20>
| 21>
| 22> * xyz 0 1
| 23> C                   3.63553800    0.74494900   -0.46163900
| 24> C                   2.42107900    1.38030500   -0.58758400
| 25> C                   1.21656200    0.67285700   -0.46712700
| 26> C                   1.25819300   -0.70454500   -0.20388600
| 27> C                   2.49840900   -1.31093200   -0.07569600
| 28> C                   3.70901100   -0.62592000   -0.19895200
| 29> C                   0.00281000   -1.54830600   -0.04909500
| 30> C                  -1.25323300   -0.70909400   -0.22215700
| 31> C                  -1.21280700    0.66998300   -0.47644700
| 32> C                  -2.41813500    1.37537900   -0.60084500
| 33> H                  -2.39777200    2.43601700   -0.80861100
| 34> C                  -3.63194100    0.73875100   -0.47511300
| 35> C                  -3.70436300   -0.63530400   -0.22897100
| 36> C                  -2.49289500   -1.32003900   -0.11238600
| 37> H                   2.39954700    2.44418800   -0.77785100
| 38> H                   2.52223200   -2.37832400    0.10828800
| 39> H                  -4.53710000    1.31953600   -0.59838700
| 40> N                   0.00150800    1.33773300   -0.60209900
| 41> C                   0.00058900    2.75552300   -0.80739300
| 42> C                  -0.00882800    3.61388500    0.32010700
| 43> C                   0.00908000    3.25827500   -2.08132000
| 44> C                  -0.01719200    3.13370600    1.64772300
| 45> C                  -0.00955500    5.02295900    0.09320400
| 46> C                   0.00838700    4.64657800   -2.29571300
| 47> H                   0.01626600    2.57293000   -2.91985400
| 48> C                  -0.02609000    4.00555800    2.70413200
| 49> H                  -0.01642800    2.06468700    1.82375200
| 50> C                  -0.01886900    5.88997000    1.20767400
| 51> C                  -0.00079500    5.50832400   -1.23232900
| 52> H                   0.01512900    5.02768800   -3.30864600
| 53> C                  -0.02699800    5.39464000    2.48376800
| 54> H                  -0.03241900    3.62488100    3.71764900
| 55> H                  -0.01937300    6.95893200    1.02981200
| 56> H                  -0.00143300    6.58011600   -1.39142500
| 57> H                  -0.03406200    6.07091200    3.32919500
| 58> H                  -2.51497500   -2.38116600    0.10409700
| 59> H                   4.54022000    1.33378400   -0.54317400
| 60> C                   0.01021200   -2.66879700   -1.09901000
| 61> H                   0.01780600   -2.26135600   -2.11032800
| 62> H                   0.88754400   -3.30522900   -0.98473500
| 63> H                  -0.87016200   -3.30331800   -0.99734800
| 64> C                  -0.00416100   -2.17723100    1.35264600
| 65> H                   0.87715000   -2.80060400    1.50420300
| 66> H                  -0.01225200   -1.40924200    2.12720000
| 67> H                  -0.88163900   -2.80837100    1.49316700
| 68> C                   4.99550500   -1.31286300   -0.05513800
| 69> C                   5.11248700   -2.49254400    0.69374800
| 70> C                   6.15581300   -0.81066600   -0.66148200
| 71> C                   6.31979700   -3.14205800    0.83103800
| 72> H                   4.24431000   -2.89767900    1.19677800
| 73> C                   7.37016100   -1.44844200   -0.53239000
| 74> H                   6.10071100    0.08668400   -1.26353700
| 75> C                   7.46566300   -2.62582300    0.21681000
| 76> H                   6.38899400   -4.04685100    1.42001400
| 77> H                   8.25113800   -1.04775200   -1.01580000
| 78> C                  -4.98997200   -1.32600300   -0.09568900
| 79> C                  -5.11269100   -2.69713500   -0.36294500
| 80> C                  -6.14345800   -0.63662100    0.30504700
| 81> C                  -6.31915000   -3.35064100   -0.23732900
| 82> H                  -4.24975800   -3.25868900   -0.69612300
| 83> C                  -7.35689500   -1.27610500    0.43384200
| 84> H                  -6.08338900    0.41756100    0.54160200
| 85> C                  -7.45833400   -2.64478700    0.16363300
| 86> H                  -6.39291600   -4.40752600   -0.45633500
| 87> H                  -8.23267900   -0.72655200    0.75231700
| 88> C                  -8.70201000   -3.30886700    0.29507900
| 89> C                   8.71001100   -3.28800600    0.35229600
| 90> N                   9.72793300   -3.82989700    0.46287000
| 91> N                  -9.71948300   -3.85222800    0.40257600
| 92> *
| 93>
| 94>
| 95>                          ****END OF INPUT****

CARTESIAN COORDINATES (ANGSTROEM)
---------------------------------
  C      3.635538    0.744949   -0.461639
  C      2.421079    1.380305   -0.587584
  C      1.216562    0.672857   -0.467127
  C      1.258193   -0.704545   -0.203886
  C      2.498409   -1.310932   -0.075696
  C      3.709011   -0.625920   -0.198952
  C      0.002810   -1.548306   -0.049095
  C     -1.253233   -0.709094   -0.222157
  C     -1.212807    0.669983   -0.476447
  C     -2.418135    1.375379   -0.600845
  H     -2.397772    2.436017   -0.808611
  C     -3.631941    0.738751   -0.475113
  C     -3.704363   -0.635304   -0.228971
  C     -2.492895   -1.320039   -0.112386
  H      2.399547    2.444188   -0.777851
  H      2.522232   -2.378324    0.108288
  H     -4.537100    1.319536   -0.598387
  N      0.001508    1.337733   -0.602099
  C      0.000589    2.755523   -0.807393
  C     -0.008828    3.613885    0.320107
  C      0.009080    3.258275   -2.081320
  C     -0.017192    3.133706    1.647723
  C     -0.009555    5.022959    0.093204
  C      0.008387    4.646578   -2.295713
  H      0.016266    2.572930   -2.919854
  C     -0.026090    4.005558    2.704132
  H     -0.016428    2.064687    1.823752
  C     -0.018869    5.889970    1.207674
  C     -0.000795    5.508324   -1.232329
  H      0.015129    5.027688   -3.308646
  C     -0.026998    5.394640    2.483768
  H     -0.032419    3.624881    3.717649
  H     -0.019373    6.958932    1.029812
  H     -0.001433    6.580116   -1.391425
  H     -0.034062    6.070912    3.329195
  H     -2.514975   -2.381166    0.104097
  H      4.540220    1.333784   -0.543174
  C      0.010212   -2.668797   -1.099010
  H      0.017806   -2.261356   -2.110328
  H      0.887544   -3.305229   -0.984735
  H     -0.870162   -3.303318   -0.997348
  C     -0.004161   -2.177231    1.352646
  H      0.877150   -2.800604    1.504203
  H     -0.012252   -1.409242    2.127200
  H     -0.881639   -2.808371    1.493167
  C      4.995505   -1.312863   -0.055138
  C      5.112487   -2.492544    0.693748
  C      6.155813   -0.810666   -0.661482
  C      6.319797   -3.142058    0.831038
  H      4.244310   -2.897679    1.196778
  C      7.370161   -1.448442   -0.532390
  H      6.100711    0.086684   -1.263537
  C      7.465663   -2.625823    0.216810
  H      6.388994   -4.046851    1.420014
  H      8.251138   -1.047752   -1.015800
  C     -4.989972   -1.326003   -0.095689
  C     -5.112691   -2.697135   -0.362945
  C     -6.143458   -0.636621    0.305047
  C     -6.319150   -3.350641   -0.237329
  H     -4.249758   -3.258689   -0.696123
  C     -7.356895   -1.276105    0.433842
  H     -6.083389    0.417561    0.541602
  C     -7.458334   -2.644787    0.163633
  H     -6.392916   -4.407526   -0.456335
  H     -8.232679   -0.726552    0.752317
  C     -8.702010   -3.308867    0.295079
  C      8.710011   -3.288006    0.352296
  N      9.727933   -3.829897    0.462870
  N     -9.719483   -3.852228    0.402576

 Total Charge           Charge          ....    0
 Multiplicity           Mult            ....    1
 Number of Electrons    NEL             ....  282
 Basis Dimension        Dim             .... 1464

ORBITAL ENERGIES
----------------

  NO   OCC          E(Eh)            E(eV)
   0   2.0000     -15.594855      -424.3576
   1   2.0000     -15.576049      -423.8458
   2   2.0000     -15.575884      -423.8413
   3   2.0000     -11.289740      -307.2094
   4   2.0000     -11.289638      -307.2067
   5   2.0000     -11.287010      -307.1351
   6   2.0000     -11.286926      -307.1329
   7   2.0000     -11.274014      -306.7815
   8   2.0000     -11.269650      -306.6628
   9   2.0000     -11.269421      -306.6565
  10   2.0000     -11.262729      -306.4744
  11   2.0000     -11.262428      -306.4662
  12   2.0000     -11.254657      -306.2548
  13   2.0000     -11.254585      -306.2528
  14   2.0000     -11.254404      -306.2479
  15   2.0000     -11.254314      -306.2454
  16   2.0000     -11.247110      -306.0494
  17   2.0000     -11.245652      -306.0098
  18   2.0000     -11.244448      -305.9770
  19   2.0000     -11.236722      -305.7668
  20   2.0000     -11.236650      -305.7648
  21   2.0000     -11.236465      -305.7598
  22   2.0000     -11.236351      -305.7567
  23   2.0000     -11.236176      -305.7519
  24   2.0000     -11.236096      -305.7497
  25   2.0000     -11.236004      -305.7472
  26   2.0000     -11.235687      -305.7386
  27   2.0000     -11.234719      -305.7123
  28   2.0000     -11.234637      -305.7100
  29   2.0000     -11.234437      -305.7046
  30   2.0000     -11.234271      -305.7000
  31   2.0000     -11.233906      -305.6901
  32   2.0000     -11.233635      -305.6827
  33   2.0000     -11.233500      -305.6791
  34   2.0000     -11.233117      -305.6687
  35   2.0000     -11.233030      -305.6663
  36   2.0000     -11.232393      -305.6489
  37   2.0000     -11.231333      -305.6201
  38   2.0000     -11.225083      -305.4500
  39   2.0000     -11.224997      -305.4477
  40   2.0000     -11.205316      -304.9121
  41   2.0000     -11.205242      -304.9101
  42   2.0000      -1.303327       -35.4653
  43   2.0000      -1.231749       -33.5176
  44   2.0000      -1.231600       -33.5135
  45   2.0000      -1.187380       -32.3103
  46   2.0000      -1.183926       -32.2163
  47   2.0000      -1.179334       -32.0913
  48   2.0000      -1.157798       -31.5053
  49   2.0000      -1.155252       -31.4360
  50   2.0000      -1.115309       -30.3491
  51   2.0000      -1.108060       -30.1518
  52   2.0000      -1.079611       -29.3777
  53   2.0000      -1.062677       -28.9169
  54   2.0000      -1.049527       -28.5591
  55   2.0000      -1.035093       -28.1663
  56   2.0000      -1.033603       -28.1258
  57   2.0000      -1.022117       -27.8132
  58   2.0000      -1.015004       -27.6197
  59   2.0000      -1.010143       -27.4874
  60   2.0000      -0.995674       -27.0937
  61   2.0000      -0.992930       -27.0190
  62   2.0000      -0.962139       -26.1811
  63   2.0000      -0.929344       -25.2887
  64   2.0000      -0.900398       -24.5011
  65   2.0000      -0.892284       -24.2803
  66   2.0000      -0.867046       -23.5935
  67   2.0000      -0.857301       -23.3283
  68   2.0000      -0.854546       -23.2534
  69   2.0000      -0.845543       -23.0084
  70   2.0000      -0.837159       -22.7802
  71   2.0000      -0.828770       -22.5520
  72   2.0000      -0.825397       -22.4602
  73   2.0000      -0.808306       -21.9951
  74   2.0000      -0.782096       -21.2819
  75   2.0000      -0.755830       -20.5672
  76   2.0000      -0.755180       -20.5495
  77   2.0000      -0.751070       -20.4376
  78   2.0000      -0.735451       -20.0126
  79   2.0000      -0.721472       -19.6322
  80   2.0000      -0.711321       -19.3560
  81   2.0000      -0.689774       -18.7697
  82   2.0000      -0.687454       -18.7066
  83   2.0000      -0.678630       -18.4665
  84   2.0000      -0.671299       -18.2670
  85   2.0000      -0.659836       -17.9550
  86   2.0000      -0.646009       -17.5788
  87   2.0000      -0.631625       -17.1874
  88   2.0000      -0.629826       -17.1384
  89   2.0000      -0.628155       -17.0930
  90   2.0000      -0.621596       -16.9145
  91   2.0000      -0.619811       -16.8659
  92   2.0000      -0.611425       -16.6377
  93   2.0000      -0.604437       -16.4476
  94   2.0000      -0.600086       -16.3292
  95   2.0000      -0.599388       -16.3102
  96   2.0000      -0.596603       -16.2344
  97   2.0000      -0.595039       -16.1918
  98   2.0000      -0.590169       -16.0593
  99   2.0000      -0.585439       -15.9306
 100   2.0000      -0.584181       -15.8964
 101   2.0000      -0.579705       -15.7746
 102   2.0000      -0.579257       -15.7624
 103   2.0000      -0.565943       -15.4001
 104   2.0000      -0.561900       -15.2901
 105   2.0000      -0.554436       -15.0870
 106   2.0000      -0.553524       -15.0621
 107   2.0000      -0.551585       -15.0094
 108   2.0000      -0.544465       -14.8156
 109   2.0000      -0.541808       -14.7433
 110   2.0000      -0.540817       -14.7164
 111   2.0000      -0.539751       -14.6874
 112   2.0000      -0.531455       -14.4616
 113   2.0000      -0.525031       -14.2868
 114   2.0000      -0.516759       -14.0617
 115   2.0000      -0.515388       -14.0244
 116   2.0000      -0.513389       -13.9700
 117   2.0000      -0.504156       -13.7188
 118   2.0000      -0.501683       -13.6515
 119   2.0000      -0.494275       -13.4499
 120   2.0000      -0.490007       -13.3338
 121   2.0000      -0.484288       -13.1781
 122   2.0000      -0.481022       -13.0893
 123   2.0000      -0.480321       -13.0702
 124   2.0000      -0.472683       -12.8623
 125   2.0000      -0.472494       -12.8572
 126   2.0000      -0.463710       -12.6182
 127   2.0000      -0.453763       -12.3475
 128   2.0000      -0.452816       -12.3218
 129   2.0000      -0.449819       -12.2402
 130   2.0000      -0.391877       -10.6635
 131   2.0000      -0.383664       -10.4400
 132   2.0000      -0.355911        -9.6848
 133   2.0000      -0.354675        -9.6512
 134   2.0000      -0.354327        -9.6417
 135   2.0000      -0.342074        -9.3083
 136   2.0000      -0.334138        -9.0924
 137   2.0000      -0.325956        -8.8697
 138   2.0000      -0.306123        -8.3300
 139   2.0000      -0.293858        -7.9963
 140   2.0000      -0.258424        -7.0321
 141   0.0000       0.054863         1.4929
 142   0.0000       0.066908         1.8207
 143   0.0000       0.075027         2.0416
 144   0.0000       0.099929         2.7192
 145   0.0000       0.103771         2.8237

E(0)                                       ...  -1656.569509644
E(0)                                       ...  -1656.569509644
E(CORR)(strong-pairs)                      ...     -6.662455099
E(CORR)(weak-pairs)                        ...     -0.016964121
E(CORR)(corrected)                         ...     -6.679419220
E(TOT)                                     ...  -1663.248928864

MULLIKEN ATOMIC CHARGES
-----------------------
   0 C :   -0.248532
   1 C :   -0.300457
   2 C :    0.146476
   3 C :   -0.023864
   4 C :   -0.323568
   5 C :    0.191007
   6 C :    0.129048
   7 C :   -0.037893
   8 C :    0.161924
   9 C :   -0.302464
  10 H :    0.171141
  11 C :   -0.251304
  12 C :    0.187492
  13 C :   -0.314777
  14 H :    0.170814
  15 H :    0.175291
  16 H :    0.164633
  17 N :    0.108768
  18 C :    0.135764
  19 C :    0.043271
  20 C :   -0.190033
  21 C :   -0.345352
  22 C :    0.099551
  23 C :   -0.129550
  24 H :    0.166496
  25 C :   -0.107547
  26 H :    0.172722
  27 C :   -0.199480
  28 C :   -0.250659
  29 H :    0.169993
  30 C :   -0.179097
  31 H :    0.170683
  32 H :    0.169205
  33 H :    0.168280
  34 H :    0.169961
  35 H :    0.175138
  36 H :    0.164538
  37 C :   -0.456054
  38 H :    0.149902
  39 H :    0.152794
  40 H :    0.154083
  41 C :   -0.452294
  42 H :    0.154118
  43 H :    0.149124
  44 H :    0.153427
  45 C :    0.116241
  46 C :   -0.215843
  47 C :   -0.223284
  48 C :   -0.233529
  49 H :    0.176283
  50 C :   -0.237329
  51 H :    0.173269
  52 C :    0.314728
  53 H :    0.182257
  54 H :    0.182900
  55 C :    0.109939
  56 C :   -0.224410
  57 C :   -0.204180
  58 C :   -0.243058
  59 H :    0.177184
  60 C :   -0.234765
  61 H :    0.173348
  62 C :    0.315477
  63 H :    0.183249
  64 H :    0.182504
  65 C :   -0.192537
  66 C :   -0.193469
  67 N :   -0.148789
  68 N :   -0.148908
Sum of atomic charges:   -0.0000006

LOEWDIN ATOMIC CHARGES
----------------------
   0 C :   -0.107901
   1 C :   -0.121761
   2 C :   -0.127485
   3 C :   -0.065500
   4 C :   -0.061643
   5 C :   -0.125707
   6 C :   -0.233473
   7 C :   -0.065504
   8 C :   -0.127508
   9 C :   -0.121628
  10 H :    0.167259
  11 C :   -0.108102
  12 C :   -0.125953
  13 C :   -0.061747
  14 H :    0.167223
  15 H :    0.167379
  16 H :    0.163007
  17 N :    0.300914
  18 C :   -0.138797
  19 C :   -0.073056
  20 C :   -0.098329
  21 C :   -0.103925
  22 C :   -0.098664
  23 C :   -0.140926
  24 H :    0.166015
  25 C :   -0.142155
  26 H :    0.164106
  27 C :   -0.105838
  28 C :   -0.100325
  29 H :    0.159245
  30 C :   -0.145175
  31 H :    0.157921
  32 H :    0.161707
  33 H :    0.162702
  34 H :    0.157329
  35 H :    0.167300
  36 H :    0.163097
  37 C :   -0.246135
  38 H :    0.129992
  39 H :    0.130073
  40 H :    0.130241
  41 C :   -0.245865
  42 H :    0.130150
  43 H :    0.129902
  44 H :    0.130125
  45 C :   -0.088759
  46 C :   -0.092230
  47 C :   -0.092559
  48 C :   -0.079377
  49 H :    0.165338
  50 C :   -0.080027
  51 H :    0.165406
  52 C :   -0.161490
  53 H :    0.168816
  54 H :    0.168821
  55 C :   -0.089028
  56 C :   -0.092809
  57 C :   -0.091951
  58 C :   -0.079979
  59 H :    0.165429
  60 C :   -0.079623
  61 H :    0.165386
  62 C :   -0.161673
  63 H :    0.168927
  64 H :    0.168825
  65 C :   -0.135177
  66 C :   -0.134983
  67 N :    0.004907
  68 N :    0.005227

  Mayer bond orders larger than 0.100000
B(  0-C ,  1-C ) :   1.3445 B(  0-C ,  5-C ) :   1.2121 B(  0-C , 36-H ) :   0.9298
B(  1-C ,  2-C ) :   1.2438 B(  1-C , 14-H ) :   0.9398 B(  2-C ,  3-C ) :   1.2021
B(  2-C , 17-N ) :   1.0820 B(  3-C ,  4-C ) :   1.2903 B(  3-C ,  6-C ) :   0.9247
B(  4-C ,  5-C ) :   1.2822 B(  4-C , 15-H ) :   0.9117 B(  5-C , 45-C ) :   0.8915
B(  6-C ,  7-C ) :   0.9293 B(  6-C , 37-C ) :   0.8507 B(  6-C , 41-C ) :   0.8509
B(  7-C ,  8-C ) :   1.2017 B(  7-C , 13-C ) :   1.2878 B(  8-C ,  9-C ) :   1.2398
B(  8-C , 17-N ) :   1.0803 B(  9-C , 10-H ) :   0.9380 B(  9-C , 11-C ) :   1.3496
B( 11-C , 12-C ) :   1.2166 B( 11-C , 16-H ) :   0.9272 B( 12-C , 13-C ) :   1.2822
B( 12-C , 55-C ) :   0.8922 B( 13-C , 35-H ) :   0.9122 B( 17-N , 18-C ) :   0.6609
B( 18-C , 19-C ) :   1.1126 B( 18-C , 20-C ) :   1.5448 B( 18-C , 21-C ) :  -0.1112
B( 18-C , 22-C ) :  -0.1145 B( 19-C , 21-C ) :   1.2080 B( 19-C , 22-C ) :   1.2350
B( 20-C , 23-C ) :   1.1473 B( 20-C , 24-H ) :   0.9385 B( 21-C , 25-C ) :   1.4268
B( 21-C , 26-H ) :   0.9259 B( 22-C , 27-C ) :   1.1738 B( 22-C , 28-C ) :   1.1479
B( 23-C , 28-C ) :   1.3671 B( 23-C , 29-H ) :   0.9399 B( 25-C , 30-C ) :   1.1324
B( 25-C , 31-H ) :   0.9361 B( 27-C , 30-C ) :   1.3956 B( 27-C , 32-H ) :   0.9379
B( 28-C , 33-H ) :   0.9445 B( 30-C , 34-H ) :   0.9372 B( 37-C , 38-H ) :   0.9278
B( 37-C , 39-H ) :   0.9198 B( 37-C , 40-H ) :   0.9204 B( 41-C , 42-H ) :   0.9200
B( 41-C , 43-H ) :   0.9270 B( 41-C , 44-H ) :   0.9193 B( 45-C , 46-C ) :   1.2599
B( 45-C , 47-C ) :   1.2692 B( 46-C , 48-C ) :   1.3648 B( 46-C , 49-H ) :   0.9217
B( 47-C , 50-C ) :   1.3600 B( 47-C , 51-H ) :   0.9261 B( 48-C , 52-C ) :   1.2282
B( 48-C , 53-H ) :   0.9330 B( 50-C , 52-C ) :   1.2156 B( 50-C , 54-H ) :   0.9347
B( 52-C , 66-C ) :   0.8597 B( 55-C , 56-C ) :   1.2701 B( 55-C , 57-C ) :   1.2566
B( 56-C , 58-C ) :   1.3664 B( 56-C , 59-H ) :   0.9209 B( 57-C , 60-C ) :   1.3612
B( 57-C , 61-H ) :   0.9253 B( 58-C , 62-C ) :   1.2176 B( 58-C , 63-H ) :   0.9339
B( 60-C , 62-C ) :   1.2281 B( 60-C , 64-H ) :   0.9331 B( 62-C , 65-C ) :   0.8589
B( 65-C , 68-N ) :   2.8440 B( 66-C , 67-N ) :   2.8440

-----------------------------------------------------------------------------
         ABSORPTION SPECTRUM VIA TRANSITION ELECTRIC DIPOLE MOMENTS
-----------------------------------------------------------------------------
State   Energy  Wavelength   fosc         T2         TX        TY        TZ
        (cm-1)    (nm)                  (au**2)     (au)      (au)      (au)
-----------------------------------------------------------------------------
   1   25288.1    395.4   1.083570051  14.10640   3.75576   0.02379   0.01021
   2   26897.4    371.8   0.000405862   0.00497   0.05951   0.03625   0.00370
   3   31617.9    316.3   0.027882602   0.29032   0.53243   0.05172   0.01085
   4   31232.2    320.2   0.386174886   4.07058   0.04084   2.00803   0.18853
   5   32521.7    307.5   0.003364921   0.03406   0.01474   0.17541   0.05297
   6   35390.4    282.6   0.000533576   0.00496   0.02608   0.03710   0.05171
   7   35434.4    282.2   0.000694412   0.00645   0.01425   0.05672   0.05460
   8   34974.3    285.9   0.010105231   0.09512   0.30550   0.01746   0.00826
   9   38462.9    260.0   0.130968665   1.12099   0.01458   1.05495   0.05965
  10   39882.2    250.7   0.339226783   2.80018   1.67166   0.06048   0.04526
  11   41899.5    238.7   0.125374273   0.98509   0.03531   0.98837   0.07236
  12   41841.7    239.0   0.018541616   0.14589   0.00293   0.35341   0.09259
  13   41732.9    239.6   0.008789300   0.06933   0.01844   0.08653   0.24347
  14   44132.8    226.6   0.333808185   2.49007   1.53774   0.23395   0.01022
  15   43371.1    230.6   0.205224219   1.55777   0.83475   0.84789   0.21338
  16   41483.2    241.1   0.027139031   0.21538   0.07190   0.25734   0.36096
  17   45138.8    221.5   0.005566197   0.04060   0.13921   0.05625   0.09189
  18   47402.7    211.0   0.242839897   1.68652   0.04493   0.80104   1.02119
  19   49354.9    202.6   0.026853123   0.17912   0.29993   0.09842   0.26749
  20   50386.1    198.5   0.614094331   4.01236   1.97437   0.04947   0.32796
  21   50642.9    197.5   0.229939405   1.49476   0.10609   1.16145   0.35914
  22   51140.6    195.5   0.102710442   0.66119   0.07060   0.14732   0.79631

FINAL SINGLE POINT ENERGY     -1663.133707756421

DIPOLE MOMENT
-------------
                                X             Y             Z
Electronic contribution:      0.01975      -0.68940      -1.75508
Nuclear contribution   :     -0.01502       3.81011       1.25834
                        -----------------------------------------
Total Dipole Moment    :      0.00472       3.12071      -0.49674
                        -----------------------------------------
Magnitude (a.u.)       :      3.16000
Magnitude (Debye)      :      8.03207

Rotational constants in cm-1:     0.003437     0.001388     0.001054
Rotational constants in MHz :   103.045994    41.609262    31.611058

                             ****ORCA TERMINATED NORMALLY****
TOTAL RUN TIME: 2 days 16 hours 16 minutes 54 seconds 757 msec
