                         Program Version 5.0.2 -  RELEASE  -
|  1> %maxcore 20000
|  2> %pal
|  3>  nprocs= 4
|  4> end
|  5> ! RI-wPBEPP86   def2-TZVP def2/J def2-TZVP/C RIJCOSX CPCM TightSCF
|  6> %TDDFT
|  7>    NROOTS   30
|  8>    dcorr 1
|  9>    TDA      FALSE
| 10> END
| 11>
| 12> %CPCM
| 13>    SMD          TRUE
| 14>    SMDsolvent   "N,N-DIMETHYLFORMAMIDE"
| 15> END
| 16>
| 17>
| 18> * xyz 0 1
| 19> C                   3.63553800    0.74494900   -0.46163900
| 20> C                   2.42107900    1.38030500   -0.58758400
| 21> C                   1.21656200    0.67285700   -0.46712700
| 22> C                   1.25819300   -0.70454500   -0.20388600
| 23> C                   2.49840900   -1.31093200   -0.07569600
| 24> C                   3.70901100   -0.62592000   -0.19895200
| 25> C                   0.00281000   -1.54830600   -0.04909500
| 26> C                  -1.25323300   -0.70909400   -0.22215700
| 27> C                  -1.21280700    0.66998300   -0.47644700
| 28> C                  -2.41813500    1.37537900   -0.60084500
| 29> H                  -2.39777200    2.43601700   -0.80861100
| 30> C                  -3.63194100    0.73875100   -0.47511300
| 31> C                  -3.70436300   -0.63530400   -0.22897100
| 32> C                  -2.49289500   -1.32003900   -0.11238600
| 33> H                   2.39954700    2.44418800   -0.77785100
| 34> H                   2.52223200   -2.37832400    0.10828800
| 35> H                  -4.53710000    1.31953600   -0.59838700
| 36> N                   0.00150800    1.33773300   -0.60209900
| 37> C                   0.00058900    2.75552300   -0.80739300
| 38> C                  -0.00882800    3.61388500    0.32010700
| 39> C                   0.00908000    3.25827500   -2.08132000
| 40> C                  -0.01719200    3.13370600    1.64772300
| 41> C                  -0.00955500    5.02295900    0.09320400
| 42> C                   0.00838700    4.64657800   -2.29571300
| 43> H                   0.01626600    2.57293000   -2.91985400
| 44> C                  -0.02609000    4.00555800    2.70413200
| 45> H                  -0.01642800    2.06468700    1.82375200
| 46> C                  -0.01886900    5.88997000    1.20767400
| 47> C                  -0.00079500    5.50832400   -1.23232900
| 48> H                   0.01512900    5.02768800   -3.30864600
| 49> C                  -0.02699800    5.39464000    2.48376800
| 50> H                  -0.03241900    3.62488100    3.71764900
| 51> H                  -0.01937300    6.95893200    1.02981200
| 52> H                  -0.00143300    6.58011600   -1.39142500
| 53> H                  -0.03406200    6.07091200    3.32919500
| 54> H                  -2.51497500   -2.38116600    0.10409700
| 55> H                   4.54022000    1.33378400   -0.54317400
| 56> C                   0.01021200   -2.66879700   -1.09901000
| 57> H                   0.01780600   -2.26135600   -2.11032800
| 58> H                   0.88754400   -3.30522900   -0.98473500
| 59> H                  -0.87016200   -3.30331800   -0.99734800
| 60> C                  -0.00416100   -2.17723100    1.35264600
| 61> H                   0.87715000   -2.80060400    1.50420300
| 62> H                  -0.01225200   -1.40924200    2.12720000
| 63> H                  -0.88163900   -2.80837100    1.49316700
| 64> C                   4.99550500   -1.31286300   -0.05513800
| 65> C                   5.11248700   -2.49254400    0.69374800
| 66> C                   6.15581300   -0.81066600   -0.66148200
| 67> C                   6.31979700   -3.14205800    0.83103800
| 68> H                   4.24431000   -2.89767900    1.19677800
| 69> C                   7.37016100   -1.44844200   -0.53239000
| 70> H                   6.10071100    0.08668400   -1.26353700
| 71> C                   7.46566300   -2.62582300    0.21681000
| 72> H                   6.38899400   -4.04685100    1.42001400
| 73> H                   8.25113800   -1.04775200   -1.01580000
| 74> C                  -4.98997200   -1.32600300   -0.09568900
| 75> C                  -5.11269100   -2.69713500   -0.36294500
| 76> C                  -6.14345800   -0.63662100    0.30504700
| 77> C                  -6.31915000   -3.35064100   -0.23732900
| 78> H                  -4.24975800   -3.25868900   -0.69612300
| 79> C                  -7.35689500   -1.27610500    0.43384200
| 80> H                  -6.08338900    0.41756100    0.54160200
| 81> C                  -7.45833400   -2.64478700    0.16363300
| 82> H                  -6.39291600   -4.40752600   -0.45633500
| 83> H                  -8.23267900   -0.72655200    0.75231700
| 84> C                  -8.70201000   -3.30886700    0.29507900
| 85> C                   8.71001100   -3.28800600    0.35229600
| 86> N                   9.72793300   -3.82989700    0.46287000
| 87> N                  -9.71948300   -3.85222800    0.40257600
| 88> *
| 89>
| 90>
| 91>                          ****END OF INPUT****

CARTESIAN COORDINATES (ANGSTROEM)
---------------------------------
  C      3.635538    0.744949   -0.461639
  C      2.421079    1.380305   -0.587584
  C      1.216562    0.672857   -0.467127
  C      1.258193   -0.704545   -0.203886
  C      2.498409   -1.310932   -0.075696
  C      3.709011   -0.625920   -0.198952
  C      0.002810   -1.548306   -0.049095
  C     -1.253233   -0.709094   -0.222157
  C     -1.212807    0.669983   -0.476447
  C     -2.418135    1.375379   -0.600845
  H     -2.397772    2.436017   -0.808611
  C     -3.631941    0.738751   -0.475113
  C     -3.704363   -0.635304   -0.228971
  C     -2.492895   -1.320039   -0.112386
  H      2.399547    2.444188   -0.777851
  H      2.522232   -2.378324    0.108288
  H     -4.537100    1.319536   -0.598387
  N      0.001508    1.337733   -0.602099
  C      0.000589    2.755523   -0.807393
  C     -0.008828    3.613885    0.320107
  C      0.009080    3.258275   -2.081320
  C     -0.017192    3.133706    1.647723
  C     -0.009555    5.022959    0.093204
  C      0.008387    4.646578   -2.295713
  H      0.016266    2.572930   -2.919854
  C     -0.026090    4.005558    2.704132
  H     -0.016428    2.064687    1.823752
  C     -0.018869    5.889970    1.207674
  C     -0.000795    5.508324   -1.232329
  H      0.015129    5.027688   -3.308646
  C     -0.026998    5.394640    2.483768
  H     -0.032419    3.624881    3.717649
  H     -0.019373    6.958932    1.029812
  H     -0.001433    6.580116   -1.391425
  H     -0.034062    6.070912    3.329195
  H     -2.514975   -2.381166    0.104097
  H      4.540220    1.333784   -0.543174
  C      0.010212   -2.668797   -1.099010
  H      0.017806   -2.261356   -2.110328
  H      0.887544   -3.305229   -0.984735
  H     -0.870162   -3.303318   -0.997348
  C     -0.004161   -2.177231    1.352646
  H      0.877150   -2.800604    1.504203
  H     -0.012252   -1.409242    2.127200
  H     -0.881639   -2.808371    1.493167
  C      4.995505   -1.312863   -0.055138
  C      5.112487   -2.492544    0.693748
  C      6.155813   -0.810666   -0.661482
  C      6.319797   -3.142058    0.831038
  H      4.244310   -2.897679    1.196778
  C      7.370161   -1.448442   -0.532390
  H      6.100711    0.086684   -1.263537
  C      7.465663   -2.625823    0.216810
  H      6.388994   -4.046851    1.420014
  H      8.251138   -1.047752   -1.015800
  C     -4.989972   -1.326003   -0.095689
  C     -5.112691   -2.697135   -0.362945
  C     -6.143458   -0.636621    0.305047
  C     -6.319150   -3.350641   -0.237329
  H     -4.249758   -3.258689   -0.696123
  C     -7.356895   -1.276105    0.433842
  H     -6.083389    0.417561    0.541602
  C     -7.458334   -2.644787    0.163633
  H     -6.392916   -4.407526   -0.456335
  H     -8.232679   -0.726552    0.752317
  C     -8.702010   -3.308867    0.295079
  C      8.710011   -3.288006    0.352296
  N      9.727933   -3.829897    0.462870
  N     -9.719483   -3.852228    0.402576

 Total Charge           Charge          ....    0
 Multiplicity           Mult            ....    1
 Number of Electrons    NEL             ....  282
 Basis Dimension        Dim             .... 1464

ORBITAL ENERGIES
----------------

  NO   OCC          E(Eh)            E(eV)
   0   2.0000     -15.171847      -412.8470
   1   2.0000     -15.143729      -412.0818
   2   2.0000     -15.143585      -412.0779
   3   2.0000     -10.923678      -297.2484
   4   2.0000     -10.923657      -297.2478
   5   2.0000     -10.923588      -297.2459
   6   2.0000     -10.923582      -297.2458
   7   2.0000     -10.913144      -296.9618
   8   2.0000     -10.909115      -296.8521
   9   2.0000     -10.908912      -296.8466
  10   2.0000     -10.899393      -296.5876
  11   2.0000     -10.899116      -296.5800
  12   2.0000     -10.889839      -296.3276
  13   2.0000     -10.889774      -296.3258
  14   2.0000     -10.889604      -296.3212
  15   2.0000     -10.889535      -296.3193
  16   2.0000     -10.887823      -296.2727
  17   2.0000     -10.885106      -296.1988
  18   2.0000     -10.883698      -296.1605
  19   2.0000     -10.876332      -295.9601
  20   2.0000     -10.876189      -295.9561
  21   2.0000     -10.876102      -295.9538
  22   2.0000     -10.876056      -295.9525
  23   2.0000     -10.875416      -295.9351
  24   2.0000     -10.875337      -295.9330
  25   2.0000     -10.875189      -295.9289
  26   2.0000     -10.875048      -295.9251
  27   2.0000     -10.873922      -295.8945
  28   2.0000     -10.873241      -295.8759
  29   2.0000     -10.871418      -295.8263
  30   2.0000     -10.871247      -295.8217
  31   2.0000     -10.871056      -295.8165
  32   2.0000     -10.871014      -295.8153
  33   2.0000     -10.870876      -295.8116
  34   2.0000     -10.870805      -295.8096
  35   2.0000     -10.870742      -295.8079
  36   2.0000     -10.869865      -295.7841
  37   2.0000     -10.868507      -295.7471
  38   2.0000     -10.864663      -295.6425
  39   2.0000     -10.864585      -295.6404
  40   2.0000     -10.841337      -295.0078
  41   2.0000     -10.841230      -295.0049
  42   2.0000      -1.236636       -33.6506
  43   2.0000      -1.164248       -31.6808
  44   2.0000      -1.164107       -31.6770
  45   2.0000      -1.126063       -30.6417
  46   2.0000      -1.122486       -30.5444
  47   2.0000      -1.118300       -30.4305
  48   2.0000      -1.098674       -29.8964
  49   2.0000      -1.096426       -29.8353
  50   2.0000      -1.058658       -28.8075
  51   2.0000      -1.052254       -28.6333
  52   2.0000      -1.026011       -27.9192
  53   2.0000      -1.009788       -27.4777
  54   2.0000      -0.997292       -27.1377
  55   2.0000      -0.982961       -26.7477
  56   2.0000      -0.981401       -26.7053
  57   2.0000      -0.971500       -26.4359
  58   2.0000      -0.964177       -26.2366
  59   2.0000      -0.961015       -26.1505
  60   2.0000      -0.947104       -25.7720
  61   2.0000      -0.943547       -25.6752
  62   2.0000      -0.915995       -24.9255
  63   2.0000      -0.884175       -24.0596
  64   2.0000      -0.862470       -23.4690
  65   2.0000      -0.854730       -23.2584
  66   2.0000      -0.829459       -22.5707
  67   2.0000      -0.820116       -22.3165
  68   2.0000      -0.818706       -22.2781
  69   2.0000      -0.809265       -22.0212
  70   2.0000      -0.801768       -21.8172
  71   2.0000      -0.794840       -21.6287
  72   2.0000      -0.792214       -21.5572
  73   2.0000      -0.774369       -21.0717
  74   2.0000      -0.751433       -20.4475
  75   2.0000      -0.729770       -19.8580
  76   2.0000      -0.728762       -19.8306
  77   2.0000      -0.722568       -19.6621
  78   2.0000      -0.714158       -19.4332
  79   2.0000      -0.699162       -19.0252
  80   2.0000      -0.685113       -18.6429
  81   2.0000      -0.665472       -18.1084
  82   2.0000      -0.664712       -18.0877
  83   2.0000      -0.655834       -17.8462
  84   2.0000      -0.650811       -17.7095
  85   2.0000      -0.639995       -17.4152
  86   2.0000      -0.625277       -17.0147
  87   2.0000      -0.612693       -16.6722
  88   2.0000      -0.609746       -16.5920
  89   2.0000      -0.608908       -16.5692
  90   2.0000      -0.602246       -16.3880
  91   2.0000      -0.599186       -16.3047
  92   2.0000      -0.591672       -16.1002
  93   2.0000      -0.585021       -15.9192
  94   2.0000      -0.582957       -15.8631
  95   2.0000      -0.579749       -15.7758
  96   2.0000      -0.577846       -15.7240
  97   2.0000      -0.575626       -15.6636
  98   2.0000      -0.571980       -15.5644
  99   2.0000      -0.569094       -15.4858
 100   2.0000      -0.564873       -15.3710
 101   2.0000      -0.559689       -15.2299
 102   2.0000      -0.556522       -15.1437
 103   2.0000      -0.548992       -14.9388
 104   2.0000      -0.547452       -14.8969
 105   2.0000      -0.547206       -14.8902
 106   2.0000      -0.540727       -14.7139
 107   2.0000      -0.536462       -14.5979
 108   2.0000      -0.533851       -14.5268
 109   2.0000      -0.532955       -14.5024
 110   2.0000      -0.528882       -14.3916
 111   2.0000      -0.524697       -14.2777
 112   2.0000      -0.515212       -14.0196
 113   2.0000      -0.509395       -13.8613
 114   2.0000      -0.506931       -13.7943
 115   2.0000      -0.501776       -13.6540
 116   2.0000      -0.501257       -13.6399
 117   2.0000      -0.496972       -13.5233
 118   2.0000      -0.492574       -13.4036
 119   2.0000      -0.482337       -13.1251
 120   2.0000      -0.480517       -13.0755
 121   2.0000      -0.478831       -13.0296
 122   2.0000      -0.471000       -12.8166
 123   2.0000      -0.468372       -12.7451
 124   2.0000      -0.466382       -12.6909
 125   2.0000      -0.465578       -12.6690
 126   2.0000      -0.460087       -12.5196
 127   2.0000      -0.452755       -12.3201
 128   2.0000      -0.449870       -12.2416
 129   2.0000      -0.439431       -11.9575
 130   2.0000      -0.401934       -10.9372
 131   2.0000      -0.394436       -10.7331
 132   2.0000      -0.368267       -10.0210
 133   2.0000      -0.368007       -10.0140
 134   2.0000      -0.366548        -9.9743
 135   2.0000      -0.355274        -9.6675
 136   2.0000      -0.347024        -9.4430
 137   2.0000      -0.342526        -9.3206
 138   2.0000      -0.322739        -8.7822
 139   2.0000      -0.310680        -8.4540
 140   2.0000      -0.272948        -7.4273
 141   0.0000       0.011332         0.3084
 142   0.0000       0.023408         0.6370
 143   0.0000       0.031012         0.8439
 144   0.0000       0.056649         1.5415
 145   0.0000       0.060158         1.6370

MULLIKEN ATOMIC CHARGES
-----------------------
   0 C :   -0.240605
   1 C :   -0.337422
   2 C :    0.233143
   3 C :   -0.158447
   4 C :   -0.295841
   5 C :    0.136092
   6 C :    0.177058
   7 C :   -0.169345
   8 C :    0.235291
   9 C :   -0.335992
  10 H :    0.197476
  11 C :   -0.241824
  12 C :    0.128808
  13 C :   -0.288186
  14 H :    0.198012
  15 H :    0.209704
  16 H :    0.187841
  17 N :    0.099526
  18 C :    0.050470
  19 C :    0.071900
  20 C :   -0.179619
  21 C :   -0.362950
  22 C :    0.080674
  23 C :   -0.145741
  24 H :    0.185467
  25 C :   -0.129559
  26 H :    0.202756
  27 C :   -0.213000
  28 C :   -0.266291
  29 H :    0.186989
  30 C :   -0.194479
  31 H :    0.187101
  32 H :    0.187683
  33 H :    0.186715
  34 H :    0.186600
  35 H :    0.208771
  36 H :    0.186872
  37 C :   -0.455868
  38 H :    0.158560
  39 H :    0.159489
  40 H :    0.160154
  41 C :   -0.455308
  42 H :    0.160911
  43 H :    0.158933
  44 H :    0.159948
  45 C :    0.114497
  46 C :   -0.240170
  47 C :   -0.235573
  48 C :   -0.241046
  49 H :    0.198618
  50 C :   -0.241289
  51 H :    0.195145
  52 C :    0.299196
  53 H :    0.201036
  54 H :    0.201184
  55 C :    0.125041
  56 C :   -0.247305
  57 C :   -0.234485
  58 C :   -0.240621
  59 H :    0.199985
  60 C :   -0.242289
  61 H :    0.193587
  62 C :    0.298072
  63 H :    0.201268
  64 H :    0.201970
  65 C :   -0.120574
  66 C :   -0.118582
  67 N :   -0.241035
  68 N :   -0.239095
Sum of atomic charges:   -0.0000000

LOEWDIN ATOMIC CHARGES
----------------------
   0 C :   -0.100310
   1 C :   -0.124218
   2 C :   -0.120907
   3 C :   -0.069480
   4 C :   -0.055273
   5 C :   -0.131686
   6 C :   -0.241311
   7 C :   -0.069441
   8 C :   -0.120918
   9 C :   -0.124102
  10 H :    0.168335
  11 C :   -0.100564
  12 C :   -0.131931
  13 C :   -0.055264
  14 H :    0.168285
  15 H :    0.168293
  16 H :    0.164347
  17 N :    0.285736
  18 C :   -0.143466
  19 C :   -0.074884
  20 C :   -0.095119
  21 C :   -0.104279
  22 C :   -0.102161
  23 C :   -0.142444
  24 H :    0.167634
  25 C :   -0.141613
  26 H :    0.165437
  27 C :   -0.104866
  28 C :   -0.097908
  29 H :    0.160059
  30 C :   -0.146728
  31 H :    0.158914
  32 H :    0.162933
  33 H :    0.163964
  34 H :    0.158312
  35 H :    0.168245
  36 H :    0.164387
  37 C :   -0.240017
  38 H :    0.129750
  39 H :    0.129264
  40 H :    0.129382
  41 C :   -0.239910
  42 H :    0.129357
  43 H :    0.129825
  44 H :    0.129216
  45 C :   -0.085068
  46 C :   -0.096231
  47 C :   -0.096101
  48 C :   -0.071202
  49 H :    0.166116
  50 C :   -0.071169
  51 H :    0.166269
  52 C :   -0.166568
  53 H :    0.170620
  54 H :    0.170650
  55 C :   -0.085195
  56 C :   -0.096296
  57 C :   -0.096177
  58 C :   -0.071190
  59 H :    0.166245
  60 C :   -0.071350
  61 H :    0.166148
  62 C :   -0.166757
  63 H :    0.170666
  64 H :    0.170714
  65 C :   -0.124775
  66 C :   -0.124550
  67 N :   -0.023997
  68 N :   -0.023676

  Mayer bond orders larger than 0.100000
B(  0-C ,  1-C ) :   1.4990 B(  0-C ,  5-C ) :   1.3305 B(  0-C , 36-H ) :   0.9533
B(  1-C ,  2-C ) :   1.3264 B(  1-C , 14-H ) :   0.9738 B(  2-C ,  3-C ) :   1.3007
B(  2-C , 17-N ) :   1.1225 B(  3-C ,  4-C ) :   1.4124 B(  3-C ,  6-C ) :   0.9756
B(  4-C ,  5-C ) :   1.4147 B(  4-C , 15-H ) :   0.9137 B(  5-C , 45-C ) :   0.9259
B(  6-C ,  7-C ) :   0.9735 B(  6-C , 37-C ) :   0.9166 B(  6-C , 41-C ) :   0.9105
B(  7-C ,  8-C ) :   1.3007 B(  7-C , 13-C ) :   1.4094 B(  8-C ,  9-C ) :   1.3242
B(  8-C , 17-N ) :   1.1236 B(  9-C , 10-H ) :   0.9745 B(  9-C , 11-C ) :   1.5018
B( 11-C , 12-C ) :   1.3308 B( 11-C , 16-H ) :   0.9514 B( 12-C , 13-C ) :   1.4142
B( 12-C , 55-C ) :   0.9293 B( 13-C , 35-H ) :   0.9147 B( 17-N , 18-C ) :   0.7301
B( 18-C , 19-C ) :   1.1671 B( 18-C , 20-C ) :   1.6849 B( 18-C , 21-C ) :  -0.1006
B( 18-C , 22-C ) :  -0.1131 B( 19-C , 21-C ) :   1.2594 B( 19-C , 22-C ) :   1.2919
B( 20-C , 23-C ) :   1.2284 B( 20-C , 24-H ) :   0.9777 B( 21-C , 25-C ) :   1.5726
B( 21-C , 26-H ) :   0.9611 B( 22-C , 27-C ) :   1.2611 B( 22-C , 28-C ) :   1.2354
B( 23-C , 28-C ) :   1.5078 B( 23-C , 29-H ) :   0.9831 B( 25-C , 30-C ) :   1.2293
B( 25-C , 31-H ) :   0.9771 B( 27-C , 30-C ) :   1.5359 B( 27-C , 32-H ) :   0.9712
B( 28-C , 33-H ) :   0.9770 B( 30-C , 34-H ) :   0.9783 B( 37-C , 38-H ) :   0.9778
B( 37-C , 39-H ) :   0.9668 B( 37-C , 40-H ) :   0.9668 B( 41-C , 42-H ) :   0.9660
B( 41-C , 43-H ) :   0.9771 B( 41-C , 44-H ) :   0.9661 B( 45-C , 46-C ) :   1.3622
B( 45-C , 47-C ) :   1.3589 B( 46-C , 48-C ) :   1.4898 B( 46-C , 49-H ) :   0.9525
B( 47-C , 50-C ) :   1.4869 B( 47-C , 51-H ) :   0.9592 B( 48-C , 52-C ) :   1.3196
B( 48-C , 53-H ) :   0.9705 B( 50-C , 52-C ) :   1.3176 B( 50-C , 54-H ) :   0.9709
B( 52-C , 66-C ) :   0.9532 B( 55-C , 56-C ) :   1.3598 B( 55-C , 57-C ) :   1.3552
B( 56-C , 58-C ) :   1.4917 B( 56-C , 59-H ) :   0.9524 B( 57-C , 60-C ) :   1.4891
B( 57-C , 61-H ) :   0.9594 B( 58-C , 62-C ) :   1.3201 B( 58-C , 63-H ) :   0.9698
B( 60-C , 62-C ) :   1.3165 B( 60-C , 64-H ) :   0.9698 B( 62-C , 65-C ) :   0.9551
B( 65-C , 68-N ) :   2.9882 B( 66-C , 67-N ) :   2.9890

MP2 TOTAL ENERGY:    -1665.961590206 Eh

-----------------------------------------------------------------------------
         ABSORPTION SPECTRUM VIA TRANSITION ELECTRIC DIPOLE MOMENTS
-----------------------------------------------------------------------------
State   Energy    Wavelength  fosc         T2        TX        TY        TZ
        (cm-1)      (nm)                 (au**2)    (au)      (au)      (au)
-----------------------------------------------------------------------------
   1   28635.6    349.2   1.551430476  17.83614  -4.22323  -0.01593  -0.01546
   2   33597.9    297.6   0.543916610   5.32961  -0.01732   2.29463  -0.25297
   3   37302.8    268.1   0.066301455   0.58514   0.00005  -0.76227   0.06389
   4   33907.8    294.9   0.124028917   1.20420   0.02221  -1.08883   0.13472
   5   35130.2    284.7   0.002480015   0.02324   0.05004  -0.13927  -0.03661
   6   32873.8    304.2   0.045690453   0.45756   0.66983   0.09387   0.00862
   7   32630.4    306.5   0.031739773   0.32023   0.56374  -0.04819   0.00990
   8   38134.6    262.2   0.004319855   0.03729  -0.00193   0.18766  -0.04552
   9   38263.9    261.3   0.011310964   0.09732   0.22625   0.03758   0.21146
  10   41382.1    241.7   0.241088879   1.91796   1.38466  -0.00215  -0.02619
  11   44659.3    223.9   0.167456798   1.23443   0.00346   0.27339   1.07688
  12   42128.1    237.4   0.019694673   0.15390   0.37969  -0.01817   0.09701
  13   45414.7    220.2   1.186972041   8.60438  -0.03231  -0.95769  -2.77239
  14   43447.8    230.2   0.029749275   0.22542  -0.00298   0.12230  -0.45875
  15   41320.3    242.0   0.059870917   0.47701   0.16367  -0.15793  -0.65214
  16   45444.7    220.0   0.107393906   0.77799  -0.00100   0.68228  -0.55900
  17   48587.8    205.8   1.372223843   9.29764  -3.04598   0.04730   0.13194
  18   44761.9    223.4   0.537279612   3.95155  -0.03662  -1.95447   0.36091
  19   45407.3    220.2   0.176475256   1.27948   0.93052  -0.19397  -0.61318
  20   48597.2    205.8   0.927001735   6.27979  -0.03022  -2.44849   0.53272
  21   50350.2    198.6   0.004964464   0.03246   0.00842   0.16972  -0.05986
  22   45334.7    220.6   0.056086953   0.40729  -0.11208   0.41186  -0.47445
  23   47331.6    211.3   0.094596688   0.65796  -0.71882  -0.32489   0.18894
  24   49525.8    201.9   0.158501675   1.05361  -0.12557   1.00951  -0.13682
  25   49854.3    200.6   0.022856933   0.15094   0.21558  -0.01715   0.32275
  26   56286.4    177.7   0.000248860   0.00146   0.00652  -0.02890   0.02404
  27   56283.7    177.7   0.000381726   0.00223  -0.00733  -0.04320  -0.01768
  28   49804.9    200.8   0.957601273   6.32977   2.51533  -0.01097   0.05244
  29   52398.9    190.8   0.018312876   0.11506   0.02544   0.33242   0.06248
  30   51066.0    195.8   0.001740757   0.01122   0.03481   0.06837  -0.07305

FINAL SINGLE POINT ENERGY     -1662.391481528177

DIPOLE MOMENT
-------------
                                X             Y             Z
Electronic contribution:      0.02198      -0.49556      -1.80394
Nuclear contribution   :     -0.01502       3.81011       1.25834
                        -----------------------------------------
Total Dipole Moment    :      0.00696       3.31455      -0.54560
                        -----------------------------------------
Magnitude (a.u.)       :      3.35916
Magnitude (Debye)      :      8.53832

Rotational constants in cm-1:     0.003437     0.001388     0.001054
Rotational constants in MHz :   103.045994    41.609262    31.611058

                             ****ORCA TERMINATED NORMALLY****
TOTAL RUN TIME: 1 days 6 hours 53 minutes 5 seconds 965 msec
