                         Program Version 5.0.2 -  RELEASE  -
|  1> %maxcore 20000
|  2> %pal
|  3>  nprocs= 4
|  4> end
|  5> ! RI-wPBEPP86   def2-TZVP def2/J def2-TZVP/C RIJCOSX CPCM TightSCF
|  6> %TDDFT
|  7>    NROOTS   30
|  8>    dcorr 1
|  9>    TDA      FALSE
| 10> END
| 11>
| 12> %CPCM
| 13>    SMD          TRUE
| 14>    SMDsolvent   "ACETONITRILE"
| 15> END
| 16>
| 17>
| 18> * xyz 1 1
| 19> C                  -0.99815600   -3.59492200    0.24638100
| 20> C                  -1.67788100   -2.40979500    0.17633400
| 21> C                  -0.96971200   -1.19623700    0.12146300
| 22> C                   0.45725200   -1.20773700    0.11133000
| 23> C                   1.11251800   -2.46141800    0.21572500
| 24> C                   0.40645600   -3.62559900    0.27957300
| 25> C                   1.16289900    0.00657700    0.02600200
| 26> C                   0.44603300    1.21608400   -0.02810600
| 27> C                  -0.97992300    1.19540200    0.02317300
| 28> C                  -1.69757800    2.40447500    0.00145200
| 29> H                  -2.77527400    2.38913800    0.05955700
| 30> C                  -1.02900200    3.59407800   -0.09559500
| 31> C                   0.37259700    3.63375600   -0.19007200
| 32> C                   1.08807000    2.47405500   -0.15897900
| 33> H                  -1.55633400   -4.52108300    0.28830500
| 34> H                  -2.75720700   -2.40121200    0.16548000
| 35> H                   2.19194000   -2.47972300    0.25387900
| 36> H                   0.92335900   -4.57190200    0.36113100
| 37> H                  -1.59429400    4.51673400   -0.11106000
| 38> H                   0.87938100    4.58347900   -0.29275400
| 39> H                   2.16461600    2.49898500   -0.24432400
| 40> N                  -1.63780300   -0.00275000    0.08515800
| 41> C                   2.63708300    0.01059200   -0.00613700
| 42> C                   3.32575700   -0.60525700   -1.05285100
| 43> C                   3.36658900    0.62850000    1.01037300
| 44> C                   4.70822600   -0.59090000   -1.08002000
| 45> C                   4.74961300    0.61413500    0.98144300
| 46> C                   5.45609800    0.01064800   -0.06250800
| 47> H                   5.22392100   -1.06167700   -1.90834200
| 48> H                   5.27930300    1.09415300    1.79808800
| 49> H                   2.76772500   -1.08182200   -1.84966000
| 50> H                   2.84234400    1.10538600    1.82941400
| 51> C                  -3.08481100   -0.00716300    0.11213200
| 52> C                  -3.78865400    0.00084400   -1.07706800
| 53> C                  -3.74597100   -0.01701900    1.33251500
| 54> C                  -5.17489700   -0.00000500   -1.05937300
| 55> H                  -3.25448900    0.00878600   -2.01882500
| 56> C                  -5.12446300   -0.01807800    1.35656000
| 57> H                  -3.17810500   -0.02360900    2.25417100
| 58> C                  -5.84899100   -0.00891000    0.16146500
| 59> H                  -5.71859800    0.00631500   -1.99286200
| 60> H                  -5.66148600   -0.02492100    2.29574700
| 61> O                  -7.19054800   -0.00914000    0.28675300
| 62> C                  -7.96491700    0.00239400   -0.90361400
| 63> H                  -9.00420200    0.00215400   -0.58782900
| 64> H                  -7.76999600    0.89748800   -1.49802800
| 65> H                  -7.77408300   -0.88356300   -1.51286000
| 66> B                   7.01824700   -0.00761200   -0.11345300
| 67> O                   7.82596900    0.50635800    0.86212300
| 68> H                   7.34866700    0.88524900    1.60754600
| 69> O                   7.61392700   -0.57547400   -1.20247400
| 70> H                   8.57600500   -0.54598500   -1.14644000
| 71> *
| 72>
| 73>
| 74>                          ****END OF INPUT****

CARTESIAN COORDINATES (ANGSTROEM)
---------------------------------
  C     -0.998156   -3.594922    0.246381
  C     -1.677881   -2.409795    0.176334
  C     -0.969712   -1.196237    0.121463
  C      0.457252   -1.207737    0.111330
  C      1.112518   -2.461418    0.215725
  C      0.406456   -3.625599    0.279573
  C      1.162899    0.006577    0.026002
  C      0.446033    1.216084   -0.028106
  C     -0.979923    1.195402    0.023173
  C     -1.697578    2.404475    0.001452
  H     -2.775274    2.389138    0.059557
  C     -1.029002    3.594078   -0.095595
  C      0.372597    3.633756   -0.190072
  C      1.088070    2.474055   -0.158979
  H     -1.556334   -4.521083    0.288305
  H     -2.757207   -2.401212    0.165480
  H      2.191940   -2.479723    0.253879
  H      0.923359   -4.571902    0.361131
  H     -1.594294    4.516734   -0.111060
  H      0.879381    4.583479   -0.292754
  H      2.164616    2.498985   -0.244324
  N     -1.637803   -0.002750    0.085158
  C      2.637083    0.010592   -0.006137
  C      3.325757   -0.605257   -1.052851
  C      3.366589    0.628500    1.010373
  C      4.708226   -0.590900   -1.080020
  C      4.749613    0.614135    0.981443
  C      5.456098    0.010648   -0.062508
  H      5.223921   -1.061677   -1.908342
  H      5.279303    1.094153    1.798088
  H      2.767725   -1.081822   -1.849660
  H      2.842344    1.105386    1.829414
  C     -3.084811   -0.007163    0.112132
  C     -3.788654    0.000844   -1.077068
  C     -3.745971   -0.017019    1.332515
  C     -5.174897   -0.000005   -1.059373
  H     -3.254489    0.008786   -2.018825
  C     -5.124463   -0.018078    1.356560
  H     -3.178105   -0.023609    2.254171
  C     -5.848991   -0.008910    0.161465
  H     -5.718598    0.006315   -1.992862
  H     -5.661486   -0.024921    2.295747
  O     -7.190548   -0.009140    0.286753
  C     -7.964917    0.002394   -0.903614
  H     -9.004202    0.002154   -0.587829
  H     -7.769996    0.897488   -1.498028
  H     -7.774083   -0.883563   -1.512860
  B      7.018247   -0.007612   -0.113453
  O      7.825969    0.506358    0.862123
  H      7.348667    0.885249    1.607546
  O      7.613927   -0.575474   -1.202474
  H      8.576005   -0.545985   -1.146440

 Total Charge           Charge          ....    1
 Multiplicity           Mult            ....    1
 Number of Electrons    NEL             ....  212
 Basis Dimension        Dim             .... 1087

ORBITAL ENERGIES
----------------

  NO   OCC          E(Eh)            E(eV)
   0   2.0000     -20.094809      -546.8075
   1   2.0000     -20.069960      -546.1314
   2   2.0000     -20.064983      -545.9959
   3   2.0000     -15.238076      -414.6491
   4   2.0000     -10.965132      -298.3764
   5   2.0000     -10.965094      -298.3754
   6   2.0000     -10.953606      -298.0628
   7   2.0000     -10.945781      -297.8498
   8   2.0000     -10.919154      -297.1253
   9   2.0000     -10.915040      -297.0133
  10   2.0000     -10.915020      -297.0128
  11   2.0000     -10.904003      -296.7130
  12   2.0000     -10.902663      -296.6765
  13   2.0000     -10.898624      -296.5666
  14   2.0000     -10.898603      -296.5661
  15   2.0000     -10.894662      -296.4588
  16   2.0000     -10.894646      -296.4584
  17   2.0000     -10.887636      -296.2677
  18   2.0000     -10.886655      -296.2409
  19   2.0000     -10.885802      -296.2177
  20   2.0000     -10.885782      -296.2172
  21   2.0000     -10.882665      -296.1324
  22   2.0000     -10.881814      -296.1092
  23   2.0000     -10.881447      -296.0992
  24   2.0000     -10.881431      -296.0988
  25   2.0000     -10.881122      -296.0904
  26   2.0000     -10.878091      -296.0079
  27   2.0000     -10.875156      -295.9280
  28   2.0000     -10.873729      -295.8892
  29   2.0000     -10.864608      -295.6410
  30   2.0000      -7.346043      -199.8960
  31   2.0000      -1.341483       -36.5036
  32   2.0000      -1.303633       -35.4737
  33   2.0000      -1.285804       -34.9885
  34   2.0000      -1.264836       -34.4179
  35   2.0000      -1.144884       -31.1539
  36   2.0000      -1.126744       -30.6603
  37   2.0000      -1.110765       -30.2255
  38   2.0000      -1.096733       -29.8436
  39   2.0000      -1.063770       -28.9466
  40   2.0000      -1.012043       -27.5391
  41   2.0000      -0.997799       -27.1515
  42   2.0000      -0.994226       -27.0543
  43   2.0000      -0.985398       -26.8140
  44   2.0000      -0.977933       -26.6109
  45   2.0000      -0.975831       -26.5537
  46   2.0000      -0.958885       -26.0926
  47   2.0000      -0.906684       -24.6721
  48   2.0000      -0.887214       -24.1423
  49   2.0000      -0.859911       -23.3994
  50   2.0000      -0.847275       -23.0555
  51   2.0000      -0.818394       -22.2696
  52   2.0000      -0.808031       -21.9876
  53   2.0000      -0.802130       -21.8271
  54   2.0000      -0.798975       -21.7412
  55   2.0000      -0.768480       -20.9114
  56   2.0000      -0.748214       -20.3599
  57   2.0000      -0.747243       -20.3335
  58   2.0000      -0.736437       -20.0395
  59   2.0000      -0.722214       -19.6524
  60   2.0000      -0.714847       -19.4520
  61   2.0000      -0.697346       -18.9757
  62   2.0000      -0.683331       -18.5944
  63   2.0000      -0.672909       -18.3108
  64   2.0000      -0.662981       -18.0406
  65   2.0000      -0.646714       -17.5980
  66   2.0000      -0.643368       -17.5069
  67   2.0000      -0.639337       -17.3973
  68   2.0000      -0.632281       -17.2052
  69   2.0000      -0.622753       -16.9460
  70   2.0000      -0.610397       -16.6097
  71   2.0000      -0.610095       -16.6015
  72   2.0000      -0.605806       -16.4848
  73   2.0000      -0.604820       -16.4580
  74   2.0000      -0.599664       -16.3177
  75   2.0000      -0.595269       -16.1981
  76   2.0000      -0.585864       -15.9422
  77   2.0000      -0.583351       -15.8738
  78   2.0000      -0.575709       -15.6658
  79   2.0000      -0.561050       -15.2670
  80   2.0000      -0.556786       -15.1509
  81   2.0000      -0.550965       -14.9925
  82   2.0000      -0.544119       -14.8062
  83   2.0000      -0.538937       -14.6652
  84   2.0000      -0.536237       -14.5918
  85   2.0000      -0.528917       -14.3926
  86   2.0000      -0.527524       -14.3546
  87   2.0000      -0.517460       -14.0808
  88   2.0000      -0.512878       -13.9561
  89   2.0000      -0.506368       -13.7790
  90   2.0000      -0.500565       -13.6211
  91   2.0000      -0.492100       -13.3907
  92   2.0000      -0.488029       -13.2799
  93   2.0000      -0.481839       -13.1115
  94   2.0000      -0.480312       -13.0700
  95   2.0000      -0.470448       -12.8015
  96   2.0000      -0.466814       -12.7026
  97   2.0000      -0.464200       -12.6315
  98   2.0000      -0.439873       -11.9695
  99   2.0000      -0.389543       -10.6000
 100   2.0000      -0.368747       -10.0341
 101   2.0000      -0.365377        -9.9424
 102   2.0000      -0.364398        -9.9158
 103   2.0000      -0.358972        -9.7681
 104   2.0000      -0.338312        -9.2059
 105   2.0000      -0.328025        -8.9260
 106   0.0000      -0.045146        -1.2285
 107   0.0000       0.034154         0.9294
 108   0.0000       0.039261         1.0683
 109   0.0000       0.054665         1.4875
 110   0.0000       0.072036         1.9602

MULLIKEN ATOMIC CHARGES
-----------------------
   0 C :   -0.106015
   1 C :   -0.281714
   2 C :    0.213324
   3 C :    0.073475
   4 C :   -0.263286
   5 C :   -0.186407
   6 C :    0.341799
   7 C :    0.073946
   8 C :    0.213108
   9 C :   -0.282295
  10 H :    0.215182
  11 C :   -0.104979
  12 C :   -0.186211
  13 C :   -0.263542
  14 H :    0.201379
  15 H :    0.215414
  16 H :    0.224167
  17 H :    0.196878
  18 H :    0.201508
  19 H :    0.196764
  20 H :    0.223868
  21 N :    0.157932
  22 C :   -0.040556
  23 C :   -0.280148
  24 C :   -0.303535
  25 C :   -0.208778
  26 C :   -0.257925
  27 C :    0.039359
  28 H :    0.188563
  29 H :    0.174887
  30 H :    0.205523
  31 H :    0.206378
  32 C :   -0.050761
  33 C :   -0.253514
  34 C :   -0.223246
  35 C :   -0.250366
  36 H :    0.198643
  37 C :   -0.220581
  38 H :    0.195537
  39 C :    0.381641
  40 H :    0.204657
  41 H :    0.185583
  42 O :   -0.320979
  43 C :   -0.269441
  44 H :    0.175059
  45 H :    0.161793
  46 H :    0.161836
  47 B :    0.438892
  48 O :   -0.526832
  49 H :    0.379213
  50 O :   -0.546808
  51 H :    0.381607
Sum of atomic charges:    1.0000000

LOEWDIN ATOMIC CHARGES
----------------------
   0 C :   -0.079318
   1 C :   -0.104641
   2 C :   -0.057390
   3 C :   -0.057414
   4 C :   -0.061816
   5 C :   -0.130753
   6 C :    0.066479
   7 C :   -0.057424
   8 C :   -0.057250
   9 C :   -0.104581
  10 H :    0.175215
  11 C :   -0.079303
  12 C :   -0.130874
  13 C :   -0.061837
  14 H :    0.169613
  15 H :    0.175207
  16 H :    0.175235
  17 H :    0.164697
  18 H :    0.169609
  19 H :    0.164677
  20 H :    0.175175
  21 N :    0.356030
  22 C :   -0.100709
  23 C :   -0.089630
  24 C :   -0.089838
  25 C :   -0.076409
  26 C :   -0.085167
  27 C :   -0.070239
  28 H :    0.167235
  29 H :    0.163998
  30 H :    0.169518
  31 H :    0.169771
  32 C :   -0.183409
  33 C :   -0.088764
  34 C :   -0.091990
  35 C :   -0.129378
  36 H :    0.172546
  37 C :   -0.112486
  38 H :    0.172097
  39 C :   -0.239870
  40 H :    0.167156
  41 H :    0.164483
  42 O :    0.209412
  43 C :   -0.306344
  44 H :    0.121020
  45 H :    0.117195
  46 H :    0.117181
  47 B :   -0.824440
  48 O :    0.156396
  49 H :    0.224521
  50 O :    0.158660
  51 H :    0.228146

  Mayer bond orders larger than 0.100000
B(  0-C ,  1-C ) :   1.5408 B(  0-C ,  5-C ) :   1.2154 B(  0-C , 14-H ) :   0.9632
B(  1-C ,  2-C ) :   1.2276 B(  1-C , 15-H ) :   0.9606 B(  2-C ,  3-C ) :   1.2799
B(  2-C , 21-N ) :   1.2370 B(  3-C ,  4-C ) :   1.1767 B(  3-C ,  6-C ) :   1.2143
B(  4-C ,  5-C ) :   1.6023 B(  4-C , 16-H ) :   0.9421 B(  5-C , 17-H ) :   0.9734
B(  6-C ,  7-C ) :   1.2146 B(  6-C , 22-C ) :   0.8116 B(  7-C ,  8-C ) :   1.2797
B(  7-C , 13-C ) :   1.1777 B(  8-C ,  9-C ) :   1.2272 B(  8-C , 21-N ) :   1.2370
B(  9-C , 10-H ) :   0.9608 B(  9-C , 11-C ) :   1.5408 B( 11-C , 12-C ) :   1.2156
B( 11-C , 18-H ) :   0.9629 B( 12-C , 13-C ) :   1.6012 B( 12-C , 19-H ) :   0.9735
B( 13-C , 20-H ) :   0.9424 B( 21-N , 32-C ) :   0.7257 B( 22-C , 23-C ) :   1.3580
B( 22-C , 24-C ) :   1.3697 B( 23-C , 25-C ) :   1.4275 B( 23-C , 30-H ) :   0.9829
B( 24-C , 26-C ) :   1.4636 B( 24-C , 31-H ) :   0.9795 B( 25-C , 27-C ) :   1.3508
B( 25-C , 28-H ) :   0.9709 B( 26-C , 27-C ) :   1.3480 B( 26-C , 29-H ) :   0.9668
B( 27-C , 47-B ) :   1.0059 B( 32-C , 33-C ) :   1.5301 B( 32-C , 34-C ) :   1.4725
B( 33-C , 35-C ) :   1.3964 B( 33-C , 36-H ) :   0.9634 B( 34-C , 37-C ) :   1.4584
B( 34-C , 38-H ) :   0.9783 B( 35-C , 39-C ) :   1.3171 B( 35-C , 40-H ) :   0.9538
B( 37-C , 39-C ) :   1.3235 B( 37-C , 41-H ) :   0.9828 B( 39-C , 42-O ) :   1.1246
B( 42-O , 43-C ) :   0.8871 B( 43-C , 44-H ) :   0.9681 B( 43-C , 45-H ) :   0.9677
B( 43-C , 46-H ) :   0.9677 B( 47-B , 48-O ) :   1.2654 B( 47-B , 50-O ) :   1.2582
B( 48-O , 49-H ) :   0.8436 B( 50-O , 51-H ) :   0.8384

MP2 TOTAL ENERGY:    -1308.119633460 Eh

-----------------------------------------------------------------------------
         ABSORPTION SPECTRUM VIA TRANSITION ELECTRIC DIPOLE MOMENTS
-----------------------------------------------------------------------------
State   Energy    Wavelength  fosc         T2        TX        TY        TZ
        (cm-1)      (nm)                 (au**2)    (au)      (au)      (au)
-----------------------------------------------------------------------------
   1   24511.1    408.0   0.284399819   3.81982   1.95425   0.00626  -0.02595
   2   30091.1    332.3   0.359652689   3.93479  -0.00727   1.98097  -0.10240
   3   33438.6    299.1   0.081371000   0.80112   0.04886   0.89355  -0.01720
   4   33354.7    299.8   0.168795390   1.66602   1.29038  -0.02853  -0.01157
   5   29318.9    341.1   0.006912653   0.07762  -0.26666   0.08068   0.00009
   6   34791.0    287.4   0.029290611   0.27716   0.00747   0.27647  -0.44796
   7   39553.1    252.8   0.034896296   0.29045  -0.06991   0.03481  -0.53325
   8   40507.3    246.9   1.197998208   9.73641   0.01355  -3.11484   0.18445
   9   40701.0    245.7   0.041609719   0.33656   0.11595   0.55590   0.11872
  10   46618.8    214.5   0.101249554   0.71500   0.84415  -0.04131   0.02647
  11   47769.7    209.3   0.064175347   0.44227  -0.63778  -0.05954  -0.17879
  12   38545.5    259.4   0.081722152   0.69798  -0.06812   0.83157   0.04282
  13   48045.1    208.1   0.078320975   0.53667   0.73011   0.00534  -0.05986
  14   44995.5    222.2   0.033577623   0.24567   0.49404  -0.00706  -0.03934
  15   46224.7    216.3   0.029283273   0.20856  -0.00807  -0.36448  -0.27503
  16   48644.5    205.6   0.004926133   0.03334  -0.18245  -0.00400  -0.00595
  17   50025.6    199.9   1.377346513   9.06413  -3.01045  -0.00723   0.03530
  18   46706.0    214.1   0.032921138   0.23205   0.08748  -0.19362  -0.43233
  19   52302.3    191.2   1.450448499   9.12972   3.01816  -0.01615  -0.14204
  20   51936.5    192.5   0.298713244   1.89347   0.08454   0.76334   1.14177
  21   51437.6    194.4   0.021538636   0.13785   0.29294   0.02017   0.22722
  22   50301.1    198.8   0.284270394   1.86050   0.30141  -0.01015   1.33024
  23   51956.7    192.5   0.125990494   0.79831  -0.00528  -0.87552   0.17820
  24   49750.4    201.0   0.190434296   1.26015  -0.00060  -0.11159  -1.11701
  25   50901.9    196.5   0.000128782   0.00083   0.02670   0.00444   0.01001
  26   52181.0    191.6   0.002795704   0.01764  -0.12994  -0.01881  -0.01998
  27   52083.9    192.0   0.003001725   0.01897   0.04514  -0.11956  -0.05140
  28   53519.7    186.8   0.009681123   0.05955  -0.01755   0.03804  -0.24041
  29   52198.7    191.6   0.000228896   0.00144  -0.03499   0.01482   0.00022
  30   53242.4    187.8   0.049457739   0.30581  -0.00411   0.55217   0.03008

FINAL SINGLE POINT ENERGY     -1305.409956961326

DIPOLE MOMENT
-------------
                                X             Y             Z
Electronic contribution:     16.30282      -0.04840       2.16352
Nuclear contribution   :    -18.09944       0.39115      -2.12544
                        -----------------------------------------
Total Dipole Moment    :     -1.79662       0.34275       0.03808
                        -----------------------------------------
Magnitude (a.u.)       :      1.82942
Magnitude (Debye)      :      4.65002

Rotational constants in cm-1:     0.012596     0.002183     0.001953
Rotational constants in MHz :   377.610801    65.449689    58.549588

                             ****ORCA TERMINATED NORMALLY****
TOTAL RUN TIME: 1 days 6 hours 24 minutes 22 seconds 373 msec
