                         Program Version 5.0.2 -  RELEASE  -
|  1> %maxcore 60000
|  2> %pal
|  3>  nprocs= 4
|  4> end
|  5> !STEOM-DLPNO-CCSD DEF2-TZVP DEF2-TZVP/C def2/J TightSCF TightPNO CPCM
|  6> %MDCI
|  7>    Dorootwise true
|  8>    OTHRESH 0.005
|  9>    VTHRESH 0.005
| 10>    TCutPNOSingles 1e-11
| 11>    DTol 1e-5
| 12>    NROOTS  25
| 13>    DOSOLV  TRUE
| 14>    MAXITER 500
| 15> END
| 16> %CPCM
| 17>    SMD          TRUE
| 18>    SMDsolvent   "ACETONITRILE"
| 19> END
| 20>
| 21>
| 22> * xyz 1 1
| 23> C                  -0.99815600   -3.59492200    0.24638100
| 24> C                  -1.67788100   -2.40979500    0.17633400
| 25> C                  -0.96971200   -1.19623700    0.12146300
| 26> C                   0.45725200   -1.20773700    0.11133000
| 27> C                   1.11251800   -2.46141800    0.21572500
| 28> C                   0.40645600   -3.62559900    0.27957300
| 29> C                   1.16289900    0.00657700    0.02600200
| 30> C                   0.44603300    1.21608400   -0.02810600
| 31> C                  -0.97992300    1.19540200    0.02317300
| 32> C                  -1.69757800    2.40447500    0.00145200
| 33> H                  -2.77527400    2.38913800    0.05955700
| 34> C                  -1.02900200    3.59407800   -0.09559500
| 35> C                   0.37259700    3.63375600   -0.19007200
| 36> C                   1.08807000    2.47405500   -0.15897900
| 37> H                  -1.55633400   -4.52108300    0.28830500
| 38> H                  -2.75720700   -2.40121200    0.16548000
| 39> H                   2.19194000   -2.47972300    0.25387900
| 40> H                   0.92335900   -4.57190200    0.36113100
| 41> H                  -1.59429400    4.51673400   -0.11106000
| 42> H                   0.87938100    4.58347900   -0.29275400
| 43> H                   2.16461600    2.49898500   -0.24432400
| 44> N                  -1.63780300   -0.00275000    0.08515800
| 45> C                   2.63708300    0.01059200   -0.00613700
| 46> C                   3.32575700   -0.60525700   -1.05285100
| 47> C                   3.36658900    0.62850000    1.01037300
| 48> C                   4.70822600   -0.59090000   -1.08002000
| 49> C                   4.74961300    0.61413500    0.98144300
| 50> C                   5.45609800    0.01064800   -0.06250800
| 51> H                   5.22392100   -1.06167700   -1.90834200
| 52> H                   5.27930300    1.09415300    1.79808800
| 53> H                   2.76772500   -1.08182200   -1.84966000
| 54> H                   2.84234400    1.10538600    1.82941400
| 55> C                  -3.08481100   -0.00716300    0.11213200
| 56> C                  -3.78865400    0.00084400   -1.07706800
| 57> C                  -3.74597100   -0.01701900    1.33251500
| 58> C                  -5.17489700   -0.00000500   -1.05937300
| 59> H                  -3.25448900    0.00878600   -2.01882500
| 60> C                  -5.12446300   -0.01807800    1.35656000
| 61> H                  -3.17810500   -0.02360900    2.25417100
| 62> C                  -5.84899100   -0.00891000    0.16146500
| 63> H                  -5.71859800    0.00631500   -1.99286200
| 64> H                  -5.66148600   -0.02492100    2.29574700
| 65> O                  -7.19054800   -0.00914000    0.28675300
| 66> C                  -7.96491700    0.00239400   -0.90361400
| 67> H                  -9.00420200    0.00215400   -0.58782900
| 68> H                  -7.76999600    0.89748800   -1.49802800
| 69> H                  -7.77408300   -0.88356300   -1.51286000
| 70> B                   7.01824700   -0.00761200   -0.11345300
| 71> O                   7.82596900    0.50635800    0.86212300
| 72> H                   7.34866700    0.88524900    1.60754600
| 73> O                   7.61392700   -0.57547400   -1.20247400
| 74> H                   8.57600500   -0.54598500   -1.14644000
| 75> *
| 76>
| 77>
| 78>                          ****END OF INPUT****

CARTESIAN COORDINATES (ANGSTROEM)
---------------------------------
  C     -0.998156   -3.594922    0.246381
  C     -1.677881   -2.409795    0.176334
  C     -0.969712   -1.196237    0.121463
  C      0.457252   -1.207737    0.111330
  C      1.112518   -2.461418    0.215725
  C      0.406456   -3.625599    0.279573
  C      1.162899    0.006577    0.026002
  C      0.446033    1.216084   -0.028106
  C     -0.979923    1.195402    0.023173
  C     -1.697578    2.404475    0.001452
  H     -2.775274    2.389138    0.059557
  C     -1.029002    3.594078   -0.095595
  C      0.372597    3.633756   -0.190072
  C      1.088070    2.474055   -0.158979
  H     -1.556334   -4.521083    0.288305
  H     -2.757207   -2.401212    0.165480
  H      2.191940   -2.479723    0.253879
  H      0.923359   -4.571902    0.361131
  H     -1.594294    4.516734   -0.111060
  H      0.879381    4.583479   -0.292754
  H      2.164616    2.498985   -0.244324
  N     -1.637803   -0.002750    0.085158
  C      2.637083    0.010592   -0.006137
  C      3.325757   -0.605257   -1.052851
  C      3.366589    0.628500    1.010373
  C      4.708226   -0.590900   -1.080020
  C      4.749613    0.614135    0.981443
  C      5.456098    0.010648   -0.062508
  H      5.223921   -1.061677   -1.908342
  H      5.279303    1.094153    1.798088
  H      2.767725   -1.081822   -1.849660
  H      2.842344    1.105386    1.829414
  C     -3.084811   -0.007163    0.112132
  C     -3.788654    0.000844   -1.077068
  C     -3.745971   -0.017019    1.332515
  C     -5.174897   -0.000005   -1.059373
  H     -3.254489    0.008786   -2.018825
  C     -5.124463   -0.018078    1.356560
  H     -3.178105   -0.023609    2.254171
  C     -5.848991   -0.008910    0.161465
  H     -5.718598    0.006315   -1.992862
  H     -5.661486   -0.024921    2.295747
  O     -7.190548   -0.009140    0.286753
  C     -7.964917    0.002394   -0.903614
  H     -9.004202    0.002154   -0.587829
  H     -7.769996    0.897488   -1.498028
  H     -7.774083   -0.883563   -1.512860
  B      7.018247   -0.007612   -0.113453
  O      7.825969    0.506358    0.862123
  H      7.348667    0.885249    1.607546
  O      7.613927   -0.575474   -1.202474
  H      8.576005   -0.545985   -1.146440

 Total Charge           Charge          ....    1
 Multiplicity           Mult            ....    1
 Number of Electrons    NEL             ....  212
 Basis Dimension        Dim             .... 1087

ORBITAL ENERGIES
----------------

  NO   OCC          E(Eh)            E(eV)
   0   2.0000     -20.588683      -560.2466
   1   2.0000     -20.567463      -559.6691
   2   2.0000     -20.562149      -559.5245
   3   2.0000     -15.661401      -426.1684
   4   2.0000     -11.330771      -308.3260
   5   2.0000     -11.330728      -308.3248
   6   2.0000     -11.320798      -308.0546
   7   2.0000     -11.310566      -307.7762
   8   2.0000     -11.278461      -306.9025
   9   2.0000     -11.273116      -306.7571
  10   2.0000     -11.273090      -306.7564
  11   2.0000     -11.271785      -306.7209
  12   2.0000     -11.264432      -306.5208
  13   2.0000     -11.264201      -306.5145
  14   2.0000     -11.264180      -306.5139
  15   2.0000     -11.259152      -306.3771
  16   2.0000     -11.259137      -306.3767
  17   2.0000     -11.250826      -306.1505
  18   2.0000     -11.249849      -306.1239
  19   2.0000     -11.245446      -306.0042
  20   2.0000     -11.245258      -305.9990
  21   2.0000     -11.245245      -305.9987
  22   2.0000     -11.244496      -305.9783
  23   2.0000     -11.243969      -305.9640
  24   2.0000     -11.241807      -305.9051
  25   2.0000     -11.241796      -305.9048
  26   2.0000     -11.241086      -305.8855
  27   2.0000     -11.236038      -305.7481
  28   2.0000     -11.234792      -305.7142
  29   2.0000     -11.224234      -305.4269
  30   2.0000      -7.638811      -207.8626
  31   2.0000      -1.420041       -38.6413
  32   2.0000      -1.383686       -37.6520
  33   2.0000      -1.353090       -36.8194
  34   2.0000      -1.342968       -36.5440
  35   2.0000      -1.206112       -32.8200
  36   2.0000      -1.186204       -32.2782
  37   2.0000      -1.170433       -31.8491
  38   2.0000      -1.154926       -31.4271
  39   2.0000      -1.119625       -30.4665
  40   2.0000      -1.062928       -28.9237
  41   2.0000      -1.047593       -28.5065
  42   2.0000      -1.045544       -28.4507
  43   2.0000      -1.037004       -28.2183
  44   2.0000      -1.029325       -28.0094
  45   2.0000      -1.027661       -27.9641
  46   2.0000      -1.007282       -27.4095
  47   2.0000      -0.949039       -25.8247
  48   2.0000      -0.928813       -25.2743
  49   2.0000      -0.896200       -24.3868
  50   2.0000      -0.883449       -24.0399
  51   2.0000      -0.854162       -23.2429
  52   2.0000      -0.843217       -22.9451
  53   2.0000      -0.837329       -22.7849
  54   2.0000      -0.833938       -22.6926
  55   2.0000      -0.799911       -21.7667
  56   2.0000      -0.778070       -21.1724
  57   2.0000      -0.770954       -20.9787
  58   2.0000      -0.764349       -20.7990
  59   2.0000      -0.744028       -20.2460
  60   2.0000      -0.739775       -20.1303
  61   2.0000      -0.720034       -19.5931
  62   2.0000      -0.705812       -19.2061
  63   2.0000      -0.693185       -18.8625
  64   2.0000      -0.687181       -18.6991
  65   2.0000      -0.669333       -18.2135
  66   2.0000      -0.664797       -18.0900
  67   2.0000      -0.659326       -17.9412
  68   2.0000      -0.656319       -17.8594
  69   2.0000      -0.641418       -17.4539
  70   2.0000      -0.632780       -17.2188
  71   2.0000      -0.628412       -17.1000
  72   2.0000      -0.626560       -17.0496
  73   2.0000      -0.620539       -16.8857
  74   2.0000      -0.619967       -16.8702
  75   2.0000      -0.613774       -16.7016
  76   2.0000      -0.606998       -16.5172
  77   2.0000      -0.602703       -16.4004
  78   2.0000      -0.595702       -16.2099
  79   2.0000      -0.577279       -15.7086
  80   2.0000      -0.576855       -15.6970
  81   2.0000      -0.566953       -15.4276
  82   2.0000      -0.564350       -15.3568
  83   2.0000      -0.561903       -15.2901
  84   2.0000      -0.556805       -15.1514
  85   2.0000      -0.537698       -14.6315
  86   2.0000      -0.529186       -14.3999
  87   2.0000      -0.527245       -14.3471
  88   2.0000      -0.526490       -14.3265
  89   2.0000      -0.521612       -14.1938
  90   2.0000      -0.509271       -13.8580
  91   2.0000      -0.506684       -13.7876
  92   2.0000      -0.502881       -13.6841
  93   2.0000      -0.498712       -13.5706
  94   2.0000      -0.493734       -13.4352
  95   2.0000      -0.480091       -13.0639
  96   2.0000      -0.478999       -13.0342
  97   2.0000      -0.477154       -12.9840
  98   2.0000      -0.430857       -11.7242
  99   2.0000      -0.376078       -10.2336
 100   2.0000      -0.355025        -9.6607
 101   2.0000      -0.352056        -9.5799
 102   2.0000      -0.349509        -9.5106
 103   2.0000      -0.342402        -9.3172
 104   2.0000      -0.328136        -8.9290
 105   2.0000      -0.313386        -8.5277
 106   0.0000      -0.001833        -0.0499
 107   0.0000       0.078797         2.1442
 108   0.0000       0.083146         2.2625
 109   0.0000       0.099225         2.7000
 110   0.0000       0.117121         3.1870

E(0)                                       ...  -1301.027719935
E(0)                                       ...  -1301.027719935
E(CORR)(strong-pairs)                      ...     -5.043630006
E(CORR)(weak-pairs)                        ...     -0.011004249
E(CORR)(corrected)                         ...     -5.054634255
E(TOT)                                     ...  -1306.082354190

MULLIKEN ATOMIC CHARGES
-----------------------
   0 C :   -0.100576
   1 C :   -0.245349
   2 C :    0.143399
   3 C :    0.126331
   4 C :   -0.277264
   5 C :   -0.149161
   6 C :    0.321579
   7 C :    0.114313
   8 C :    0.147484
   9 C :   -0.249404
  10 H :    0.191681
  11 C :   -0.099617
  12 C :   -0.153367
  13 C :   -0.271900
  14 H :    0.187830
  15 H :    0.191777
  16 H :    0.199773
  17 H :    0.181615
  18 H :    0.187747
  19 H :    0.181581
  20 H :    0.201101
  21 N :    0.195430
  22 C :    0.011140
  23 C :   -0.256488
  24 C :   -0.299862
  25 C :   -0.184020
  26 C :   -0.242485
  27 C :    0.012051
  28 H :    0.165666
  29 H :    0.153401
  30 H :    0.179758
  31 H :    0.179528
  32 C :    0.046590
  33 C :   -0.262654
  34 C :   -0.241596
  35 C :   -0.206338
  36 H :    0.179333
  37 C :   -0.196357
  38 H :    0.178259
  39 C :    0.322647
  40 H :    0.183999
  41 H :    0.163802
  42 O :   -0.272616
  43 C :   -0.273438
  44 H :    0.172173
  45 H :    0.157688
  46 H :    0.157708
  47 B :    0.397914
  48 O :   -0.482132
  49 H :    0.364921
  50 O :   -0.497448
  51 H :    0.363852
Sum of atomic charges:    0.9999998

LOEWDIN ATOMIC CHARGES
----------------------
   0 C :   -0.090955
   1 C :   -0.095286
   2 C :   -0.067357
   3 C :   -0.045738
   4 C :   -0.068120
   5 C :   -0.122049
   6 C :    0.045230
   7 C :   -0.045770
   8 C :   -0.067255
   9 C :   -0.095298
  10 H :    0.174601
  11 C :   -0.091002
  12 C :   -0.122115
  13 C :   -0.068210
  14 H :    0.168343
  15 H :    0.174592
  16 H :    0.174713
  17 H :    0.164310
  18 H :    0.168346
  19 H :    0.164285
  20 H :    0.174668
  21 N :    0.382375
  22 C :   -0.099145
  23 C :   -0.090562
  24 C :   -0.091074
  25 C :   -0.081362
  26 C :   -0.089529
  27 C :   -0.071410
  28 H :    0.165461
  29 H :    0.162663
  30 H :    0.167727
  31 H :    0.167843
  32 C :   -0.172321
  33 C :   -0.096029
  34 C :   -0.099044
  35 C :   -0.126157
  36 H :    0.171066
  37 C :   -0.110258
  38 H :    0.170865
  39 C :   -0.252190
  40 H :    0.167062
  41 H :    0.163619
  42 O :    0.238235
  43 C :   -0.318954
  44 H :    0.121827
  45 H :    0.117741
  46 H :    0.117726
  47 B :   -0.847113
  48 O :    0.176928
  49 H :    0.220948
  50 O :    0.179667
  51 H :    0.223464

  Mayer bond orders larger than 0.100000
B(  0-C ,  1-C ) :   1.4196 B(  0-C ,  5-C ) :   1.1117 B(  0-C , 14-H ) :   0.9204
B(  1-C ,  2-C ) :   1.1505 B(  1-C , 15-H ) :   0.9227 B(  2-C ,  3-C ) :   1.1899
B(  2-C , 21-N ) :   1.1838 B(  3-C ,  4-C ) :   1.1144 B(  3-C ,  6-C ) :   1.1409
B(  4-C ,  5-C ) :   1.4542 B(  4-C , 16-H ) :   0.9160 B(  5-C , 17-H ) :   0.9334
B(  6-C ,  7-C ) :   1.1461 B(  6-C , 22-C ) :   0.7478 B(  7-C ,  8-C ) :   1.1922
B(  7-C , 13-C ) :   1.1072 B(  8-C ,  9-C ) :   1.1540 B(  8-C , 21-N ) :   1.1831
B(  9-C , 10-H ) :   0.9228 B(  9-C , 11-C ) :   1.4203 B( 11-C , 12-C ) :   1.1110
B( 11-C , 18-H ) :   0.9205 B( 12-C , 13-C ) :   1.4568 B( 12-C , 19-H ) :   0.9335
B( 13-C , 20-H ) :   0.9145 B( 21-N , 32-C ) :   0.6539 B( 22-C , 23-C ) :   1.2582
B( 22-C , 24-C ) :   1.2645 B( 23-C , 25-C ) :   1.3118 B( 23-C , 30-H ) :   0.9463
B( 24-C , 26-C ) :   1.3297 B( 24-C , 31-H ) :   0.9460 B( 25-C , 27-C ) :   1.2526
B( 25-C , 28-H ) :   0.9367 B( 26-C , 27-C ) :   1.2451 B( 26-C , 29-H ) :   0.9346
B( 27-C , 47-B ) :   0.9461 B( 32-C , 33-C ) :   1.4149 B( 32-C , 34-C ) :   1.3514
B( 33-C , 35-C ) :   1.2697 B( 33-C , 36-H ) :   0.9261 B( 34-C , 37-C ) :   1.3498
B( 34-C , 38-H ) :   0.9404 B( 35-C , 39-C ) :   1.2137 B( 35-C , 40-H ) :   0.9199
B( 37-C , 39-C ) :   1.2225 B( 37-C , 41-H ) :   0.9440 B( 39-C , 42-O ) :   1.1012
B( 42-O , 43-C ) :   0.8369 B( 43-C , 44-H ) :   0.9212 B( 43-C , 45-H ) :   0.9177
B( 43-C , 46-H ) :   0.9177 B( 47-B , 48-O ) :   1.2370 B( 47-B , 50-O ) :   1.2390
B( 48-O , 49-H ) :   0.8099 B( 50-O , 51-H ) :   0.8042

-----------------------------------------------------------------------------
         ABSORPTION SPECTRUM VIA TRANSITION ELECTRIC DIPOLE MOMENTS
-----------------------------------------------------------------------------
State   Energy  Wavelength   fosc         T2         TX        TY        TZ
        (cm-1)    (nm)                  (au**2)     (au)      (au)      (au)
-----------------------------------------------------------------------------
   1   23556.2    424.5   0.218117189   3.04832   1.74562   0.01114   0.02924
   2   27584.9    362.5   0.128170270   1.52965   0.01299   1.23502   0.05994
   3   24400.2    409.8   0.000126183   0.00170   0.01525   0.03201   0.00684
   4   30798.9    324.7   0.054095258   0.57823   0.52817   0.54358   0.02937
   5   30232.9    330.8   0.074441031   0.81060   0.81668   0.37499   0.03255
   6   33157.8    301.6   0.035141517   0.34891   0.04001   0.54648   0.22034
   7   36687.3    272.6   0.012355965   0.11088   0.01951   0.05010   0.32811
   8   38455.2    260.0   0.002125909   0.01820   0.04116   0.10922   0.06702
   9   34655.7    288.6   0.126883419   1.20533   0.00322   1.09165   0.11601
  10   41345.1    241.9   1.034994421   8.24118   0.01046   2.86437   0.19080
  11   42771.8    233.8   0.007201087   0.05543   0.23500   0.00739   0.00704
  12   42465.7    235.5   0.000522236   0.00405   0.02021   0.01737   0.03474
  13   44868.8    222.9   0.257121887   1.88656   1.37254   0.04222   0.00383
  14   46523.4    214.9   0.179343084   1.26908   0.00270   1.12426   0.07111
  15   46887.8    213.3   0.209640302   1.47194   1.19503   0.00811   0.20375
  16   42218.7    236.9   0.004725591   0.03685   0.07539   0.13522   0.09224
  17   47404.5    211.0   0.000274971   0.00191   0.00975   0.00968   0.01438
  18   49076.4    203.8   0.142364666   0.95500   0.97706   0.00362   0.01788
  19   50311.4    198.8   0.580510363   3.79856   1.94714   0.01421   0.08068
  20   49976.0    200.1   0.038130667   0.25118   0.01464   0.49939   0.03837
  21   52258.6    191.4   0.345006077   2.17342   1.47400   0.01949   0.01799
  22   52866.5    189.2   0.545265474   3.39549   1.79307   0.09589   0.41328
  23   52520.1    190.4   0.327198689   2.05098   1.34346   0.12127   0.48101
  24   58297.2    171.5   0.004950806   0.02796   0.01208   0.15326   0.06405
  25   61595.3    162.4   0.027216043   0.14546   0.37946   0.03011   0.02375

FINAL SINGLE POINT ENERGY     -1305.975024319961

DIPOLE MOMENT
-------------
                                X             Y             Z
Electronic contribution:     16.13414      -0.05963       2.17146
Nuclear contribution   :    -18.09944       0.39115      -2.12544
                        -----------------------------------------
Total Dipole Moment    :     -1.96529       0.33152       0.04602
                        -----------------------------------------
Magnitude (a.u.)       :      1.99359
Magnitude (Debye)      :      5.06731

Rotational constants in cm-1:     0.012596     0.002183     0.001953
Rotational constants in MHz :   377.610801    65.449689    58.549588

                             ****ORCA TERMINATED NORMALLY****
TOTAL RUN TIME: 0 days 23 hours 35 minutes 33 seconds 836 msec
