                         Program Version 5.0.2 -  RELEASE  -
|  1> %maxcore 20000
|  2> %pal
|  3>  nprocs= 4
|  4> end
|  5> ! RI-B2GP-PLYP   def2-TZVP def2/J def2-TZVP/C RIJCOSX CPCM TightSCF
|  6> %TDDFT
|  7>    NROOTS   30
|  8>    dcorr 4
|  9>    TDA      FALSE
| 10> END
| 11>
| 12> %CPCM
| 13>    SMD          TRUE
| 14>    SMDsolvent   "ACETONITRILE"
| 15> END
| 16>
| 17>
| 18> * xyz 1 1
| 19> C                  -0.99815600   -3.59492200    0.24638100
| 20> C                  -1.67788100   -2.40979500    0.17633400
| 21> C                  -0.96971200   -1.19623700    0.12146300
| 22> C                   0.45725200   -1.20773700    0.11133000
| 23> C                   1.11251800   -2.46141800    0.21572500
| 24> C                   0.40645600   -3.62559900    0.27957300
| 25> C                   1.16289900    0.00657700    0.02600200
| 26> C                   0.44603300    1.21608400   -0.02810600
| 27> C                  -0.97992300    1.19540200    0.02317300
| 28> C                  -1.69757800    2.40447500    0.00145200
| 29> H                  -2.77527400    2.38913800    0.05955700
| 30> C                  -1.02900200    3.59407800   -0.09559500
| 31> C                   0.37259700    3.63375600   -0.19007200
| 32> C                   1.08807000    2.47405500   -0.15897900
| 33> H                  -1.55633400   -4.52108300    0.28830500
| 34> H                  -2.75720700   -2.40121200    0.16548000
| 35> H                   2.19194000   -2.47972300    0.25387900
| 36> H                   0.92335900   -4.57190200    0.36113100
| 37> H                  -1.59429400    4.51673400   -0.11106000
| 38> H                   0.87938100    4.58347900   -0.29275400
| 39> H                   2.16461600    2.49898500   -0.24432400
| 40> N                  -1.63780300   -0.00275000    0.08515800
| 41> C                   2.63708300    0.01059200   -0.00613700
| 42> C                   3.32575700   -0.60525700   -1.05285100
| 43> C                   3.36658900    0.62850000    1.01037300
| 44> C                   4.70822600   -0.59090000   -1.08002000
| 45> C                   4.74961300    0.61413500    0.98144300
| 46> C                   5.45609800    0.01064800   -0.06250800
| 47> H                   5.22392100   -1.06167700   -1.90834200
| 48> H                   5.27930300    1.09415300    1.79808800
| 49> H                   2.76772500   -1.08182200   -1.84966000
| 50> H                   2.84234400    1.10538600    1.82941400
| 51> C                  -3.08481100   -0.00716300    0.11213200
| 52> C                  -3.78865400    0.00084400   -1.07706800
| 53> C                  -3.74597100   -0.01701900    1.33251500
| 54> C                  -5.17489700   -0.00000500   -1.05937300
| 55> H                  -3.25448900    0.00878600   -2.01882500
| 56> C                  -5.12446300   -0.01807800    1.35656000
| 57> H                  -3.17810500   -0.02360900    2.25417100
| 58> C                  -5.84899100   -0.00891000    0.16146500
| 59> H                  -5.71859800    0.00631500   -1.99286200
| 60> H                  -5.66148600   -0.02492100    2.29574700
| 61> O                  -7.19054800   -0.00914000    0.28675300
| 62> C                  -7.96491700    0.00239400   -0.90361400
| 63> H                  -9.00420200    0.00215400   -0.58782900
| 64> H                  -7.76999600    0.89748800   -1.49802800
| 65> H                  -7.77408300   -0.88356300   -1.51286000
| 66> B                   7.01824700   -0.00761200   -0.11345300
| 67> O                   7.82596900    0.50635800    0.86212300
| 68> H                   7.34866700    0.88524900    1.60754600
| 69> O                   7.61392700   -0.57547400   -1.20247400
| 70> H                   8.57600500   -0.54598500   -1.14644000
| 71> *
| 72>
| 73>
| 74>                          ****END OF INPUT****

CARTESIAN COORDINATES (ANGSTROEM)
---------------------------------
  C     -0.998156   -3.594922    0.246381
  C     -1.677881   -2.409795    0.176334
  C     -0.969712   -1.196237    0.121463
  C      0.457252   -1.207737    0.111330
  C      1.112518   -2.461418    0.215725
  C      0.406456   -3.625599    0.279573
  C      1.162899    0.006577    0.026002
  C      0.446033    1.216084   -0.028106
  C     -0.979923    1.195402    0.023173
  C     -1.697578    2.404475    0.001452
  H     -2.775274    2.389138    0.059557
  C     -1.029002    3.594078   -0.095595
  C      0.372597    3.633756   -0.190072
  C      1.088070    2.474055   -0.158979
  H     -1.556334   -4.521083    0.288305
  H     -2.757207   -2.401212    0.165480
  H      2.191940   -2.479723    0.253879
  H      0.923359   -4.571902    0.361131
  H     -1.594294    4.516734   -0.111060
  H      0.879381    4.583479   -0.292754
  H      2.164616    2.498985   -0.244324
  N     -1.637803   -0.002750    0.085158
  C      2.637083    0.010592   -0.006137
  C      3.325757   -0.605257   -1.052851
  C      3.366589    0.628500    1.010373
  C      4.708226   -0.590900   -1.080020
  C      4.749613    0.614135    0.981443
  C      5.456098    0.010648   -0.062508
  H      5.223921   -1.061677   -1.908342
  H      5.279303    1.094153    1.798088
  H      2.767725   -1.081822   -1.849660
  H      2.842344    1.105386    1.829414
  C     -3.084811   -0.007163    0.112132
  C     -3.788654    0.000844   -1.077068
  C     -3.745971   -0.017019    1.332515
  C     -5.174897   -0.000005   -1.059373
  H     -3.254489    0.008786   -2.018825
  C     -5.124463   -0.018078    1.356560
  H     -3.178105   -0.023609    2.254171
  C     -5.848991   -0.008910    0.161465
  H     -5.718598    0.006315   -1.992862
  H     -5.661486   -0.024921    2.295747
  O     -7.190548   -0.009140    0.286753
  C     -7.964917    0.002394   -0.903614
  H     -9.004202    0.002154   -0.587829
  H     -7.769996    0.897488   -1.498028
  H     -7.774083   -0.883563   -1.512860
  B      7.018247   -0.007612   -0.113453
  O      7.825969    0.506358    0.862123
  H      7.348667    0.885249    1.607546
  O      7.613927   -0.575474   -1.202474
  H      8.576005   -0.545985   -1.146440

 Total Charge           Charge          ....    1
 Multiplicity           Mult            ....    1
 Number of Electrons    NEL             ....  212
 Basis Dimension        Dim             .... 1087

ORBITAL ENERGIES
----------------

  NO   OCC          E(Eh)            E(eV)
   0   2.0000     -19.975149      -543.5514
   1   2.0000     -19.952469      -542.9343
   2   2.0000     -19.947503      -542.7992
   3   2.0000     -15.128650      -411.6715
   4   2.0000     -10.871268      -295.8223
   5   2.0000     -10.871232      -295.8213
   6   2.0000     -10.857932      -295.4594
   7   2.0000     -10.853733      -295.3451
   8   2.0000     -10.826497      -294.6040
   9   2.0000     -10.822480      -294.4947
  10   2.0000     -10.822461      -294.4941
  11   2.0000     -10.817217      -294.3514
  12   2.0000     -10.809251      -294.1347
  13   2.0000     -10.806645      -294.0638
  14   2.0000     -10.806626      -294.0632
  15   2.0000     -10.802444      -293.9495
  16   2.0000     -10.802429      -293.9490
  17   2.0000     -10.795739      -293.7670
  18   2.0000     -10.794881      -293.7436
  19   2.0000     -10.794646      -293.7372
  20   2.0000     -10.794629      -293.7368
  21   2.0000     -10.790743      -293.6311
  22   2.0000     -10.790730      -293.6307
  23   2.0000     -10.790648      -293.6285
  24   2.0000     -10.789797      -293.6053
  25   2.0000     -10.789240      -293.5902
  26   2.0000     -10.786257      -293.5090
  27   2.0000     -10.783988      -293.4472
  28   2.0000     -10.782749      -293.4135
  29   2.0000     -10.771648      -293.1115
  30   2.0000      -7.272296      -197.8892
  31   2.0000      -1.274564       -34.6826
  32   2.0000      -1.238519       -33.7018
  33   2.0000      -1.218213       -33.1493
  34   2.0000      -1.200753       -32.6741
  35   2.0000      -1.079102       -29.3639
  36   2.0000      -1.061734       -28.8913
  37   2.0000      -1.045859       -28.4593
  38   2.0000      -1.032437       -28.0940
  39   2.0000      -1.000071       -27.2133
  40   2.0000      -0.950080       -25.8530
  41   2.0000      -0.935953       -25.4686
  42   2.0000      -0.932717       -25.3805
  43   2.0000      -0.924176       -25.1481
  44   2.0000      -0.916773       -24.9467
  45   2.0000      -0.914551       -24.8862
  46   2.0000      -0.898529       -24.4502
  47   2.0000      -0.848097       -23.0779
  48   2.0000      -0.828642       -22.5485
  49   2.0000      -0.801877       -21.8202
  50   2.0000      -0.789232       -21.4761
  51   2.0000      -0.761753       -20.7284
  52   2.0000      -0.751448       -20.4479
  53   2.0000      -0.746030       -20.3005
  54   2.0000      -0.742642       -20.2083
  55   2.0000      -0.713116       -19.4049
  56   2.0000      -0.693188       -18.8626
  57   2.0000      -0.692183       -18.8353
  58   2.0000      -0.682385       -18.5686
  59   2.0000      -0.667797       -18.1717
  60   2.0000      -0.661272       -17.9941
  61   2.0000      -0.644027       -17.5249
  62   2.0000      -0.630478       -17.1562
  63   2.0000      -0.619016       -16.8443
  64   2.0000      -0.611521       -16.6403
  65   2.0000      -0.595042       -16.1919
  66   2.0000      -0.591301       -16.0901
  67   2.0000      -0.587790       -15.9946
  68   2.0000      -0.579475       -15.7683
  69   2.0000      -0.570683       -15.5291
  70   2.0000      -0.560664       -15.2564
  71   2.0000      -0.559267       -15.2184
  72   2.0000      -0.556000       -15.1295
  73   2.0000      -0.553185       -15.0529
  74   2.0000      -0.550525       -14.9806
  75   2.0000      -0.545336       -14.8393
  76   2.0000      -0.536390       -14.5959
  77   2.0000      -0.533425       -14.5152
  78   2.0000      -0.526852       -14.3364
  79   2.0000      -0.511940       -13.9306
  80   2.0000      -0.504268       -13.7218
  81   2.0000      -0.503111       -13.6904
  82   2.0000      -0.495055       -13.4711
  83   2.0000      -0.491792       -13.3823
  84   2.0000      -0.485477       -13.2105
  85   2.0000      -0.478655       -13.0249
  86   2.0000      -0.475129       -12.9289
  87   2.0000      -0.468443       -12.7470
  88   2.0000      -0.465945       -12.6790
  89   2.0000      -0.460160       -12.5216
  90   2.0000      -0.452215       -12.3054
  91   2.0000      -0.446049       -12.1376
  92   2.0000      -0.439787       -11.9672
  93   2.0000      -0.435002       -11.8370
  94   2.0000      -0.430249       -11.7077
  95   2.0000      -0.424162       -11.5420
  96   2.0000      -0.418454       -11.3867
  97   2.0000      -0.418123       -11.3777
  98   2.0000      -0.392157       -10.6711
  99   2.0000      -0.343688        -9.3522
 100   2.0000      -0.324143        -8.8204
 101   2.0000      -0.320996        -8.7348
 102   2.0000      -0.320300        -8.7158
 103   2.0000      -0.315878        -8.5955
 104   2.0000      -0.294425        -8.0117
 105   2.0000      -0.286099        -7.7851
 106   0.0000      -0.059493        -1.6189
 107   0.0000       0.017642         0.4801
 108   0.0000       0.021706         0.5907
 109   0.0000       0.036511         0.9935
 110   0.0000       0.052986         1.4418

MULLIKEN ATOMIC CHARGES
-----------------------
   0 C :   -0.093117
   1 C :   -0.247421
   2 C :    0.191102
   3 C :    0.092651
   4 C :   -0.257011
   5 C :   -0.160562
   6 C :    0.340736
   7 C :    0.093371
   8 C :    0.190763
   9 C :   -0.247943
  10 H :    0.188536
  11 C :   -0.092129
  12 C :   -0.160575
  13 C :   -0.257420
  14 H :    0.180159
  15 H :    0.188613
  16 H :    0.195792
  17 H :    0.174480
  18 H :    0.180270
  19 H :    0.174382
  20 H :    0.195455
  21 N :    0.131810
  22 C :    0.021461
  23 C :   -0.260016
  24 C :   -0.283442
  25 C :   -0.186506
  26 C :   -0.238023
  27 C :    0.014027
  28 H :    0.163218
  29 H :    0.150225
  30 H :    0.174860
  31 H :    0.175918
  32 C :    0.070654
  33 C :   -0.248618
  34 C :   -0.223768
  35 C :   -0.232772
  36 H :    0.173492
  37 C :   -0.197333
  38 H :    0.169956
  39 C :    0.381241
  40 H :    0.174745
  41 H :    0.157927
  42 O :   -0.342859
  43 C :   -0.192572
  44 H :    0.154318
  45 H :    0.140219
  46 H :    0.140263
  47 B :    0.484652
  48 O :   -0.529831
  49 H :    0.367060
  50 O :   -0.548159
  51 H :    0.367725
Sum of atomic charges:    1.0000000

LOEWDIN ATOMIC CHARGES
----------------------
   0 C :   -0.077943
   1 C :   -0.099105
   2 C :   -0.054993
   3 C :   -0.052329
   4 C :   -0.058612
   5 C :   -0.125901
   6 C :    0.066676
   7 C :   -0.052335
   8 C :   -0.054849
   9 C :   -0.099044
  10 H :    0.170024
  11 C :   -0.077920
  12 C :   -0.126017
  13 C :   -0.058626
  14 H :    0.163507
  15 H :    0.170010
  16 H :    0.169910
  17 H :    0.158804
  18 H :    0.163502
  19 H :    0.158784
  20 H :    0.169842
  21 N :    0.355499
  22 C :   -0.093376
  23 C :   -0.085547
  24 C :   -0.085753
  25 C :   -0.073478
  26 C :   -0.082169
  27 C :   -0.066833
  28 H :    0.161345
  29 H :    0.158129
  30 H :    0.163073
  31 H :    0.163331
  32 C :   -0.173112
  33 C :   -0.085198
  34 C :   -0.088193
  35 C :   -0.125167
  36 H :    0.165979
  37 C :   -0.109233
  38 H :    0.165582
  39 C :   -0.234598
  40 H :    0.161570
  41 H :    0.158174
  42 O :    0.207108
  43 C :   -0.293122
  44 H :    0.115972
  45 H :    0.112314
  46 H :    0.112300
  47 B :   -0.815989
  48 O :    0.154876
  49 H :    0.221324
  50 O :    0.157840
  51 H :    0.223966

  Mayer bond orders larger than 0.100000
B(  0-C ,  1-C ) :   1.5329 B(  0-C ,  5-C ) :   1.2221 B(  0-C , 14-H ) :   0.9696
B(  1-C ,  2-C ) :   1.2489 B(  1-C , 15-H ) :   0.9701 B(  2-C ,  3-C ) :   1.2594
B(  2-C , 21-N ) :   1.2328 B(  3-C ,  4-C ) :   1.1861 B(  3-C ,  6-C ) :   1.1893
B(  4-C ,  5-C ) :   1.5960 B(  4-C , 16-H ) :   0.9593 B(  5-C , 17-H ) :   0.9807
B(  6-C ,  7-C ) :   1.1895 B(  6-C , 22-C ) :   0.8049 B(  7-C ,  8-C ) :   1.2596
B(  7-C , 13-C ) :   1.1867 B(  8-C ,  9-C ) :   1.2488 B(  8-C , 21-N ) :   1.2328
B(  9-C , 10-H ) :   0.9701 B(  9-C , 11-C ) :   1.5331 B( 11-C , 12-C ) :   1.2223
B( 11-C , 18-H ) :   0.9694 B( 12-C , 13-C ) :   1.5951 B( 12-C , 19-H ) :   0.9808
B( 13-C , 20-H ) :   0.9597 B( 21-N , 32-C ) :   0.6975 B( 22-C , 23-C ) :   1.3555
B( 22-C , 24-C ) :   1.3674 B( 23-C , 25-C ) :   1.4160 B( 23-C , 30-H ) :   0.9965
B( 24-C , 26-C ) :   1.4478 B( 24-C , 31-H ) :   0.9930 B( 25-C , 27-C ) :   1.3526
B( 25-C , 28-H ) :   0.9825 B( 26-C , 27-C ) :   1.3538 B( 26-C , 29-H ) :   0.9788
B( 27-C , 47-B ) :   0.9981 B( 32-C , 33-C ) :   1.5105 B( 32-C , 34-C ) :   1.4573
B( 33-C , 35-C ) :   1.3766 B( 33-C , 36-H ) :   0.9739 B( 34-C , 37-C ) :   1.4563
B( 34-C , 38-H ) :   0.9890 B( 35-C , 39-C ) :   1.3184 B( 35-C , 40-H ) :   0.9723
B( 37-C , 39-C ) :   1.3264 B( 37-C , 41-H ) :   0.9936 B( 39-C , 42-O ) :   1.1176
B( 42-O , 43-C ) :   0.8799 B( 43-C , 44-H ) :   0.9743 B( 43-C , 45-H ) :   0.9728
B( 43-C , 46-H ) :   0.9728 B( 47-B , 48-O ) :   1.2505 B( 47-B , 50-O ) :   1.2440
B( 48-O , 49-H ) :   0.8541 B( 50-O , 51-H ) :   0.8497

MP2 TOTAL ENERGY:    -1307.820678738 Eh

-----------------------------------------------------------------------------
         ABSORPTION SPECTRUM VIA TRANSITION ELECTRIC DIPOLE MOMENTS
-----------------------------------------------------------------------------
State   Energy    Wavelength  fosc         T2        TX        TY        TZ
        (cm-1)      (nm)                 (au**2)    (au)      (au)      (au)
-----------------------------------------------------------------------------
   1   23808.1    420.0   0.262231402   3.62607   1.90405   0.00617  -0.02538
   2   29830.7    335.2   0.351580322   3.88005  -0.00530   1.96741  -0.09662
   3   26162.7    382.2   0.000853560   0.01074   0.05666  -0.08664  -0.00500
   4   31032.9    322.2   0.134058064   1.42215  -1.19006  -0.07677   0.00484
   5   31567.4    316.8   0.034108712   0.35571   0.18582  -0.56445  -0.05084
   6   32581.4    306.9   0.026897755   0.27178   0.01646   0.38691  -0.34902
   7   35194.3    284.1   0.127561210   1.19322   0.00703   1.08984  -0.07362
   8   39209.3    255.0   0.063569483   0.53375   0.07462  -0.45698   0.56511
   9   39364.9    254.0   1.011496401   8.45924  -0.02068   2.90474  -0.14593
  10   40450.9    247.2   0.121936478   0.99239   0.09084   0.96870   0.21393
  11   44864.1    222.9   0.141586573   1.03896   1.01902  -0.02365  -0.00225
  12   46948.9    213.0   0.074671002   0.52360   0.70081  -0.01379   0.17965
  13   46818.7    213.6   0.035664311   0.25078   0.49721   0.00270  -0.05960
  14   44625.4    224.1   0.053601176   0.39543   0.00746  -0.59055  -0.21593
  15   43634.7    229.2   0.000454516   0.00343  -0.05070   0.00654  -0.02857
  16   47178.3    212.0   0.013940593   0.09728   0.31189   0.00051   0.00120
  17   46746.6    213.9   0.820596180   5.77903   2.40384   0.01679  -0.01729
  18   43109.2    232.0   0.043960620   0.33571  -0.52055   0.05780   0.24780
  19   46042.7    217.2   0.028467778   0.20355   0.00502   0.16313   0.42061
  20   50899.0    196.5   1.841316169  11.90954   3.43981  -0.13210  -0.24453
  21   50332.1    198.7   0.313566341   2.05097   0.76496   0.63601   1.03019
  22   50923.1    196.4   0.005350366   0.03459   0.17080  -0.02591  -0.06888
  23   49416.8    202.4   0.053896962   0.35906  -0.04538  -0.48818   0.34450
  24   49371.9    202.5   0.014477836   0.09654   0.15445  -0.26181   0.06431
  25   52245.7    191.4   0.405178762   2.55312   0.11669   0.01958   1.59346
  26   51025.4    196.0   0.000618118   0.00399  -0.06063   0.01419   0.01051
  27   49377.6    202.5   0.118790838   0.79201  -0.02242   0.87650   0.15246
  28   50403.2    198.4   0.018500246   0.12084   0.04661   0.26681   0.21789
  29   50175.9    199.3   0.000049587   0.00033  -0.00316   0.00819   0.01576
  30   49629.6    201.5   0.007002049   0.04645  -0.21129  -0.00924   0.04146

FINAL SINGLE POINT ENERGY     -1305.634160919151

DIPOLE MOMENT
-------------
                                X             Y             Z
Electronic contribution:     16.29098      -0.05090       2.16380
Nuclear contribution   :    -18.09944       0.39115      -2.12544
                        -----------------------------------------
Total Dipole Moment    :     -1.80846       0.34025       0.03836
                        -----------------------------------------
Magnitude (a.u.)       :      1.84059
Magnitude (Debye)      :      4.67841

Rotational constants in cm-1:     0.012596     0.002183     0.001953
Rotational constants in MHz :   377.610801    65.449689    58.549588

                             ****ORCA TERMINATED NORMALLY****
TOTAL RUN TIME: 0 days 12 hours 53 minutes 10 seconds 977 msec
