                         Program Version 5.0.2 -  RELEASE  -
|  1> %maxcore 20000
|  2> %pal
|  3>  nprocs= 6
|  4> end
|  5> ! RI-SCS-PBE-QIDH   def2-TZVP def2/J def2-TZVP/C RIJCOSX CPCM TightSCF
|  6> %TDDFT
|  7>    NROOTS   30
|  8>    dcorr 4
|  9>    doscs true
| 10>    TDA      FALSE
| 11> END
| 12>
| 13> %CPCM
| 14>    SMD          TRUE
| 15>    SMDsolvent   "ACETONITRILE"
| 16> END
| 17>
| 18>
| 19> * xyz 1 1
| 20> C                  -0.99815600   -3.59492200    0.24638100
| 21> C                  -1.67788100   -2.40979500    0.17633400
| 22> C                  -0.96971200   -1.19623700    0.12146300
| 23> C                   0.45725200   -1.20773700    0.11133000
| 24> C                   1.11251800   -2.46141800    0.21572500
| 25> C                   0.40645600   -3.62559900    0.27957300
| 26> C                   1.16289900    0.00657700    0.02600200
| 27> C                   0.44603300    1.21608400   -0.02810600
| 28> C                  -0.97992300    1.19540200    0.02317300
| 29> C                  -1.69757800    2.40447500    0.00145200
| 30> H                  -2.77527400    2.38913800    0.05955700
| 31> C                  -1.02900200    3.59407800   -0.09559500
| 32> C                   0.37259700    3.63375600   -0.19007200
| 33> C                   1.08807000    2.47405500   -0.15897900
| 34> H                  -1.55633400   -4.52108300    0.28830500
| 35> H                  -2.75720700   -2.40121200    0.16548000
| 36> H                   2.19194000   -2.47972300    0.25387900
| 37> H                   0.92335900   -4.57190200    0.36113100
| 38> H                  -1.59429400    4.51673400   -0.11106000
| 39> H                   0.87938100    4.58347900   -0.29275400
| 40> H                   2.16461600    2.49898500   -0.24432400
| 41> N                  -1.63780300   -0.00275000    0.08515800
| 42> C                   2.63708300    0.01059200   -0.00613700
| 43> C                   3.32575700   -0.60525700   -1.05285100
| 44> C                   3.36658900    0.62850000    1.01037300
| 45> C                   4.70822600   -0.59090000   -1.08002000
| 46> C                   4.74961300    0.61413500    0.98144300
| 47> C                   5.45609800    0.01064800   -0.06250800
| 48> H                   5.22392100   -1.06167700   -1.90834200
| 49> H                   5.27930300    1.09415300    1.79808800
| 50> H                   2.76772500   -1.08182200   -1.84966000
| 51> H                   2.84234400    1.10538600    1.82941400
| 52> C                  -3.08481100   -0.00716300    0.11213200
| 53> C                  -3.78865400    0.00084400   -1.07706800
| 54> C                  -3.74597100   -0.01701900    1.33251500
| 55> C                  -5.17489700   -0.00000500   -1.05937300
| 56> H                  -3.25448900    0.00878600   -2.01882500
| 57> C                  -5.12446300   -0.01807800    1.35656000
| 58> H                  -3.17810500   -0.02360900    2.25417100
| 59> C                  -5.84899100   -0.00891000    0.16146500
| 60> H                  -5.71859800    0.00631500   -1.99286200
| 61> H                  -5.66148600   -0.02492100    2.29574700
| 62> O                  -7.19054800   -0.00914000    0.28675300
| 63> C                  -7.96491700    0.00239400   -0.90361400
| 64> H                  -9.00420200    0.00215400   -0.58782900
| 65> H                  -7.76999600    0.89748800   -1.49802800
| 66> H                  -7.77408300   -0.88356300   -1.51286000
| 67> B                   7.01824700   -0.00761200   -0.11345300
| 68> O                   7.82596900    0.50635800    0.86212300
| 69> H                   7.34866700    0.88524900    1.60754600
| 70> O                   7.61392700   -0.57547400   -1.20247400
| 71> H                   8.57600500   -0.54598500   -1.14644000
| 72> *
| 73>
| 74>
| 75>                          ****END OF INPUT****

CARTESIAN COORDINATES (ANGSTROEM)
---------------------------------
  C     -0.998156   -3.594922    0.246381
  C     -1.677881   -2.409795    0.176334
  C     -0.969712   -1.196237    0.121463
  C      0.457252   -1.207737    0.111330
  C      1.112518   -2.461418    0.215725
  C      0.406456   -3.625599    0.279573
  C      1.162899    0.006577    0.026002
  C      0.446033    1.216084   -0.028106
  C     -0.979923    1.195402    0.023173
  C     -1.697578    2.404475    0.001452
  H     -2.775274    2.389138    0.059557
  C     -1.029002    3.594078   -0.095595
  C      0.372597    3.633756   -0.190072
  C      1.088070    2.474055   -0.158979
  H     -1.556334   -4.521083    0.288305
  H     -2.757207   -2.401212    0.165480
  H      2.191940   -2.479723    0.253879
  H      0.923359   -4.571902    0.361131
  H     -1.594294    4.516734   -0.111060
  H      0.879381    4.583479   -0.292754
  H      2.164616    2.498985   -0.244324
  N     -1.637803   -0.002750    0.085158
  C      2.637083    0.010592   -0.006137
  C      3.325757   -0.605257   -1.052851
  C      3.366589    0.628500    1.010373
  C      4.708226   -0.590900   -1.080020
  C      4.749613    0.614135    0.981443
  C      5.456098    0.010648   -0.062508
  H      5.223921   -1.061677   -1.908342
  H      5.279303    1.094153    1.798088
  H      2.767725   -1.081822   -1.849660
  H      2.842344    1.105386    1.829414
  C     -3.084811   -0.007163    0.112132
  C     -3.788654    0.000844   -1.077068
  C     -3.745971   -0.017019    1.332515
  C     -5.174897   -0.000005   -1.059373
  H     -3.254489    0.008786   -2.018825
  C     -5.124463   -0.018078    1.356560
  H     -3.178105   -0.023609    2.254171
  C     -5.848991   -0.008910    0.161465
  H     -5.718598    0.006315   -1.992862
  H     -5.661486   -0.024921    2.295747
  O     -7.190548   -0.009140    0.286753
  C     -7.964917    0.002394   -0.903614
  H     -9.004202    0.002154   -0.587829
  H     -7.769996    0.897488   -1.498028
  H     -7.774083   -0.883563   -1.512860
  B      7.018247   -0.007612   -0.113453
  O      7.825969    0.506358    0.862123
  H      7.348667    0.885249    1.607546
  O      7.613927   -0.575474   -1.202474
  H      8.576005   -0.545985   -1.146440

 Total Charge           Charge          ....    1
 Multiplicity           Mult            ....    1
 Number of Electrons    NEL             ....  212
 Basis Dimension        Dim             .... 1087

ORBITAL ENERGIES
----------------

  NO   OCC          E(Eh)            E(eV)
   0   2.0000     -20.041192      -545.3485
   1   2.0000     -20.015803      -544.6577
   2   2.0000     -20.010879      -544.5237
   3   2.0000     -15.188530      -413.3009
   4   2.0000     -10.918086      -297.0962
   5   2.0000     -10.918048      -297.0952
   6   2.0000     -10.905779      -296.7613
   7   2.0000     -10.899129      -296.5804
   8   2.0000     -10.873097      -295.8720
   9   2.0000     -10.869106      -295.7634
  10   2.0000     -10.869086      -295.7629
  11   2.0000     -10.859054      -295.4899
  12   2.0000     -10.856226      -295.4129
  13   2.0000     -10.852341      -295.3072
  14   2.0000     -10.852321      -295.3067
  15   2.0000     -10.848266      -295.1963
  16   2.0000     -10.848251      -295.1959
  17   2.0000     -10.841375      -295.0088
  18   2.0000     -10.840458      -294.9839
  19   2.0000     -10.840048      -294.9727
  20   2.0000     -10.840029      -294.9722
  21   2.0000     -10.836405      -294.8736
  22   2.0000     -10.835917      -294.8603
  23   2.0000     -10.835902      -294.8599
  24   2.0000     -10.835561      -294.8506
  25   2.0000     -10.834883      -294.8322
  26   2.0000     -10.831882      -294.7505
  27   2.0000     -10.829117      -294.6753
  28   2.0000     -10.827806      -294.6396
  29   2.0000     -10.818349      -294.3822
  30   2.0000      -7.303632      -198.7419
  31   2.0000      -1.302018       -35.4297
  32   2.0000      -1.264160       -34.3995
  33   2.0000      -1.245940       -33.9037
  34   2.0000      -1.225788       -33.3554
  35   2.0000      -1.105064       -30.0703
  36   2.0000      -1.087277       -29.5863
  37   2.0000      -1.071274       -29.1509
  38   2.0000      -1.057458       -28.7749
  39   2.0000      -1.024575       -27.8801
  40   2.0000      -0.973451       -26.4890
  41   2.0000      -0.959164       -26.1002
  42   2.0000      -0.955763       -26.0076
  43   2.0000      -0.946956       -25.7680
  44   2.0000      -0.939603       -25.5679
  45   2.0000      -0.937386       -25.5076
  46   2.0000      -0.920769       -25.0554
  47   2.0000      -0.869111       -23.6497
  48   2.0000      -0.849611       -23.1191
  49   2.0000      -0.822488       -22.3810
  50   2.0000      -0.809699       -22.0330
  51   2.0000      -0.781275       -21.2596
  52   2.0000      -0.770906       -20.9774
  53   2.0000      -0.765346       -20.8261
  54   2.0000      -0.762081       -20.7373
  55   2.0000      -0.731849       -19.9146
  56   2.0000      -0.711461       -19.3598
  57   2.0000      -0.710673       -19.3384
  58   2.0000      -0.699880       -19.0447
  59   2.0000      -0.685834       -18.6625
  60   2.0000      -0.678164       -18.4538
  61   2.0000      -0.661323       -17.9955
  62   2.0000      -0.647498       -17.6193
  63   2.0000      -0.636291       -17.3143
  64   2.0000      -0.627873       -17.0853
  65   2.0000      -0.611083       -16.6284
  66   2.0000      -0.607583       -16.5332
  67   2.0000      -0.603809       -16.4305
  68   2.0000      -0.596069       -16.2199
  69   2.0000      -0.586875       -15.9697
  70   2.0000      -0.575726       -15.6663
  71   2.0000      -0.574691       -15.6381
  72   2.0000      -0.570972       -15.5369
  73   2.0000      -0.569490       -15.4966
  74   2.0000      -0.565176       -15.3792
  75   2.0000      -0.560202       -15.2439
  76   2.0000      -0.550880       -14.9902
  77   2.0000      -0.548348       -14.9213
  78   2.0000      -0.541006       -14.7215
  79   2.0000      -0.526663       -14.3312
  80   2.0000      -0.520082       -14.1521
  81   2.0000      -0.516950       -14.0669
  82   2.0000      -0.509435       -13.8624
  83   2.0000      -0.505270       -13.7491
  84   2.0000      -0.500958       -13.6318
  85   2.0000      -0.493791       -13.4367
  86   2.0000      -0.491788       -13.3822
  87   2.0000      -0.482903       -13.1404
  88   2.0000      -0.479265       -13.0415
  89   2.0000      -0.472897       -12.8682
  90   2.0000      -0.466711       -12.6998
  91   2.0000      -0.458671       -12.4811
  92   2.0000      -0.454125       -12.3574
  93   2.0000      -0.448398       -12.2015
  94   2.0000      -0.445185       -12.1141
  95   2.0000      -0.437129       -11.8949
  96   2.0000      -0.432958       -11.7814
  97   2.0000      -0.430444       -11.7130
  98   2.0000      -0.406907       -11.0725
  99   2.0000      -0.357510        -9.7283
 100   2.0000      -0.337677        -9.1887
 101   2.0000      -0.334511        -9.1025
 102   2.0000      -0.333935        -9.0868
 103   2.0000      -0.329186        -8.9576
 104   2.0000      -0.307439        -8.3658
 105   2.0000      -0.298820        -8.1313
 106   0.0000      -0.062855        -1.7104
 107   0.0000       0.015501         0.4218
 108   0.0000       0.020061         0.5459
 109   0.0000       0.035684         0.9710
 110   0.0000       0.052227         1.4212

MULLIKEN ATOMIC CHARGES
-----------------------
   0 C :   -0.091272
   1 C :   -0.280949
   2 C :    0.207159
   3 C :    0.085021
   4 C :   -0.274893
   5 C :   -0.169323
   6 C :    0.350476
   7 C :    0.085715
   8 C :    0.206930
   9 C :   -0.281483
  10 H :    0.195741
  11 C :   -0.090312
  12 C :   -0.169330
  13 C :   -0.275334
  14 H :    0.187278
  15 H :    0.195869
  16 H :    0.203012
  17 H :    0.183183
  18 H :    0.187396
  19 H :    0.183101
  20 H :    0.202765
  21 N :    0.210505
  22 C :    0.013047
  23 C :   -0.276940
  24 C :   -0.300783
  25 C :   -0.200155
  26 C :   -0.252397
  27 C :    0.030905
  28 H :    0.173165
  29 H :    0.158333
  30 H :    0.185207
  31 H :    0.186348
  32 C :    0.025302
  33 C :   -0.252335
  34 C :   -0.222929
  35 C :   -0.252830
  36 H :    0.181757
  37 C :   -0.223272
  38 H :    0.178324
  39 C :    0.389569
  40 H :    0.185232
  41 H :    0.166696
  42 O :   -0.316626
  43 C :   -0.233134
  44 H :    0.165249
  45 H :    0.150508
  46 H :    0.150546
  47 B :    0.471200
  48 O :   -0.531604
  49 H :    0.374663
  50 O :   -0.549897
  51 H :    0.375598
Sum of atomic charges:    1.0000000

LOEWDIN ATOMIC CHARGES
----------------------
   0 C :   -0.078836
   1 C :   -0.101339
   2 C :   -0.057425
   3 C :   -0.055494
   4 C :   -0.060252
   5 C :   -0.127910
   6 C :    0.064962
   7 C :   -0.055506
   8 C :   -0.057287
   9 C :   -0.101279
  10 H :    0.173076
  11 C :   -0.078823
  12 C :   -0.128028
  13 C :   -0.060275
  14 H :    0.166723
  15 H :    0.173063
  16 H :    0.172911
  17 H :    0.162053
  18 H :    0.166719
  19 H :    0.162034
  20 H :    0.172847
  21 N :    0.356877
  22 C :   -0.098259
  23 C :   -0.087635
  24 C :   -0.087853
  25 C :   -0.074920
  26 C :   -0.083680
  27 C :   -0.069961
  28 H :    0.164687
  29 H :    0.161415
  30 H :    0.166644
  31 H :    0.166897
  32 C :   -0.179756
  33 C :   -0.087023
  34 C :   -0.090039
  35 C :   -0.126939
  36 H :    0.169509
  37 C :   -0.110705
  38 H :    0.169089
  39 C :   -0.238418
  40 H :    0.164741
  41 H :    0.161649
  42 O :    0.209751
  43 C :   -0.300807
  44 H :    0.118588
  45 H :    0.115135
  46 H :    0.115120
  47 B :   -0.816871
  48 O :    0.154732
  49 H :    0.222757
  50 O :    0.157467
  51 H :    0.225872

  Mayer bond orders larger than 0.100000
B(  0-C ,  1-C ) :   1.5311 B(  0-C ,  5-C ) :   1.2193 B(  0-C , 14-H ) :   0.9672
B(  1-C ,  2-C ) :   1.2495 B(  1-C , 15-H ) :   0.9699 B(  2-C ,  3-C ) :   1.2580
B(  2-C , 21-N ) :   1.2369 B(  3-C ,  4-C ) :   1.1732 B(  3-C ,  6-C ) :   1.1923
B(  4-C ,  5-C ) :   1.5977 B(  4-C , 16-H ) :   0.9594 B(  5-C , 17-H ) :   0.9775
B(  6-C ,  7-C ) :   1.1927 B(  6-C , 22-C ) :   0.7979 B(  7-C ,  8-C ) :   1.2582
B(  7-C , 13-C ) :   1.1741 B(  8-C ,  9-C ) :   1.2493 B(  8-C , 21-N ) :   1.2368
B(  9-C , 10-H ) :   0.9699 B(  9-C , 11-C ) :   1.5312 B( 11-C , 12-C ) :   1.2196
B( 11-C , 18-H ) :   0.9669 B( 12-C , 13-C ) :   1.5969 B( 12-C , 19-H ) :   0.9775
B( 13-C , 20-H ) :   0.9597 B( 21-N , 32-C ) :   0.7235 B( 22-C , 23-C ) :   1.3623
B( 22-C , 24-C ) :   1.3743 B( 23-C , 25-C ) :   1.4163 B( 23-C , 30-H ) :   0.9935
B( 24-C , 26-C ) :   1.4523 B( 24-C , 31-H ) :   0.9894 B( 25-C , 27-C ) :   1.3541
B( 25-C , 28-H ) :   0.9809 B( 26-C , 27-C ) :   1.3448 B( 26-C , 29-H ) :   0.9793
B( 27-C , 47-B ) :   0.9926 B( 32-C , 33-C ) :   1.5333 B( 32-C , 34-C ) :   1.4755
B( 33-C , 35-C ) :   1.3952 B( 33-C , 36-H ) :   0.9700 B( 34-C , 37-C ) :   1.4598
B( 34-C , 38-H ) :   0.9851 B( 35-C , 39-C ) :   1.3221 B( 35-C , 40-H ) :   0.9653
B( 37-C , 39-C ) :   1.3233 B( 37-C , 41-H ) :   0.9937 B( 39-C , 42-O ) :   1.1269
B( 42-O , 43-C ) :   0.8928 B( 43-C , 44-H ) :   0.9701 B( 43-C , 45-H ) :   0.9700
B( 43-C , 46-H ) :   0.9700 B( 47-B , 48-O ) :   1.2578 B( 47-B , 50-O ) :   1.2505
B( 48-O , 49-H ) :   0.8480 B( 50-O , 51-H ) :   0.8431

MP2 TOTAL ENERGY:    -1307.428905132 Eh

-----------------------------------------------------------------------------
         ABSORPTION SPECTRUM VIA TRANSITION ELECTRIC DIPOLE MOMENTS
-----------------------------------------------------------------------------
State   Energy    Wavelength  fosc         T2        TX        TY        TZ
        (cm-1)      (nm)                 (au**2)    (au)      (au)      (au)
-----------------------------------------------------------------------------
   1   23659.5    422.7   0.263079630   3.66064  -1.91310  -0.00614   0.02549
   2   28704.6    348.4   0.340718263   3.90768  -0.00607   1.97432  -0.09849
   3   27707.7    360.9   0.002216359   0.02633  -0.11630   0.11300   0.00617
   4   31715.6    315.3   0.137713007   1.42948  -1.18336  -0.17068   0.00285
   5   31656.3    315.9   0.048650964   0.50595  -0.32573   0.63138   0.03482
   6   32924.5    303.7   0.026790718   0.26788  -0.01580  -0.35862   0.37286
   7   36830.3    271.5   0.258031280   2.30644  -0.02027  -1.51816  -0.03506
   8   38087.0    262.6   0.127056199   1.09823   0.06929  -0.87608   0.57089
   9   39133.6    255.5   0.820796208   6.90496   0.01872  -2.62553   0.10582
  10   39531.8    253.0   0.100825082   0.83965   0.09037   0.88712   0.21097
  11   45145.1    221.5   0.136862877   0.99805  -0.99876   0.02304  -0.00110
  12   46676.3    214.2   0.077624916   0.54750   0.71810  -0.01454   0.17779
  13   46676.5    214.2   0.048330830   0.34088  -0.58073  -0.00238   0.06020
  14   45279.3    220.9   0.049054911   0.35666  -0.00759   0.55234   0.22699
  15   43468.6    230.1   0.000825580   0.00625  -0.07384  -0.01044   0.02629
  16   47034.5    212.6   0.009426569   0.06598   0.25685   0.00139   0.00280
  17   47606.1    210.1   0.850759292   5.88328   2.42399   0.04479   0.07455
  18   46727.8    214.0   0.123308391   0.86875  -0.86489   0.10232   0.33204
  19   44363.9    225.4   0.036183297   0.26851  -0.44549   0.02499   0.26348
  20   51478.6    194.3   1.786247742  11.42328   3.37439  -0.09381  -0.16716
  21   51296.3    194.9   0.309024341   1.98327   0.48167   0.68414   1.13279
  22   51028.4    196.0   0.010123561   0.06531   0.23157   0.04751   0.09711
  23   49936.6    200.3   0.076483311   0.50422   0.00868   0.63167  -0.32426
  24   52605.5    190.1   0.422352494   2.64314   0.12097   0.03463   1.62090
  25   51378.9    194.6   0.001653259   0.01059  -0.10036   0.01498   0.01721
  26   50966.3    196.2   0.011976888   0.07736   0.07719  -0.22187  -0.14893
  27   51352.7    194.7   0.001473271   0.00944  -0.09525   0.01923   0.00132
  28   51202.1    195.3   0.108223248   0.69584  -0.00629  -0.80658  -0.21268
  29   51248.3    195.1   0.013730561   0.08820  -0.03937   0.28794  -0.06118
  30   51665.6    193.6   0.000891561   0.00568  -0.07275  -0.01515   0.01260

FINAL SINGLE POINT ENERGY     -1305.452836582130

DIPOLE MOMENT
-------------
                                X             Y             Z
Electronic contribution:     16.28540      -0.05133       2.16470
Nuclear contribution   :    -18.09944       0.39115      -2.12544
                        -----------------------------------------
Total Dipole Moment    :     -1.81404       0.33982       0.03925
                        -----------------------------------------
Magnitude (a.u.)       :      1.84601
Magnitude (Debye)      :      4.69219

Rotational constants in cm-1:     0.012596     0.002183     0.001953
Rotational constants in MHz :   377.610801    65.449689    58.549588

                             ****ORCA TERMINATED NORMALLY****
TOTAL RUN TIME: 0 days 8 hours 21 minutes 33 seconds 684 msec
