                         Program Version 5.0.2 -  RELEASE  -
|  1> %maxcore 3200
|  2> %pal
|  3>  nprocs= 8
|  4> end
|  5> ! RI-B2PLYP D3BJ def2-TZVP def2/J def2-TZVP/C RIJCOSX CPCM TightSCF
|  6> %TDDFT DCORR 4
|  7>    NROOTS   30
|  8>
|  9>    TDA      FALSE
| 10> END
| 11>
| 12> %CPCM
| 13>    SMD          TRUE
| 14>    SMDsolvent   "ACETONITRILE"
| 15> END
| 16>
| 17>
| 18> * xyz 1 1
| 19> C                  -0.99815600   -3.59492200    0.24638100
| 20> C                  -1.67788100   -2.40979500    0.17633400
| 21> C                  -0.96971200   -1.19623700    0.12146300
| 22> C                   0.45725200   -1.20773700    0.11133000
| 23> C                   1.11251800   -2.46141800    0.21572500
| 24> C                   0.40645600   -3.62559900    0.27957300
| 25> C                   1.16289900    0.00657700    0.02600200
| 26> C                   0.44603300    1.21608400   -0.02810600
| 27> C                  -0.97992300    1.19540200    0.02317300
| 28> C                  -1.69757800    2.40447500    0.00145200
| 29> H                  -2.77527400    2.38913800    0.05955700
| 30> C                  -1.02900200    3.59407800   -0.09559500
| 31> C                   0.37259700    3.63375600   -0.19007200
| 32> C                   1.08807000    2.47405500   -0.15897900
| 33> H                  -1.55633400   -4.52108300    0.28830500
| 34> H                  -2.75720700   -2.40121200    0.16548000
| 35> H                   2.19194000   -2.47972300    0.25387900
| 36> H                   0.92335900   -4.57190200    0.36113100
| 37> H                  -1.59429400    4.51673400   -0.11106000
| 38> H                   0.87938100    4.58347900   -0.29275400
| 39> H                   2.16461600    2.49898500   -0.24432400
| 40> N                  -1.63780300   -0.00275000    0.08515800
| 41> C                   2.63708300    0.01059200   -0.00613700
| 42> C                   3.32575700   -0.60525700   -1.05285100
| 43> C                   3.36658900    0.62850000    1.01037300
| 44> C                   4.70822600   -0.59090000   -1.08002000
| 45> C                   4.74961300    0.61413500    0.98144300
| 46> C                   5.45609800    0.01064800   -0.06250800
| 47> H                   5.22392100   -1.06167700   -1.90834200
| 48> H                   5.27930300    1.09415300    1.79808800
| 49> H                   2.76772500   -1.08182200   -1.84966000
| 50> H                   2.84234400    1.10538600    1.82941400
| 51> C                  -3.08481100   -0.00716300    0.11213200
| 52> C                  -3.78865400    0.00084400   -1.07706800
| 53> C                  -3.74597100   -0.01701900    1.33251500
| 54> C                  -5.17489700   -0.00000500   -1.05937300
| 55> H                  -3.25448900    0.00878600   -2.01882500
| 56> C                  -5.12446300   -0.01807800    1.35656000
| 57> H                  -3.17810500   -0.02360900    2.25417100
| 58> C                  -5.84899100   -0.00891000    0.16146500
| 59> H                  -5.71859800    0.00631500   -1.99286200
| 60> H                  -5.66148600   -0.02492100    2.29574700
| 61> O                  -7.19054800   -0.00914000    0.28675300
| 62> C                  -7.96491700    0.00239400   -0.90361400
| 63> H                  -9.00420200    0.00215400   -0.58782900
| 64> H                  -7.76999600    0.89748800   -1.49802800
| 65> H                  -7.77408300   -0.88356300   -1.51286000
| 66> B                   7.01824700   -0.00761200   -0.11345300
| 67> O                   7.82596900    0.50635800    0.86212300
| 68> H                   7.34866700    0.88524900    1.60754600
| 69> O                   7.61392700   -0.57547400   -1.20247400
| 70> H                   8.57600500   -0.54598500   -1.14644000
| 71> *
| 72>
| 73>
| 74>                          ****END OF INPUT****

CARTESIAN COORDINATES (ANGSTROEM)
---------------------------------
  C     -0.998156   -3.594922    0.246381
  C     -1.677881   -2.409795    0.176334
  C     -0.969712   -1.196237    0.121463
  C      0.457252   -1.207737    0.111330
  C      1.112518   -2.461418    0.215725
  C      0.406456   -3.625599    0.279573
  C      1.162899    0.006577    0.026002
  C      0.446033    1.216084   -0.028106
  C     -0.979923    1.195402    0.023173
  C     -1.697578    2.404475    0.001452
  H     -2.775274    2.389138    0.059557
  C     -1.029002    3.594078   -0.095595
  C      0.372597    3.633756   -0.190072
  C      1.088070    2.474055   -0.158979
  H     -1.556334   -4.521083    0.288305
  H     -2.757207   -2.401212    0.165480
  H      2.191940   -2.479723    0.253879
  H      0.923359   -4.571902    0.361131
  H     -1.594294    4.516734   -0.111060
  H      0.879381    4.583479   -0.292754
  H      2.164616    2.498985   -0.244324
  N     -1.637803   -0.002750    0.085158
  C      2.637083    0.010592   -0.006137
  C      3.325757   -0.605257   -1.052851
  C      3.366589    0.628500    1.010373
  C      4.708226   -0.590900   -1.080020
  C      4.749613    0.614135    0.981443
  C      5.456098    0.010648   -0.062508
  H      5.223921   -1.061677   -1.908342
  H      5.279303    1.094153    1.798088
  H      2.767725   -1.081822   -1.849660
  H      2.842344    1.105386    1.829414
  C     -3.084811   -0.007163    0.112132
  C     -3.788654    0.000844   -1.077068
  C     -3.745971   -0.017019    1.332515
  C     -5.174897   -0.000005   -1.059373
  H     -3.254489    0.008786   -2.018825
  C     -5.124463   -0.018078    1.356560
  H     -3.178105   -0.023609    2.254171
  C     -5.848991   -0.008910    0.161465
  H     -5.718598    0.006315   -1.992862
  H     -5.661486   -0.024921    2.295747
  O     -7.190548   -0.009140    0.286753
  C     -7.964917    0.002394   -0.903614
  H     -9.004202    0.002154   -0.587829
  H     -7.769996    0.897488   -1.498028
  H     -7.774083   -0.883563   -1.512860
  B      7.018247   -0.007612   -0.113453
  O      7.825969    0.506358    0.862123
  H      7.348667    0.885249    1.607546
  O      7.613927   -0.575474   -1.202474
  H      8.576005   -0.545985   -1.146440

 Total Charge           Charge          ....    1
 Multiplicity           Mult            ....    1
 Number of Electrons    NEL             ....  212
 Basis Dimension        Dim             .... 1087

ORBITAL ENERGIES
----------------

  NO   OCC          E(Eh)            E(eV)
   0   2.0000     -19.760411      -537.7081
   1   2.0000     -19.737238      -537.0775
   2   2.0000     -19.732408      -536.9461
   3   2.0000     -14.940535      -406.5526
   4   2.0000     -10.708805      -291.4014
   5   2.0000     -10.708771      -291.4005
   6   2.0000     -10.694295      -291.0066
   7   2.0000     -10.692218      -290.9500
   8   2.0000     -10.666329      -290.2456
   9   2.0000     -10.662580      -290.1436
  10   2.0000     -10.662563      -290.1431
  11   2.0000     -10.657214      -289.9975
  12   2.0000     -10.648295      -289.7548
  13   2.0000     -10.645242      -289.6718
  14   2.0000     -10.645224      -289.6713
  15   2.0000     -10.641302      -289.5645
  16   2.0000     -10.641288      -289.5642
  17   2.0000     -10.635101      -289.3958
  18   2.0000     -10.635085      -289.3954
  19   2.0000     -10.635011      -289.3934
  20   2.0000     -10.634203      -289.3714
  21   2.0000     -10.631128      -289.2877
  22   2.0000     -10.631115      -289.2873
  23   2.0000     -10.630000      -289.2570
  24   2.0000     -10.629174      -289.2345
  25   2.0000     -10.628609      -289.2192
  26   2.0000     -10.625596      -289.1372
  27   2.0000     -10.624096      -289.0963
  28   2.0000     -10.622913      -289.0641
  29   2.0000     -10.611566      -288.7554
  30   2.0000      -7.141486      -194.3297
  31   2.0000      -1.220682       -33.2165
  32   2.0000      -1.184556       -32.2334
  33   2.0000      -1.167409       -31.7668
  34   2.0000      -1.147881       -31.2354
  35   2.0000      -1.031123       -28.0583
  36   2.0000      -1.014617       -27.6091
  37   2.0000      -0.998787       -27.1784
  38   2.0000      -0.986059       -26.8320
  39   2.0000      -0.954679       -25.9781
  40   2.0000      -0.907005       -24.6809
  41   2.0000      -0.893375       -24.3100
  42   2.0000      -0.889664       -24.2090
  43   2.0000      -0.881181       -23.9782
  44   2.0000      -0.873870       -23.7792
  45   2.0000      -0.871494       -23.7146
  46   2.0000      -0.856953       -23.3189
  47   2.0000      -0.809264       -22.0212
  48   2.0000      -0.789937       -21.4953
  49   2.0000      -0.765084       -20.8190
  50   2.0000      -0.752487       -20.4762
  51   2.0000      -0.725737       -19.7483
  52   2.0000      -0.715683       -19.4747
  53   2.0000      -0.710407       -19.3312
  54   2.0000      -0.707016       -19.2389
  55   2.0000      -0.679031       -18.4774
  56   2.0000      -0.660953       -17.9854
  57   2.0000      -0.659374       -17.9425
  58   2.0000      -0.649911       -17.6850
  59   2.0000      -0.637137       -17.3374
  60   2.0000      -0.629965       -17.1422
  61   2.0000      -0.613730       -16.7004
  62   2.0000      -0.600399       -16.3377
  63   2.0000      -0.589150       -16.0316
  64   2.0000      -0.581323       -15.8186
  65   2.0000      -0.565420       -15.3859
  66   2.0000      -0.561845       -15.2886
  67   2.0000      -0.558784       -15.2053
  68   2.0000      -0.549302       -14.9473
  69   2.0000      -0.542185       -14.7536
  70   2.0000      -0.531881       -14.4732
  71   2.0000      -0.531327       -14.4581
  72   2.0000      -0.527657       -14.3583
  73   2.0000      -0.525741       -14.3061
  74   2.0000      -0.522525       -14.2186
  75   2.0000      -0.517630       -14.0854
  76   2.0000      -0.508808       -13.8454
  77   2.0000      -0.504795       -13.7362
  78   2.0000      -0.499189       -13.5836
  79   2.0000      -0.485438       -13.2094
  80   2.0000      -0.477095       -12.9824
  81   2.0000      -0.475510       -12.9393
  82   2.0000      -0.467168       -12.7123
  83   2.0000      -0.465237       -12.6598
  84   2.0000      -0.455096       -12.3838
  85   2.0000      -0.454325       -12.3628
  86   2.0000      -0.453030       -12.3276
  87   2.0000      -0.443843       -12.0776
  88   2.0000      -0.440823       -11.9954
  89   2.0000      -0.434965       -11.8360
  90   2.0000      -0.428261       -11.6536
  91   2.0000      -0.421161       -11.4604
  92   2.0000      -0.416151       -11.3240
  93   2.0000      -0.411087       -11.1862
  94   2.0000      -0.401494       -10.9252
  95   2.0000      -0.399777       -10.8785
  96   2.0000      -0.394350       -10.7308
  97   2.0000      -0.393076       -10.6961
  98   2.0000      -0.374328       -10.1860
  99   2.0000      -0.328200        -8.9308
 100   2.0000      -0.309449        -8.4205
 101   2.0000      -0.307162        -8.3583
 102   2.0000      -0.305302        -8.3077
 103   2.0000      -0.301844        -8.2136
 104   2.0000      -0.278452        -7.5771
 105   2.0000      -0.272814        -7.4237
 106   0.0000      -0.074321        -2.0224
 107   0.0000       0.000888         0.0242
 108   0.0000       0.004699         0.1279
 109   0.0000       0.018910         0.5146
 110   0.0000       0.034815         0.9474

MULLIKEN ATOMIC CHARGES
-----------------------
   0 C :   -0.100318
   1 C :   -0.224925
   2 C :    0.168427
   3 C :    0.098519
   4 C :   -0.247743
   5 C :   -0.153512
   6 C :    0.323077
   7 C :    0.099559
   8 C :    0.167924
   9 C :   -0.225234
  10 H :    0.186160
  11 C :   -0.099564
  12 C :   -0.153418
  13 C :   -0.248401
  14 H :    0.175901
  15 H :    0.186182
  16 H :    0.192520
  17 H :    0.170307
  18 H :    0.175989
  19 H :    0.170228
  20 H :    0.192233
  21 N :    0.141538
  22 C :    0.020593
  23 C :   -0.251153
  24 C :   -0.275014
  25 C :   -0.184422
  26 C :   -0.235774
  27 C :    0.024314
  28 H :    0.158197
  29 H :    0.145999
  30 H :    0.169898
  31 H :    0.170969
  32 C :    0.063168
  33 C :   -0.240884
  34 C :   -0.216220
  35 C :   -0.229081
  36 H :    0.168589
  37 C :   -0.192106
  38 H :    0.164899
  39 C :    0.372934
  40 H :    0.171376
  41 H :    0.153200
  42 O :   -0.328243
  43 C :   -0.195179
  44 H :    0.153147
  45 H :    0.139876
  46 H :    0.139913
  47 B :    0.451541
  48 O :   -0.510757
  49 H :    0.361531
  50 O :   -0.528785
  51 H :    0.362025
Sum of atomic charges:    1.0000000

LOEWDIN ATOMIC CHARGES
----------------------
   0 C :   -0.081050
   1 C :   -0.096183
   2 C :   -0.058536
   3 C :   -0.049643
   4 C :   -0.059942
   5 C :   -0.123445
   6 C :    0.061103
   7 C :   -0.049648
   8 C :   -0.058396
   9 C :   -0.096122
  10 H :    0.170286
  11 C :   -0.081028
  12 C :   -0.123560
  13 C :   -0.059957
  14 H :    0.163128
  15 H :    0.170272
  16 H :    0.169811
  17 H :    0.158893
  18 H :    0.163123
  19 H :    0.158873
  20 H :    0.169742
  21 N :    0.361138
  22 C :   -0.093263
  23 C :   -0.085565
  24 C :   -0.085758
  25 C :   -0.074042
  26 C :   -0.082665
  27 C :   -0.066108
  28 H :    0.161077
  29 H :    0.157956
  30 H :    0.162883
  31 H :    0.163147
  32 C :   -0.172780
  33 C :   -0.086792
  34 C :   -0.089708
  35 C :   -0.124236
  36 H :    0.165739
  37 C :   -0.108261
  38 H :    0.165383
  39 C :   -0.238520
  40 H :    0.161669
  41 H :    0.158140
  42 O :    0.216002
  43 C :   -0.297424
  44 H :    0.116577
  45 H :    0.112812
  46 H :    0.112798
  47 B :   -0.827724
  48 O :    0.161764
  49 H :    0.220287
  50 O :    0.164978
  51 H :    0.222776

  Mayer bond orders larger than 0.100000
B(  0-C ,  1-C ) :   1.5244 B(  0-C ,  5-C ) :   1.2251 B(  0-C , 14-H ) :   0.9705
B(  1-C ,  2-C ) :   1.2460 B(  1-C , 15-H ) :   0.9673 B(  2-C ,  3-C ) :   1.2579
B(  2-C , 21-N ) :   1.2317 B(  3-C ,  4-C ) :   1.1873 B(  3-C ,  6-C ) :   1.1860
B(  4-C ,  5-C ) :   1.5848 B(  4-C , 16-H ) :   0.9579 B(  5-C , 17-H ) :   0.9811
B(  6-C ,  7-C ) :   1.1860 B(  6-C , 22-C ) :   0.8187 B(  7-C ,  8-C ) :   1.2581
B(  7-C , 13-C ) :   1.1877 B(  8-C ,  9-C ) :   1.2460 B(  8-C , 21-N ) :   1.2317
B(  9-C , 10-H ) :   0.9673 B(  9-C , 11-C ) :   1.5246 B( 11-C , 12-C ) :   1.2253
B( 11-C , 18-H ) :   0.9703 B( 12-C , 13-C ) :   1.5840 B( 12-C , 19-H ) :   0.9811
B( 13-C , 20-H ) :   0.9583 B( 21-N , 32-C ) :   0.6953 B( 22-C , 23-C ) :   1.3466
B( 22-C , 24-C ) :   1.3586 B( 23-C , 25-C ) :   1.4107 B( 23-C , 30-H ) :   0.9982
B( 24-C , 26-C ) :   1.4415 B( 24-C , 31-H ) :   0.9946 B( 25-C , 27-C ) :   1.3437
B( 25-C , 28-H ) :   0.9827 B( 26-C , 27-C ) :   1.3467 B( 26-C , 29-H ) :   0.9784
B( 27-C , 47-B ) :   0.9989 B( 32-C , 33-C ) :   1.4963 B( 32-C , 34-C ) :   1.4459
B( 33-C , 35-C ) :   1.3689 B( 33-C , 36-H ) :   0.9754 B( 34-C , 37-C ) :   1.4502
B( 34-C , 38-H ) :   0.9915 B( 35-C , 39-C ) :   1.3051 B( 35-C , 40-H ) :   0.9709
B( 37-C , 39-C ) :   1.3204 B( 37-C , 41-H ) :   0.9943 B( 39-C , 42-O ) :   1.1264
B( 42-O , 43-C ) :   0.8861 B( 43-C , 44-H ) :   0.9729 B( 43-C , 45-H ) :   0.9706
B( 43-C , 46-H ) :   0.9706 B( 47-B , 48-O ) :   1.2642 B( 47-B , 50-O ) :   1.2587
B( 48-O , 49-H ) :   0.8571 B( 50-O , 51-H ) :   0.8527

MP2 TOTAL ENERGY:    -1308.082379943 Eh

-----------------------------------------------------------------------------
         ABSORPTION SPECTRUM VIA TRANSITION ELECTRIC DIPOLE MOMENTS
-----------------------------------------------------------------------------
State   Energy    Wavelength  fosc         T2        TX        TY        TZ
        (cm-1)      (nm)                 (au**2)    (au)      (au)      (au)
-----------------------------------------------------------------------------
   1   23259.6    429.9   0.242543480   3.43292  -1.85264  -0.00594   0.02471
   2   24080.7    415.3   0.000260837   0.00357   0.00538  -0.05888   0.00836
   3   29538.6    338.5   0.330650637   3.68515  -0.00237  -1.91798   0.08058
   4   29468.0    339.4   0.111458455   1.24520  -1.11582   0.01099   0.00310
   5   29903.2    334.4   0.004901133   0.05396  -0.10795   0.16635   0.12097
   6   31309.2    319.4   0.026196523   0.27545  -0.01436  -0.45672   0.25818
   7   33104.8    302.1   0.016665027   0.16573   0.00574   0.39970  -0.07701
   8   38579.9    259.2   0.128955309   1.10041   0.06856  -0.86706   0.58644
   9   38940.0    256.8   1.077730415   9.11149   0.00683  -3.01722   0.08837
  10   40233.8    248.5   0.085863724   0.70258   0.08549   0.79430   0.25370
  11   42581.1    234.8   0.152617345   1.17995  -1.08613   0.01187   0.01144
  12   46016.3    217.3   0.079513147   0.56886   0.72696   0.00050   0.20095
  13   43259.3    231.2   0.077444614   0.58937  -0.00318  -0.74588  -0.18174
  14   42349.8    236.1   0.046529108   0.36170   0.60048  -0.03210   0.00964
  15   46066.2    217.1   0.015164331   0.10837   0.32392  -0.00091   0.05872
  16   40663.0    245.9   0.002614085   0.02116  -0.08933   0.10840   0.03786
  17   46489.7    215.1   0.049747552   0.35228  -0.59339  -0.01264   0.00269
  18   45225.3    221.1   0.488512478   3.55606   1.88518   0.00967  -0.04562
  19   43794.0    228.3   0.008664133   0.06513   0.12540  -0.02574  -0.22078
  20   46711.4    214.1   0.063674297   0.44876  -0.15796   0.32041   0.56670
  21   47070.1    212.4   0.017589092   0.12302   0.28779   0.05082   0.19394
  22   49101.2    203.7   1.669260437  11.19201  -3.34517  -0.01881   0.03887
  23   48233.1    207.3   0.071963876   0.49119  -0.24786  -0.03908  -0.65439
  24   48992.1    204.1   0.165042688   1.10904  -1.02860  -0.04147   0.22204
  25   44444.6    225.0   0.050690396   0.37548  -0.60813  -0.03851   0.06459
  26   47834.3    209.1   0.057295956   0.39433  -0.14277   0.58750  -0.16968
  27   47975.7    208.4   0.001875404   0.01287  -0.10183   0.01932   0.04612
  28   48379.5    206.7   0.090548337   0.61616  -0.22699   0.57290  -0.48624
  29   49296.4    202.9   0.221671919   1.48037  -0.15140  -0.63072  -1.02939
  30   47926.6    208.7   0.000240114   0.00165  -0.02746  -0.02826  -0.00982

Dispersion correction           -0.061850027
FINAL SINGLE POINT ENERGY     -1306.392286976939

DIPOLE MOMENT
-------------
                                X             Y             Z
Electronic contribution:     16.23601      -0.05382       2.16794
Nuclear contribution   :    -18.09944       0.39115      -2.12544
                        -----------------------------------------
Total Dipole Moment    :     -1.86343       0.33733       0.04250
                        -----------------------------------------
Magnitude (a.u.)       :      1.89419
Magnitude (Debye)      :      4.81466

Rotational constants in cm-1:     0.012596     0.002183     0.001953
Rotational constants in MHz :   377.610801    65.449689    58.549588

                             ****ORCA TERMINATED NORMALLY****
TOTAL RUN TIME: 0 days 11 hours 16 minutes 15 seconds 583 msec
