                         Program Version 5.0.2 -  RELEASE  -
|  1> %maxcore 3200
|  2> %pal
|  3>  nprocs= 8
|  4> end
|  5> ! RI-wB2PLYP def2-TZVP def2/J def2-TZVP/C RIJCOSX CPCM TightSCF
|  6> %TDDFT DCORR 1
|  7>    NROOTS   30
|  8>
|  9>    TDA      FALSE
| 10> END
| 11>
| 12> %CPCM
| 13>    SMD          TRUE
| 14>    SMDsolvent   "ACETONITRILE"
| 15> END
| 16>
| 17>
| 18> * xyz 1 1
| 19> C                  -0.99815600   -3.59492200    0.24638100
| 20> C                  -1.67788100   -2.40979500    0.17633400
| 21> C                  -0.96971200   -1.19623700    0.12146300
| 22> C                   0.45725200   -1.20773700    0.11133000
| 23> C                   1.11251800   -2.46141800    0.21572500
| 24> C                   0.40645600   -3.62559900    0.27957300
| 25> C                   1.16289900    0.00657700    0.02600200
| 26> C                   0.44603300    1.21608400   -0.02810600
| 27> C                  -0.97992300    1.19540200    0.02317300
| 28> C                  -1.69757800    2.40447500    0.00145200
| 29> H                  -2.77527400    2.38913800    0.05955700
| 30> C                  -1.02900200    3.59407800   -0.09559500
| 31> C                   0.37259700    3.63375600   -0.19007200
| 32> C                   1.08807000    2.47405500   -0.15897900
| 33> H                  -1.55633400   -4.52108300    0.28830500
| 34> H                  -2.75720700   -2.40121200    0.16548000
| 35> H                   2.19194000   -2.47972300    0.25387900
| 36> H                   0.92335900   -4.57190200    0.36113100
| 37> H                  -1.59429400    4.51673400   -0.11106000
| 38> H                   0.87938100    4.58347900   -0.29275400
| 39> H                   2.16461600    2.49898500   -0.24432400
| 40> N                  -1.63780300   -0.00275000    0.08515800
| 41> C                   2.63708300    0.01059200   -0.00613700
| 42> C                   3.32575700   -0.60525700   -1.05285100
| 43> C                   3.36658900    0.62850000    1.01037300
| 44> C                   4.70822600   -0.59090000   -1.08002000
| 45> C                   4.74961300    0.61413500    0.98144300
| 46> C                   5.45609800    0.01064800   -0.06250800
| 47> H                   5.22392100   -1.06167700   -1.90834200
| 48> H                   5.27930300    1.09415300    1.79808800
| 49> H                   2.76772500   -1.08182200   -1.84966000
| 50> H                   2.84234400    1.10538600    1.82941400
| 51> C                  -3.08481100   -0.00716300    0.11213200
| 52> C                  -3.78865400    0.00084400   -1.07706800
| 53> C                  -3.74597100   -0.01701900    1.33251500
| 54> C                  -5.17489700   -0.00000500   -1.05937300
| 55> H                  -3.25448900    0.00878600   -2.01882500
| 56> C                  -5.12446300   -0.01807800    1.35656000
| 57> H                  -3.17810500   -0.02360900    2.25417100
| 58> C                  -5.84899100   -0.00891000    0.16146500
| 59> H                  -5.71859800    0.00631500   -1.99286200
| 60> H                  -5.66148600   -0.02492100    2.29574700
| 61> O                  -7.19054800   -0.00914000    0.28675300
| 62> C                  -7.96491700    0.00239400   -0.90361400
| 63> H                  -9.00420200    0.00215400   -0.58782900
| 64> H                  -7.76999600    0.89748800   -1.49802800
| 65> H                  -7.77408300   -0.88356300   -1.51286000
| 66> B                   7.01824700   -0.00761200   -0.11345300
| 67> O                   7.82596900    0.50635800    0.86212300
| 68> H                   7.34866700    0.88524900    1.60754600
| 69> O                   7.61392700   -0.57547400   -1.20247400
| 70> H                   8.57600500   -0.54598500   -1.14644000
| 71> *
| 72>
| 73>
| 74>                          ****END OF INPUT****

CARTESIAN COORDINATES (ANGSTROEM)
---------------------------------
  C     -0.998156   -3.594922    0.246381
  C     -1.677881   -2.409795    0.176334
  C     -0.969712   -1.196237    0.121463
  C      0.457252   -1.207737    0.111330
  C      1.112518   -2.461418    0.215725
  C      0.406456   -3.625599    0.279573
  C      1.162899    0.006577    0.026002
  C      0.446033    1.216084   -0.028106
  C     -0.979923    1.195402    0.023173
  C     -1.697578    2.404475    0.001452
  H     -2.775274    2.389138    0.059557
  C     -1.029002    3.594078   -0.095595
  C      0.372597    3.633756   -0.190072
  C      1.088070    2.474055   -0.158979
  H     -1.556334   -4.521083    0.288305
  H     -2.757207   -2.401212    0.165480
  H      2.191940   -2.479723    0.253879
  H      0.923359   -4.571902    0.361131
  H     -1.594294    4.516734   -0.111060
  H      0.879381    4.583479   -0.292754
  H      2.164616    2.498985   -0.244324
  N     -1.637803   -0.002750    0.085158
  C      2.637083    0.010592   -0.006137
  C      3.325757   -0.605257   -1.052851
  C      3.366589    0.628500    1.010373
  C      4.708226   -0.590900   -1.080020
  C      4.749613    0.614135    0.981443
  C      5.456098    0.010648   -0.062508
  H      5.223921   -1.061677   -1.908342
  H      5.279303    1.094153    1.798088
  H      2.767725   -1.081822   -1.849660
  H      2.842344    1.105386    1.829414
  C     -3.084811   -0.007163    0.112132
  C     -3.788654    0.000844   -1.077068
  C     -3.745971   -0.017019    1.332515
  C     -5.174897   -0.000005   -1.059373
  H     -3.254489    0.008786   -2.018825
  C     -5.124463   -0.018078    1.356560
  H     -3.178105   -0.023609    2.254171
  C     -5.848991   -0.008910    0.161465
  H     -5.718598    0.006315   -1.992862
  H     -5.661486   -0.024921    2.295747
  O     -7.190548   -0.009140    0.286753
  C     -7.964917    0.002394   -0.903614
  H     -9.004202    0.002154   -0.587829
  H     -7.769996    0.897488   -1.498028
  H     -7.774083   -0.883563   -1.512860
  B      7.018247   -0.007612   -0.113453
  O      7.825969    0.506358    0.862123
  H      7.348667    0.885249    1.607546
  O      7.613927   -0.575474   -1.202474
  H      8.576005   -0.545985   -1.146440

 Total Charge           Charge          ....    1
 Multiplicity           Mult            ....    1
 Number of Electrons    NEL             ....  212
 Basis Dimension        Dim             .... 1087

ORBITAL ENERGIES
----------------

  NO   OCC          E(Eh)            E(eV)
   0   2.0000     -19.832663      -539.6742
   1   2.0000     -19.810465      -539.0702
   2   2.0000     -19.805425      -538.9330
   3   2.0000     -15.013418      -408.5359
   4   2.0000     -10.783646      -293.4379
   5   2.0000     -10.783606      -293.4368
   6   2.0000     -10.771392      -293.1045
   7   2.0000     -10.765496      -292.9440
   8   2.0000     -10.738207      -292.2015
   9   2.0000     -10.734175      -292.0917
  10   2.0000     -10.734157      -292.0913
  11   2.0000     -10.726923      -291.8944
  12   2.0000     -10.721202      -291.7387
  13   2.0000     -10.718148      -291.6556
  14   2.0000     -10.718128      -291.6551
  15   2.0000     -10.714071      -291.5447
  16   2.0000     -10.714056      -291.5443
  17   2.0000     -10.707415      -291.3636
  18   2.0000     -10.706481      -291.3381
  19   2.0000     -10.705987      -291.3247
  20   2.0000     -10.705970      -291.3242
  21   2.0000     -10.702161      -291.2206
  22   2.0000     -10.701707      -291.2082
  23   2.0000     -10.701693      -291.2079
  24   2.0000     -10.701333      -291.1981
  25   2.0000     -10.700709      -291.1811
  26   2.0000     -10.697633      -291.0974
  27   2.0000     -10.695441      -291.0378
  28   2.0000     -10.694125      -291.0019
  29   2.0000     -10.683969      -290.7256
  30   2.0000      -7.212560      -196.2637
  31   2.0000      -1.302382       -35.4396
  32   2.0000      -1.266064       -34.4514
  33   2.0000      -1.252240       -34.0752
  34   2.0000      -1.227936       -33.4138
  35   2.0000      -1.116709       -30.3872
  36   2.0000      -1.099348       -29.9148
  37   2.0000      -1.083321       -29.4787
  38   2.0000      -1.069871       -29.1127
  39   2.0000      -1.038301       -28.2536
  40   2.0000      -0.988645       -26.9024
  41   2.0000      -0.974873       -26.5276
  42   2.0000      -0.970899       -26.4195
  43   2.0000      -0.962379       -26.1877
  44   2.0000      -0.954625       -25.9767
  45   2.0000      -0.952618       -25.9221
  46   2.0000      -0.936849       -25.4930
  47   2.0000      -0.887912       -24.1613
  48   2.0000      -0.868113       -23.6225
  49   2.0000      -0.842271       -22.9194
  50   2.0000      -0.830173       -22.5902
  51   2.0000      -0.802341       -21.8328
  52   2.0000      -0.792183       -21.5564
  53   2.0000      -0.786039       -21.3892
  54   2.0000      -0.782676       -21.2977
  55   2.0000      -0.753823       -20.5126
  56   2.0000      -0.736171       -20.0322
  57   2.0000      -0.733211       -19.9517
  58   2.0000      -0.724060       -19.7027
  59   2.0000      -0.710994       -19.3471
  60   2.0000      -0.704109       -19.1598
  61   2.0000      -0.686260       -18.6741
  62   2.0000      -0.672208       -18.2917
  63   2.0000      -0.662956       -18.0399
  64   2.0000      -0.651600       -17.7309
  65   2.0000      -0.636649       -17.3241
  66   2.0000      -0.633295       -17.2328
  67   2.0000      -0.629708       -17.1352
  68   2.0000      -0.622803       -16.9473
  69   2.0000      -0.613812       -16.7027
  70   2.0000      -0.602287       -16.3891
  71   2.0000      -0.600784       -16.3482
  72   2.0000      -0.597197       -16.2506
  73   2.0000      -0.596230       -16.2242
  74   2.0000      -0.590988       -16.0816
  75   2.0000      -0.586844       -15.9688
  76   2.0000      -0.577424       -15.7125
  77   2.0000      -0.574589       -15.6354
  78   2.0000      -0.567744       -15.4491
  79   2.0000      -0.553558       -15.0631
  80   2.0000      -0.549400       -14.9499
  81   2.0000      -0.543109       -14.7787
  82   2.0000      -0.535121       -14.5614
  83   2.0000      -0.531262       -14.4564
  84   2.0000      -0.525239       -14.2925
  85   2.0000      -0.524547       -14.2736
  86   2.0000      -0.524213       -14.2646
  87   2.0000      -0.512317       -13.9409
  88   2.0000      -0.506718       -13.7885
  89   2.0000      -0.499736       -13.5985
  90   2.0000      -0.494721       -13.4620
  91   2.0000      -0.485392       -13.2082
  92   2.0000      -0.482347       -13.1253
  93   2.0000      -0.475668       -12.9436
  94   2.0000      -0.471032       -12.8174
  95   2.0000      -0.464087       -12.6285
  96   2.0000      -0.460776       -12.5383
  97   2.0000      -0.457878       -12.4595
  98   2.0000      -0.436843       -11.8871
  99   2.0000      -0.387284       -10.5385
 100   2.0000      -0.366534        -9.9739
 101   2.0000      -0.362588        -9.8665
 102   2.0000      -0.361786        -9.8447
 103   2.0000      -0.356385        -9.6977
 104   2.0000      -0.334895        -9.1130
 105   2.0000      -0.325088        -8.8461
 106   0.0000      -0.038052        -1.0354
 107   0.0000       0.040639         1.1058
 108   0.0000       0.046299         1.2598
 109   0.0000       0.060788         1.6541
 110   0.0000       0.078039         2.1236

MULLIKEN ATOMIC CHARGES
-----------------------
   0 C :   -0.116051
   1 C :   -0.244521
   2 C :    0.178786
   3 C :    0.085956
   4 C :   -0.242988
   5 C :   -0.179734
   6 C :    0.308280
   7 C :    0.086218
   8 C :    0.178449
   9 C :   -0.245076
  10 H :    0.210265
  11 C :   -0.115022
  12 C :   -0.179397
  13 C :   -0.243188
  14 H :    0.197973
  15 H :    0.210387
  16 H :    0.216743
  17 H :    0.191771
  18 H :    0.198127
  19 H :    0.191641
  20 H :    0.216346
  21 N :    0.121070
  22 C :   -0.042335
  23 C :   -0.254025
  24 C :   -0.278151
  25 C :   -0.201957
  26 C :   -0.248258
  27 C :    0.045817
  28 H :    0.180379
  29 H :    0.169055
  30 H :    0.197255
  31 H :    0.198137
  32 C :   -0.045563
  33 C :   -0.234397
  34 C :   -0.207564
  35 C :   -0.231294
  36 H :    0.193222
  37 C :   -0.201157
  38 H :    0.189918
  39 C :    0.344858
  40 H :    0.195456
  41 H :    0.178190
  42 O :   -0.311760
  43 C :   -0.257769
  44 H :    0.169696
  45 H :    0.157734
  46 H :    0.157791
  47 B :    0.389766
  48 O :   -0.497546
  49 H :    0.366899
  50 O :   -0.518096
  51 H :    0.369662
Sum of atomic charges:    1.0000000

LOEWDIN ATOMIC CHARGES
----------------------
   0 C :   -0.080527
   1 C :   -0.102576
   2 C :   -0.056603
   3 C :   -0.054609
   4 C :   -0.061369
   5 C :   -0.129794
   6 C :    0.067037
   7 C :   -0.054615
   8 C :   -0.056458
   9 C :   -0.102518
  10 H :    0.173750
  11 C :   -0.080504
  12 C :   -0.129911
  13 C :   -0.061383
  14 H :    0.167629
  15 H :    0.173739
  16 H :    0.173775
  17 H :    0.162694
  18 H :    0.167624
  19 H :    0.162673
  20 H :    0.173710
  21 N :    0.359676
  22 C :   -0.097186
  23 C :   -0.088769
  24 C :   -0.088949
  25 C :   -0.076690
  26 C :   -0.085235
  27 C :   -0.067435
  28 H :    0.165076
  29 H :    0.162082
  30 H :    0.167340
  31 H :    0.167600
  32 C :   -0.179298
  33 C :   -0.088258
  34 C :   -0.091411
  35 C :   -0.128487
  36 H :    0.170347
  37 C :   -0.112310
  38 H :    0.169920
  39 C :   -0.240281
  40 H :    0.165380
  41 H :    0.162278
  42 O :    0.214991
  43 C :   -0.307979
  44 H :    0.120301
  45 H :    0.116523
  46 H :    0.116509
  47 B :   -0.836358
  48 O :    0.163851
  49 H :    0.222785
  50 O :    0.166361
  51 H :    0.225863

  Mayer bond orders larger than 0.100000
B(  0-C ,  1-C ) :   1.5511 B(  0-C ,  5-C ) :   1.2222 B(  0-C , 14-H ) :   0.9621
B(  1-C ,  2-C ) :   1.2255 B(  1-C , 15-H ) :   0.9585 B(  2-C ,  3-C ) :   1.2793
B(  2-C , 21-N ) :   1.2330 B(  3-C ,  4-C ) :   1.1784 B(  3-C ,  6-C ) :   1.2071
B(  4-C ,  5-C ) :   1.6110 B(  4-C , 16-H ) :   0.9423 B(  5-C , 17-H ) :   0.9719
B(  6-C ,  7-C ) :   1.2072 B(  6-C , 22-C ) :   0.8275 B(  7-C ,  8-C ) :   1.2789
B(  7-C , 13-C ) :   1.1792 B(  8-C ,  9-C ) :   1.2253 B(  8-C , 21-N ) :   1.2331
B(  9-C , 10-H ) :   0.9586 B(  9-C , 11-C ) :   1.5513 B( 11-C , 12-C ) :   1.2225
B( 11-C , 18-H ) :   0.9618 B( 12-C , 13-C ) :   1.6098 B( 12-C , 19-H ) :   0.9720
B( 13-C , 20-H ) :   0.9427 B( 21-N , 32-C ) :   0.7034 B( 22-C , 23-C ) :   1.3514
B( 22-C , 24-C ) :   1.3632 B( 23-C , 25-C ) :   1.4267 B( 23-C , 30-H ) :   0.9841
B( 24-C , 26-C ) :   1.4594 B( 24-C , 31-H ) :   0.9810 B( 25-C , 27-C ) :   1.3459
B( 25-C , 28-H ) :   0.9708 B( 26-C , 27-C ) :   1.3523 B( 26-C , 29-H ) :   0.9648
B( 27-C , 47-B ) :   1.0122 B( 32-C , 33-C ) :   1.4995 B( 32-C , 34-C ) :   1.4466
B( 33-C , 35-C ) :   1.3733 B( 33-C , 36-H ) :   0.9631 B( 34-C , 37-C ) :   1.4571
B( 34-C , 38-H ) :   0.9784 B( 35-C , 39-C ) :   1.3134 B( 35-C , 40-H ) :   0.9589
B( 37-C , 39-C ) :   1.3312 B( 37-C , 41-H ) :   0.9794 B( 39-C , 42-O ) :   1.1388
B( 42-O , 43-C ) :   0.8835 B( 43-C , 44-H ) :   0.9719 B( 43-C , 45-H ) :   0.9695
B( 43-C , 46-H ) :   0.9695 B( 47-B , 48-O ) :   1.2890 B( 47-B , 50-O ) :   1.2840
B( 48-O , 49-H ) :   0.8541 B( 50-O , 51-H ) :   0.8482

MP2 TOTAL ENERGY:    -1306.633428597 Eh

-----------------------------------------------------------------------------
         ABSORPTION SPECTRUM VIA TRANSITION ELECTRIC DIPOLE MOMENTS
-----------------------------------------------------------------------------
State   Energy    Wavelength  fosc         T2        TX        TY        TZ
        (cm-1)      (nm)                 (au**2)    (au)      (au)      (au)
-----------------------------------------------------------------------------
   1   26178.5    382.0   0.309285848   3.88948  -1.97199  -0.00625   0.02601
   2   31110.7    321.4   0.357708208   3.78525   0.00735  -1.94290   0.10172
   3   35439.6    282.2   0.105553349   0.98052  -0.04085  -0.98882   0.03302
   4   35594.0    280.9   0.181047562   1.67452  -1.29364   0.02943   0.01188
   5   34048.3    293.7   0.006583547   0.06366  -0.24143   0.07323  -0.00157
   6   37627.8    265.8   0.032086903   0.28073   0.00145   0.27722  -0.45153
   7   40848.4    244.8   0.034405820   0.27729  -0.06776   0.02107  -0.52178
   8   42571.6    234.9   1.285574393   9.94152  -0.01106   3.14858  -0.16689
   9   43047.7    232.3   0.028318538   0.21657   0.11145   0.44983   0.04239
  10   46891.0    213.3   0.154541458   1.08500  -1.03853   0.02965  -0.07473
  11   47541.9    210.3   0.043769030   0.30309   0.51998   0.00871   0.18064
  12   43333.3    230.8   0.060495078   0.45959   0.03860  -0.67280  -0.07377
  13   48601.3    205.8   0.076372952   0.51733  -0.71665  -0.01031   0.06027
  14   47534.4    210.4   0.063578007   0.44033   0.66226  -0.00047  -0.04164
  15   48420.5    206.5   0.027502146   0.18699   0.00108   0.31605   0.29512
  16   50198.6    199.2   0.010844322   0.07112  -0.26664  -0.00437   0.00206
  17   49277.6    202.9   0.021012364   0.14038   0.03023   0.15384   0.34029
  18   51760.8    193.2   1.452245499   9.23665  -3.03882   0.00009   0.04712
  19   53388.2    187.3   1.346891406   8.30544  -2.87712   0.00864   0.16600
  20   53259.6    187.8   0.322244734   1.99188   0.06195   0.78877   1.16871
  21   53453.7    187.1   0.037775904   0.23266   0.32244   0.00909   0.35861
  22   53654.0    186.4   0.391098308   2.39972   0.26951  -0.02714   1.52524
  23   54338.9    184.0   0.129854063   0.78672   0.00525   0.88695  -0.00427
  24   53569.6    186.7   0.001021626   0.00628  -0.06982  -0.00449   0.03719
  25   52269.6    191.3   0.092694168   0.58382   0.01345  -0.00190  -0.76396
  26   55074.8    181.6   0.000989105   0.00591  -0.06936  -0.01228  -0.03082
  27   55403.0    180.5   0.002437793   0.01449  -0.02200   0.06155   0.10106
  28   55242.8    181.0   0.001537414   0.00916   0.00503   0.04384  -0.08494
  29   55793.5    179.2   0.008267954   0.04879   0.02606  -0.10666   0.19165
  30   56764.7    176.2   0.039294879   0.22789  -0.01879   0.47342   0.05845

FINAL SINGLE POINT ENERGY     -1305.028274629754

DIPOLE MOMENT
-------------
                                X             Y             Z
Electronic contribution:     16.29435      -0.04753       2.16224
Nuclear contribution   :    -18.09944       0.39115      -2.12544
                        -----------------------------------------
Total Dipole Moment    :     -1.80509       0.34362       0.03680
                        -----------------------------------------
Magnitude (a.u.)       :      1.83787
Magnitude (Debye)      :      4.67150

Rotational constants in cm-1:     0.012596     0.002183     0.001953
Rotational constants in MHz :   377.610801    65.449689    58.549588

                             ****ORCA TERMINATED NORMALLY****
TOTAL RUN TIME: 0 days 1 hours 54 minutes 32 seconds 369 msec
