                         Program Version 5.0.2 -  RELEASE  -
|  1> %maxcore 3200
|  2> %pal
|  3>  nprocs= 8
|  4> end
|  5> ! RI-DSD-BLYP D3BJ def2-TZVP def2/J def2-TZVP/C RIJCOSX CPCM TightSCF
|  6> %TDDFT DCORR 4
|  7>    NROOTS   30
|  8>
|  9>    TDA      FALSE
| 10> END
| 11>
| 12> %CPCM
| 13>    SMD          TRUE
| 14>    SMDsolvent   "ACETONITRILE"
| 15> END
| 16>
| 17>
| 18> * xyz 1 1
| 19> C                  -0.99815600   -3.59492200    0.24638100
| 20> C                  -1.67788100   -2.40979500    0.17633400
| 21> C                  -0.96971200   -1.19623700    0.12146300
| 22> C                   0.45725200   -1.20773700    0.11133000
| 23> C                   1.11251800   -2.46141800    0.21572500
| 24> C                   0.40645600   -3.62559900    0.27957300
| 25> C                   1.16289900    0.00657700    0.02600200
| 26> C                   0.44603300    1.21608400   -0.02810600
| 27> C                  -0.97992300    1.19540200    0.02317300
| 28> C                  -1.69757800    2.40447500    0.00145200
| 29> H                  -2.77527400    2.38913800    0.05955700
| 30> C                  -1.02900200    3.59407800   -0.09559500
| 31> C                   0.37259700    3.63375600   -0.19007200
| 32> C                   1.08807000    2.47405500   -0.15897900
| 33> H                  -1.55633400   -4.52108300    0.28830500
| 34> H                  -2.75720700   -2.40121200    0.16548000
| 35> H                   2.19194000   -2.47972300    0.25387900
| 36> H                   0.92335900   -4.57190200    0.36113100
| 37> H                  -1.59429400    4.51673400   -0.11106000
| 38> H                   0.87938100    4.58347900   -0.29275400
| 39> H                   2.16461600    2.49898500   -0.24432400
| 40> N                  -1.63780300   -0.00275000    0.08515800
| 41> C                   2.63708300    0.01059200   -0.00613700
| 42> C                   3.32575700   -0.60525700   -1.05285100
| 43> C                   3.36658900    0.62850000    1.01037300
| 44> C                   4.70822600   -0.59090000   -1.08002000
| 45> C                   4.74961300    0.61413500    0.98144300
| 46> C                   5.45609800    0.01064800   -0.06250800
| 47> H                   5.22392100   -1.06167700   -1.90834200
| 48> H                   5.27930300    1.09415300    1.79808800
| 49> H                   2.76772500   -1.08182200   -1.84966000
| 50> H                   2.84234400    1.10538600    1.82941400
| 51> C                  -3.08481100   -0.00716300    0.11213200
| 52> C                  -3.78865400    0.00084400   -1.07706800
| 53> C                  -3.74597100   -0.01701900    1.33251500
| 54> C                  -5.17489700   -0.00000500   -1.05937300
| 55> H                  -3.25448900    0.00878600   -2.01882500
| 56> C                  -5.12446300   -0.01807800    1.35656000
| 57> H                  -3.17810500   -0.02360900    2.25417100
| 58> C                  -5.84899100   -0.00891000    0.16146500
| 59> H                  -5.71859800    0.00631500   -1.99286200
| 60> H                  -5.66148600   -0.02492100    2.29574700
| 61> O                  -7.19054800   -0.00914000    0.28675300
| 62> C                  -7.96491700    0.00239400   -0.90361400
| 63> H                  -9.00420200    0.00215400   -0.58782900
| 64> H                  -7.76999600    0.89748800   -1.49802800
| 65> H                  -7.77408300   -0.88356300   -1.51286000
| 66> B                   7.01824700   -0.00761200   -0.11345300
| 67> O                   7.82596900    0.50635800    0.86212300
| 68> H                   7.34866700    0.88524900    1.60754600
| 69> O                   7.61392700   -0.57547400   -1.20247400
| 70> H                   8.57600500   -0.54598500   -1.14644000
| 71> *
| 72>
| 73>
| 74>                          ****END OF INPUT****

CARTESIAN COORDINATES (ANGSTROEM)
---------------------------------
  C     -0.998156   -3.594922    0.246381
  C     -1.677881   -2.409795    0.176334
  C     -0.969712   -1.196237    0.121463
  C      0.457252   -1.207737    0.111330
  C      1.112518   -2.461418    0.215725
  C      0.406456   -3.625599    0.279573
  C      1.162899    0.006577    0.026002
  C      0.446033    1.216084   -0.028106
  C     -0.979923    1.195402    0.023173
  C     -1.697578    2.404475    0.001452
  H     -2.775274    2.389138    0.059557
  C     -1.029002    3.594078   -0.095595
  C      0.372597    3.633756   -0.190072
  C      1.088070    2.474055   -0.158979
  H     -1.556334   -4.521083    0.288305
  H     -2.757207   -2.401212    0.165480
  H      2.191940   -2.479723    0.253879
  H      0.923359   -4.571902    0.361131
  H     -1.594294    4.516734   -0.111060
  H      0.879381    4.583479   -0.292754
  H      2.164616    2.498985   -0.244324
  N     -1.637803   -0.002750    0.085158
  C      2.637083    0.010592   -0.006137
  C      3.325757   -0.605257   -1.052851
  C      3.366589    0.628500    1.010373
  C      4.708226   -0.590900   -1.080020
  C      4.749613    0.614135    0.981443
  C      5.456098    0.010648   -0.062508
  H      5.223921   -1.061677   -1.908342
  H      5.279303    1.094153    1.798088
  H      2.767725   -1.081822   -1.849660
  H      2.842344    1.105386    1.829414
  C     -3.084811   -0.007163    0.112132
  C     -3.788654    0.000844   -1.077068
  C     -3.745971   -0.017019    1.332515
  C     -5.174897   -0.000005   -1.059373
  H     -3.254489    0.008786   -2.018825
  C     -5.124463   -0.018078    1.356560
  H     -3.178105   -0.023609    2.254171
  C     -5.848991   -0.008910    0.161465
  H     -5.718598    0.006315   -1.992862
  H     -5.661486   -0.024921    2.295747
  O     -7.190548   -0.009140    0.286753
  C     -7.964917    0.002394   -0.903614
  H     -9.004202    0.002154   -0.587829
  H     -7.769996    0.897488   -1.498028
  H     -7.774083   -0.883563   -1.512860
  B      7.018247   -0.007612   -0.113453
  O      7.825969    0.506358    0.862123
  H      7.348667    0.885249    1.607546
  O      7.613927   -0.575474   -1.202474
  H      8.576005   -0.545985   -1.146440

 Total Charge           Charge          ....    1
 Multiplicity           Mult            ....    1
 Number of Electrons    NEL             ....  212
 Basis Dimension        Dim             .... 1087

ORBITAL ENERGIES
----------------

  NO   OCC          E(Eh)            E(eV)
   0   2.0000     -20.044218      -545.4309
   1   2.0000     -20.021766      -544.8200
   2   2.0000     -20.016759      -544.6837
   3   2.0000     -15.188579      -413.3023
   4   2.0000     -10.922729      -297.2226
   5   2.0000     -10.922692      -297.2216
   6   2.0000     -10.909768      -296.8699
   7   2.0000     -10.904931      -296.7383
   8   2.0000     -10.877171      -295.9829
   9   2.0000     -10.873038      -295.8704
  10   2.0000     -10.873018      -295.8699
  11   2.0000     -10.868226      -295.7395
  12   2.0000     -10.860237      -295.5221
  13   2.0000     -10.857902      -295.4585
  14   2.0000     -10.857883      -295.4580
  15   2.0000     -10.853590      -295.3412
  16   2.0000     -10.853575      -295.3408
  17   2.0000     -10.846734      -295.1546
  18   2.0000     -10.845867      -295.1310
  19   2.0000     -10.845206      -295.1131
  20   2.0000     -10.845189      -295.1126
  21   2.0000     -10.841619      -295.0154
  22   2.0000     -10.841365      -295.0085
  23   2.0000     -10.841352      -295.0082
  24   2.0000     -10.840758      -294.9920
  25   2.0000     -10.840208      -294.9771
  26   2.0000     -10.837237      -294.8962
  27   2.0000     -10.834688      -294.8269
  28   2.0000     -10.833451      -294.7932
  29   2.0000     -10.822348      -294.4911
  30   2.0000      -7.313201      -199.0023
  31   2.0000      -1.290173       -35.1074
  32   2.0000      -1.254113       -34.1262
  33   2.0000      -1.232707       -33.5437
  34   2.0000      -1.215994       -33.0889
  35   2.0000      -1.092713       -29.7342
  36   2.0000      -1.075065       -29.2540
  37   2.0000      -1.059190       -28.8220
  38   2.0000      -1.045532       -28.4504
  39   2.0000      -1.012833       -27.5606
  40   2.0000      -0.962069       -26.1792
  41   2.0000      -0.947783       -25.7905
  42   2.0000      -0.944711       -25.7069
  43   2.0000      -0.936169       -25.4745
  44   2.0000      -0.928731       -25.2721
  45   2.0000      -0.926571       -25.2133
  46   2.0000      -0.910040       -24.7634
  47   2.0000      -0.858706       -23.3666
  48   2.0000      -0.839181       -22.8353
  49   2.0000      -0.811730       -22.0883
  50   2.0000      -0.799087       -21.7443
  51   2.0000      -0.771404       -20.9910
  52   2.0000      -0.761017       -20.7083
  53   2.0000      -0.755549       -20.5595
  54   2.0000      -0.752154       -20.4671
  55   2.0000      -0.722114       -19.6497
  56   2.0000      -0.701896       -19.0996
  57   2.0000      -0.700342       -19.0573
  58   2.0000      -0.690794       -18.7975
  59   2.0000      -0.675607       -18.3842
  60   2.0000      -0.669296       -18.2125
  61   2.0000      -0.651756       -17.7352
  62   2.0000      -0.638119       -17.3641
  63   2.0000      -0.626550       -17.0493
  64   2.0000      -0.619249       -16.8506
  65   2.0000      -0.602580       -16.3970
  66   2.0000      -0.598743       -16.2926
  67   2.0000      -0.595049       -16.1921
  68   2.0000      -0.587262       -15.9802
  69   2.0000      -0.577799       -15.7227
  70   2.0000      -0.567996       -15.4559
  71   2.0000      -0.566244       -15.4083
  72   2.0000      -0.563149       -15.3241
  73   2.0000      -0.559952       -15.2371
  74   2.0000      -0.557552       -15.1718
  75   2.0000      -0.552201       -15.0262
  76   2.0000      -0.543342       -14.7851
  77   2.0000      -0.540559       -14.7094
  78   2.0000      -0.533781       -14.5249
  79   2.0000      -0.518458       -14.1080
  80   2.0000      -0.511532       -13.9195
  81   2.0000      -0.509440       -13.8626
  82   2.0000      -0.502034       -13.6610
  83   2.0000      -0.498305       -13.5596
  84   2.0000      -0.493237       -13.4217
  85   2.0000      -0.484476       -13.1833
  86   2.0000      -0.480143       -13.0654
  87   2.0000      -0.474363       -12.9081
  88   2.0000      -0.472058       -12.8453
  89   2.0000      -0.466249       -12.6873
  90   2.0000      -0.457857       -12.4589
  91   2.0000      -0.452015       -12.2999
  92   2.0000      -0.445453       -12.1214
  93   2.0000      -0.440671       -11.9913
  94   2.0000      -0.437493       -11.9048
  95   2.0000      -0.429883       -11.6977
  96   2.0000      -0.424221       -11.5437
  97   2.0000      -0.424113       -11.5407
  98   2.0000      -0.395741       -10.7687
  99   2.0000      -0.346522        -9.4294
 100   2.0000      -0.326785        -8.8923
 101   2.0000      -0.323443        -8.8013
 102   2.0000      -0.322843        -8.7850
 103   2.0000      -0.318158        -8.6575
 104   2.0000      -0.297400        -8.0927
 105   2.0000      -0.288235        -7.8433
 106   0.0000      -0.052130        -1.4185
 107   0.0000       0.025533         0.6948
 108   0.0000       0.029665         0.8072
 109   0.0000       0.044622         1.2142
 110   0.0000       0.061282         1.6676

MULLIKEN ATOMIC CHARGES
-----------------------
   0 C :   -0.088944
   1 C :   -0.255662
   2 C :    0.200148
   3 C :    0.090904
   4 C :   -0.260294
   5 C :   -0.162458
   6 C :    0.349017
   7 C :    0.091687
   8 C :    0.199730
   9 C :   -0.256136
  10 H :    0.187850
  11 C :   -0.088008
  12 C :   -0.162375
  13 C :   -0.260772
  14 H :    0.180130
  15 H :    0.187938
  16 H :    0.195188
  17 H :    0.174377
  18 H :    0.180244
  19 H :    0.174272
  20 H :    0.194822
  21 N :    0.130214
  22 C :    0.026494
  23 C :   -0.262558
  24 C :   -0.285785
  25 C :   -0.186519
  26 C :   -0.238353
  27 C :    0.010051
  28 H :    0.163415
  29 H :    0.150077
  30 H :    0.174593
  31 H :    0.175682
  32 C :    0.081098
  33 C :   -0.251621
  34 C :   -0.226760
  35 C :   -0.234551
  36 H :    0.173490
  37 C :   -0.199259
  38 H :    0.169978
  39 C :    0.385891
  40 H :    0.174284
  41 H :    0.157674
  42 O :   -0.347718
  43 C :   -0.186722
  44 H :    0.153232
  45 H :    0.138724
  46 H :    0.138771
  47 B :    0.498456
  48 O :   -0.536645
  49 H :    0.368508
  50 O :   -0.554860
  51 H :    0.369061
Sum of atomic charges:    1.0000000

LOEWDIN ATOMIC CHARGES
----------------------
   0 C :   -0.076570
   1 C :   -0.099916
   2 C :   -0.053545
   3 C :   -0.053150
   4 C :   -0.057795
   5 C :   -0.126595
   6 C :    0.068854
   7 C :   -0.053155
   8 C :   -0.053400
   9 C :   -0.099854
  10 H :    0.169579
  11 C :   -0.076545
  12 C :   -0.126711
  13 C :   -0.057807
  14 H :    0.163198
  15 H :    0.169565
  16 H :    0.169593
  17 H :    0.158324
  18 H :    0.163193
  19 H :    0.158304
  20 H :    0.169525
  21 N :    0.353846
  22 C :   -0.092968
  23 C :   -0.085235
  24 C :   -0.085444
  25 C :   -0.073059
  26 C :   -0.081761
  27 C :   -0.066920
  28 H :    0.161028
  29 H :    0.157782
  30 H :    0.162693
  31 H :    0.162949
  32 C :   -0.172759
  33 C :   -0.084336
  34 C :   -0.087349
  35 C :   -0.125350
  36 H :    0.165604
  37 C :   -0.109442
  38 H :    0.165197
  39 C :   -0.233009
  40 H :    0.161155
  41 H :    0.157728
  42 O :    0.204485
  43 C :   -0.290668
  44 H :    0.115330
  45 H :    0.111722
  46 H :    0.111708
  47 B :   -0.812132
  48 O :    0.152915
  49 H :    0.221365
  50 O :    0.155839
  51 H :    0.223996

  Mayer bond orders larger than 0.100000
B(  0-C ,  1-C ) :   1.5349 B(  0-C ,  5-C ) :   1.2207 B(  0-C , 14-H ) :   0.9705
B(  1-C ,  2-C ) :   1.2497 B(  1-C , 15-H ) :   0.9723 B(  2-C ,  3-C ) :   1.2582
B(  2-C , 21-N ) :   1.2332 B(  3-C ,  4-C ) :   1.1845 B(  3-C ,  6-C ) :   1.1891
B(  4-C ,  5-C ) :   1.5993 B(  4-C , 16-H ) :   0.9615 B(  5-C , 17-H ) :   0.9819
B(  6-C ,  7-C ) :   1.1894 B(  6-C , 22-C ) :   0.7993 B(  7-C ,  8-C ) :   1.2584
B(  7-C , 13-C ) :   1.1851 B(  8-C ,  9-C ) :   1.2496 B(  8-C , 21-N ) :   1.2331
B(  9-C , 10-H ) :   0.9724 B(  9-C , 11-C ) :   1.5350 B( 11-C , 12-C ) :   1.2208
B( 11-C , 18-H ) :   0.9702 B( 12-C , 13-C ) :   1.5984 B( 12-C , 19-H ) :   0.9820
B( 13-C , 20-H ) :   0.9620 B( 21-N , 32-C ) :   0.6978 B( 22-C , 23-C ) :   1.3580
B( 22-C , 24-C ) :   1.3700 B( 23-C , 25-C ) :   1.4168 B( 23-C , 30-H ) :   0.9973
B( 24-C , 26-C ) :   1.4490 B( 24-C , 31-H ) :   0.9938 B( 25-C , 27-C ) :   1.3551
B( 25-C , 28-H ) :   0.9837 B( 26-C , 27-C ) :   1.3554 B( 26-C , 29-H ) :   0.9804
B( 27-C , 47-B ) :   0.9970 B( 32-C , 33-C ) :   1.5142 B( 32-C , 34-C ) :   1.4599
B( 33-C , 35-C ) :   1.3783 B( 33-C , 36-H ) :   0.9747 B( 34-C , 37-C ) :   1.4582
B( 34-C , 38-H ) :   0.9895 B( 35-C , 39-C ) :   1.3223 B( 35-C , 40-H ) :   0.9742
B( 37-C , 39-C ) :   1.3276 B( 37-C , 41-H ) :   0.9950 B( 39-C , 42-O ) :   1.1146
B( 42-O , 43-C ) :   0.8780 B( 43-C , 44-H ) :   0.9752 B( 43-C , 45-H ) :   0.9739
B( 43-C , 46-H ) :   0.9739 B( 47-B , 48-O ) :   1.2453 B( 47-B , 50-O ) :   1.2385
B( 48-O , 49-H ) :   0.8535 B( 50-O , 51-H ) :   0.8491

MP2 TOTAL ENERGY:    -1307.477464085 Eh

-----------------------------------------------------------------------------
         ABSORPTION SPECTRUM VIA TRANSITION ELECTRIC DIPOLE MOMENTS
-----------------------------------------------------------------------------
State   Energy    Wavelength  fosc         T2        TX        TY        TZ
        (cm-1)      (nm)                 (au**2)    (au)      (au)      (au)
-----------------------------------------------------------------------------
   1   18328.2    545.6   0.205561139   3.69230  -1.92135  -0.00626   0.02560
   2   25144.4    397.7   0.299388267   3.91985  -0.00613   1.97736  -0.09932
   3   12919.1    774.0   0.002214236   0.05642  -0.18971   0.14277   0.00735
   4   23531.4    425.0   0.100927366   1.41200  -1.17270  -0.19173   0.00311
   5   24085.8    415.2   0.037582233   0.51368   0.34069  -0.62986  -0.02996
   6   23481.2    425.9   0.019038612   0.26693   0.01532   0.35214  -0.37774
   7   28887.3    346.2   0.091117967   1.03842  -0.05589  -0.96644  -0.31825
   8   28095.8    355.9   0.242743707   2.84434  -0.05378   1.61690  -0.47654
   9   28944.4    345.5   0.546848128   6.21982   0.02283  -2.49148   0.10878
  10   32321.5    309.4   0.107959427   1.09963   0.09906   1.02595   0.19295
  11   43586.6    229.4   0.114014339   0.86116  -0.92732   0.03510   0.00098
  12   46760.1    213.9   0.069839045   0.49170   0.67965  -0.01789   0.17163
  13   44446.6    225.0   0.050985584   0.37765  -0.61155  -0.00277   0.06033
  14   37240.7    268.5   0.037450687   0.33107   0.00657  -0.52857  -0.22723
  15   34005.5    294.1   0.000973447   0.00942   0.09343   0.00525  -0.02582
  16   41391.5    241.6   0.005652790   0.04496   0.21193   0.00220   0.00644
  17   39129.2    255.6   0.831639714   6.99696   2.64490   0.00973  -0.03693
  18   33120.5    301.9   0.061458468   0.61089   0.35686  -0.22089  -0.65935
  19   31857.5    313.9   0.020158518   0.20832   0.39480   0.16217   0.16171
  20   45683.0    218.9   1.566261900  11.28718  -3.35808   0.05834   0.08406
  21   43312.1    230.9   0.212231743   1.61316   0.32015   0.65745   1.03847
  22   43946.3    227.6   0.004821814   0.03612   0.15855   0.04779   0.09327
  23   40316.5    248.0   0.064885033   0.52983   0.00977   0.65309  -0.32126
  24   46058.0    217.1   0.370236058   2.64636   0.11587   0.03744   1.62220
  25   38966.8    256.6   0.009317135   0.07872  -0.06801   0.23424   0.13865
  26   42031.5    237.9   0.004113166   0.03222  -0.17403   0.03816   0.02176
  27   39136.5    255.5   0.033608584   0.28271  -0.00732  -0.51554  -0.12991
  28   38930.1    256.9   0.037975729   0.32114   0.01076   0.55080   0.13283
  29   37480.8    266.8   0.014615313   0.12837  -0.03976   0.35236  -0.05131
  30   39000.7    256.4   0.004810570   0.04061   0.19589   0.01436  -0.04503

Dispersion correction           -0.050465388
FINAL SINGLE POINT ENERGY     -1304.971831454442

DIPOLE MOMENT
-------------
                                X             Y             Z
Electronic contribution:     16.31017      -0.05017       2.16307
Nuclear contribution   :    -18.09944       0.39115      -2.12544
                        -----------------------------------------
Total Dipole Moment    :     -1.78927       0.34098       0.03763
                        -----------------------------------------
Magnitude (a.u.)       :      1.82186
Magnitude (Debye)      :      4.63080

Rotational constants in cm-1:     0.012596     0.002183     0.001953
Rotational constants in MHz :   377.610801    65.449689    58.549588

                             ****ORCA TERMINATED NORMALLY****
TOTAL RUN TIME: 0 days 1 hours 50 minutes 48 seconds 215 msec
