                         Program Version 5.0.2 -  RELEASE  -
|  1> %maxcore 24000
|  2> %pal
|  3>  nprocs= 8
|  4> end
|  5> ! RI-DSD-BLYP D3BJ def2-TZVP def2/J def2-TZVP/C RIJCOSX CPCM TightSCF
|  6> %TDDFT
|  7>    NROOTS   30
|  8>    dcorr 4
|  9>    doscs true
| 10>    scspar 0.333, 1.2, 0.43, 1.24
| 11>    TDA      FALSE
| 12> END
| 13>
| 14> %CPCM
| 15>    SMD          TRUE
| 16>    SMDsolvent   "ACETONITRILE"
| 17> END
| 18>
| 19>
| 20> * xyz 1 1
| 21> C                  -0.68199200    3.69212300    0.45109500
| 22> C                  -1.29772600    2.49705700    0.19805900
| 23> C                  -0.52563000    1.34919600   -0.05376000
| 24> C                   0.89842500    1.44364400   -0.07124300
| 25> C                   1.48730600    2.69973600    0.22582500
| 26> C                   0.71951400    3.79714800    0.47862600
| 27> C                   1.67020700    0.30031700   -0.34817000
| 28> C                   1.02104700   -0.92499200   -0.59013700
| 29> C                  -0.40290800   -0.99406800   -0.52766600
| 30> C                  -1.05201400   -2.22403800   -0.73464100
| 31> H                  -2.12827900   -2.27930000   -0.67436000
| 32> C                  -0.31925200   -3.34527600   -1.01281100
| 33> C                   1.08133000   -3.29123600   -1.11426000
| 34> C                   1.73155300   -2.10992900   -0.91270000
| 35> H                  -1.28875100    4.56712900    0.64432100
| 36> H                  -2.37503500    2.42932400    0.19516200
| 37> H                   2.56514000    2.77122800    0.25352500
| 38> H                   1.18453900    4.74692900    0.70456400
| 39> H                  -0.83245700   -4.28512000   -1.16891500
| 40> H                   1.63911800   -4.18408000   -1.36145400
| 41> H                   2.80673700   -2.06011500   -1.01067400
| 42> N                  -1.12546700    0.13962700   -0.27174000
| 43> C                   3.14569700    0.38732300   -0.39986500
| 44> C                   3.95586200   -0.31238100    0.51514400
| 45> C                   3.72463900    1.14686100   -1.41665300
| 46> C                   5.34093300   -0.22350900    0.35367000
| 47> C                   5.10131300    1.21534100   -1.54795700
| 48> C                   5.91389100    0.52892000   -0.65895800
| 49> H                   5.53564100    1.80205000   -2.34726300
| 50> H                   3.08512900    1.66910700   -2.11793500
| 51> C                  -2.56951200    0.05352900   -0.22339900
| 52> C                  -3.19860800   -0.18013700    0.98472300
| 53> C                  -3.30208600    0.20321600   -1.39253900
| 54> C                  -4.58111200   -0.26793400    1.03720400
| 55> H                  -2.60962600   -0.29450100    1.88601000
| 56> C                  -4.67740100    0.11745400   -1.34630600
| 57> H                  -2.79205500    0.38478400   -2.33002600
| 58> C                  -5.32696000   -0.11883200   -0.13164000
| 59> H                  -5.06612300   -0.45243400    1.98456100
| 60> H                  -5.26946900    0.23067900   -2.24474200
| 61> O                  -6.67156200   -0.18670200   -0.18612200
| 62> C                  -7.36963600   -0.42721000    1.02706200
| 63> H                  -8.42499100   -0.44121900    0.77034100
| 64> H                  -7.09260400   -1.38954200    1.46301400
| 65> H                  -7.18741700    0.36481100    1.75663300
| 66> H                   6.99099600    0.57925300   -0.75547000
| 67> B                   3.39754400   -1.14348300    1.72153900
| 68> O                   2.31006200   -0.79208700    2.47381000
| 69> O                   4.06471900   -2.28323200    2.05943000
| 70> H                   1.93286500    0.06571800    2.24961400
| 71> H                   3.68938000   -2.70780500    2.83994100
| 72> H                   5.98077500   -0.75465100    1.04846800
| 73> *
| 74>
| 75>
| 76>                          ****END OF INPUT****

CARTESIAN COORDINATES (ANGSTROEM)
---------------------------------
  C     -0.681992    3.692123    0.451095
  C     -1.297726    2.497057    0.198059
  C     -0.525630    1.349196   -0.053760
  C      0.898425    1.443644   -0.071243
  C      1.487306    2.699736    0.225825
  C      0.719514    3.797148    0.478626
  C      1.670207    0.300317   -0.348170
  C      1.021047   -0.924992   -0.590137
  C     -0.402908   -0.994068   -0.527666
  C     -1.052014   -2.224038   -0.734641
  H     -2.128279   -2.279300   -0.674360
  C     -0.319252   -3.345276   -1.012811
  C      1.081330   -3.291236   -1.114260
  C      1.731553   -2.109929   -0.912700
  H     -1.288751    4.567129    0.644321
  H     -2.375035    2.429324    0.195162
  H      2.565140    2.771228    0.253525
  H      1.184539    4.746929    0.704564
  H     -0.832457   -4.285120   -1.168915
  H      1.639118   -4.184080   -1.361454
  H      2.806737   -2.060115   -1.010674
  N     -1.125467    0.139627   -0.271740
  C      3.145697    0.387323   -0.399865
  C      3.955862   -0.312381    0.515144
  C      3.724639    1.146861   -1.416653
  C      5.340933   -0.223509    0.353670
  C      5.101313    1.215341   -1.547957
  C      5.913891    0.528920   -0.658958
  H      5.535641    1.802050   -2.347263
  H      3.085129    1.669107   -2.117935
  C     -2.569512    0.053529   -0.223399
  C     -3.198608   -0.180137    0.984723
  C     -3.302086    0.203216   -1.392539
  C     -4.581112   -0.267934    1.037204
  H     -2.609626   -0.294501    1.886010
  C     -4.677401    0.117454   -1.346306
  H     -2.792055    0.384784   -2.330026
  C     -5.326960   -0.118832   -0.131640
  H     -5.066123   -0.452434    1.984561
  H     -5.269469    0.230679   -2.244742
  O     -6.671562   -0.186702   -0.186122
  C     -7.369636   -0.427210    1.027062
  H     -8.424991   -0.441219    0.770341
  H     -7.092604   -1.389542    1.463014
  H     -7.187417    0.364811    1.756633
  H      6.990996    0.579253   -0.755470
  B      3.397544   -1.143483    1.721539
  O      2.310062   -0.792087    2.473810
  O      4.064719   -2.283232    2.059430
  H      1.932865    0.065718    2.249614
  H      3.689380   -2.707805    2.839941
  H      5.980775   -0.754651    1.048468

 Total Charge           Charge          ....    1
 Multiplicity           Mult            ....    1
 Number of Electrons    NEL             ....  212
 Basis Dimension        Dim             .... 1087

ORBITAL ENERGIES
----------------

  NO   OCC          E(Eh)            E(eV)
   0   2.0000     -20.044324      -545.4338
   1   2.0000     -20.025787      -544.9294
   2   2.0000     -20.020269      -544.7792
   3   2.0000     -15.189564      -413.3290
   4   2.0000     -10.923600      -297.2463
   5   2.0000     -10.923217      -297.2358
   6   2.0000     -10.909366      -296.8589
   7   2.0000     -10.904967      -296.7393
   8   2.0000     -10.877355      -295.9879
   9   2.0000     -10.873891      -295.8936
  10   2.0000     -10.873846      -295.8924
  11   2.0000     -10.868400      -295.7442
  12   2.0000     -10.860375      -295.5258
  13   2.0000     -10.858554      -295.4763
  14   2.0000     -10.858251      -295.4680
  15   2.0000     -10.854294      -295.3603
  16   2.0000     -10.854210      -295.3581
  17   2.0000     -10.846889      -295.1588
  18   2.0000     -10.845989      -295.1344
  19   2.0000     -10.845967      -295.1338
  20   2.0000     -10.845714      -295.1269
  21   2.0000     -10.842531      -295.0403
  22   2.0000     -10.842026      -295.0265
  23   2.0000     -10.841034      -294.9995
  24   2.0000     -10.837867      -294.9134
  25   2.0000     -10.837609      -294.9063
  26   2.0000     -10.835124      -294.8387
  27   2.0000     -10.834675      -294.8265
  28   2.0000     -10.833517      -294.7950
  29   2.0000     -10.829178      -294.6769
  30   2.0000      -7.319397      -199.1709
  31   2.0000      -1.290269       -35.1100
  32   2.0000      -1.257880       -34.2287
  33   2.0000      -1.233325       -33.5605
  34   2.0000      -1.219514       -33.1847
  35   2.0000      -1.092891       -29.7391
  36   2.0000      -1.075661       -29.2702
  37   2.0000      -1.058743       -28.8099
  38   2.0000      -1.045747       -28.4562
  39   2.0000      -1.013728       -27.5849
  40   2.0000      -0.962704       -26.1965
  41   2.0000      -0.947997       -25.7963
  42   2.0000      -0.945248       -25.7215
  43   2.0000      -0.936260       -25.4769
  44   2.0000      -0.928838       -25.2750
  45   2.0000      -0.926547       -25.2126
  46   2.0000      -0.910219       -24.7683
  47   2.0000      -0.858615       -23.3641
  48   2.0000      -0.839211       -22.8361
  49   2.0000      -0.812376       -22.1059
  50   2.0000      -0.798947       -21.7405
  51   2.0000      -0.771416       -20.9913
  52   2.0000      -0.761557       -20.7230
  53   2.0000      -0.756588       -20.5878
  54   2.0000      -0.751160       -20.4401
  55   2.0000      -0.723026       -19.6745
  56   2.0000      -0.703481       -19.1427
  57   2.0000      -0.701239       -19.0817
  58   2.0000      -0.694118       -18.8879
  59   2.0000      -0.675923       -18.3928
  60   2.0000      -0.668114       -18.1803
  61   2.0000      -0.650443       -17.6995
  62   2.0000      -0.637699       -17.3527
  63   2.0000      -0.626689       -17.0531
  64   2.0000      -0.619720       -16.8634
  65   2.0000      -0.603850       -16.4316
  66   2.0000      -0.599981       -16.3263
  67   2.0000      -0.596344       -16.2274
  68   2.0000      -0.587402       -15.9840
  69   2.0000      -0.583332       -15.8733
  70   2.0000      -0.568470       -15.4689
  71   2.0000      -0.566747       -15.4220
  72   2.0000      -0.563470       -15.3328
  73   2.0000      -0.559601       -15.2275
  74   2.0000      -0.558409       -15.1951
  75   2.0000      -0.552951       -15.0466
  76   2.0000      -0.546202       -14.8629
  77   2.0000      -0.542703       -14.7677
  78   2.0000      -0.530522       -14.4362
  79   2.0000      -0.519156       -14.1269
  80   2.0000      -0.512950       -13.9581
  81   2.0000      -0.509413       -13.8618
  82   2.0000      -0.499291       -13.5864
  83   2.0000      -0.496170       -13.5015
  84   2.0000      -0.494808       -13.4644
  85   2.0000      -0.484596       -13.1865
  86   2.0000      -0.480182       -13.0664
  87   2.0000      -0.474495       -12.9117
  88   2.0000      -0.472055       -12.8453
  89   2.0000      -0.466650       -12.6982
  90   2.0000      -0.464266       -12.6333
  91   2.0000      -0.458414       -12.4741
  92   2.0000      -0.445682       -12.1276
  93   2.0000      -0.440410       -11.9842
  94   2.0000      -0.437731       -11.9113
  95   2.0000      -0.430257       -11.7079
  96   2.0000      -0.424583       -11.5535
  97   2.0000      -0.423693       -11.5293
  98   2.0000      -0.394340       -10.7305
  99   2.0000      -0.347117        -9.4455
 100   2.0000      -0.327062        -8.8998
 101   2.0000      -0.323534        -8.8038
 102   2.0000      -0.322201        -8.7675
 103   2.0000      -0.318186        -8.6583
 104   2.0000      -0.297445        -8.0939
 105   2.0000      -0.289062        -7.8658
 106   0.0000      -0.052954        -1.4410
 107   0.0000       0.022940         0.6242
 108   0.0000       0.034307         0.9335
 109   0.0000       0.044842         1.2202
 110   0.0000       0.058237         1.5847

MULLIKEN ATOMIC CHARGES
-----------------------
   0 C :   -0.081078
   1 C :   -0.257123
   2 C :    0.227989
   3 C :    0.108628
   4 C :   -0.252267
   5 C :   -0.169162
   6 C :    0.137890
   7 C :    0.194541
   8 C :    0.173001
   9 C :   -0.244591
  10 H :    0.188238
  11 C :   -0.094282
  12 C :   -0.154159
  13 C :   -0.267734
  14 H :    0.180566
  15 H :    0.187815
  16 H :    0.193600
  17 H :    0.173875
  18 H :    0.180017
  19 H :    0.174366
  20 H :    0.193007
  21 N :    0.140135
  22 C :    0.055987
  23 C :   -0.139211
  24 C :   -0.334294
  25 C :   -0.191471
  26 C :   -0.113346
  27 C :   -0.165192
  28 H :    0.168654
  29 H :    0.172340
  30 C :    0.080661
  31 C :   -0.250195
  32 C :   -0.221137
  33 C :   -0.240046
  34 H :    0.173455
  35 C :   -0.207441
  36 H :    0.170224
  37 C :    0.392115
  38 H :    0.175262
  39 H :    0.156866
  40 O :   -0.347286
  41 C :   -0.187540
  42 H :    0.153739
  43 H :    0.138340
  44 H :    0.138845
  45 H :    0.165936
  46 B :    0.469624
  47 O :   -0.519373
  48 O :   -0.537038
  49 H :    0.373262
  50 H :    0.372196
  51 H :    0.162789
Sum of atomic charges:    1.0000000

LOEWDIN ATOMIC CHARGES
----------------------
   0 C :   -0.074879
   1 C :   -0.098699
   2 C :   -0.052004
   3 C :   -0.056064
   4 C :   -0.057515
   5 C :   -0.125059
   6 C :    0.059955
   7 C :   -0.052895
   8 C :   -0.051965
   9 C :   -0.097221
  10 H :    0.169874
  11 C :   -0.075402
  12 C :   -0.122227
  13 C :   -0.053435
  14 H :    0.163404
  15 H :    0.169588
  16 H :    0.169842
  17 H :    0.158481
  18 H :    0.163375
  19 H :    0.158956
  20 H :    0.174568
  21 N :    0.356267
  22 C :   -0.059387
  23 C :   -0.030814
  24 C :   -0.084863
  25 C :   -0.075955
  26 C :   -0.122064
  27 C :   -0.124916
  28 H :    0.155427
  29 H :    0.163189
  30 C :   -0.172036
  31 C :   -0.084116
  32 C :   -0.087232
  33 C :   -0.125360
  34 H :    0.165517
  35 C :   -0.109249
  36 H :    0.165230
  37 C :   -0.232758
  38 H :    0.161299
  39 H :    0.157670
  40 O :    0.204414
  41 C :   -0.290704
  42 H :    0.115371
  43 H :    0.111685
  44 H :    0.111755
  45 H :    0.154165
  46 B :   -0.827186
  47 O :    0.160901
  48 O :    0.164227
  49 H :    0.221978
  50 H :    0.225334
  51 H :    0.161536

  Mayer bond orders larger than 0.100000
B(  0-C ,  1-C ) :   1.5365 B(  0-C ,  5-C ) :   1.2152 B(  0-C , 14-H ) :   0.9703
B(  1-C ,  2-C ) :   1.2522 B(  1-C , 15-H ) :   0.9721 B(  2-C ,  3-C ) :   1.2391
B(  2-C , 21-N ) :   1.2356 B(  3-C ,  4-C ) :   1.1879 B(  3-C ,  6-C ) :   1.1657
B(  3-C , 22-C ) :  -0.1038 B(  4-C ,  5-C ) :   1.6011 B(  4-C , 16-H ) :   0.9630
B(  5-C , 17-H ) :   0.9830 B(  6-C ,  7-C ) :   1.0960 B(  6-C , 22-C ) :   0.7107
B(  6-C , 47-O ) :   0.1165 B(  7-C ,  8-C ) :   1.2626 B(  7-C , 13-C ) :   1.1581
B(  7-C , 22-C ) :  -0.1074 B(  8-C ,  9-C ) :   1.2576 B(  8-C , 21-N ) :   1.2320
B(  9-C , 10-H ) :   0.9724 B(  9-C , 11-C ) :   1.5303 B( 11-C , 12-C ) :   1.2164
B( 11-C , 18-H ) :   0.9722 B( 12-C , 13-C ) :   1.6023 B( 12-C , 19-H ) :   0.9829
B( 13-C , 20-H ) :   0.9629 B( 21-N , 30-C ) :   0.6938 B( 22-C , 23-C ) :   1.2592
B( 22-C , 24-C ) :   1.3821 B( 23-C , 25-C ) :   1.4551 B( 23-C , 46-B ) :   0.9714
B( 24-C , 26-C ) :   1.4374 B( 24-C , 29-H ) :   0.9884 B( 25-C , 27-C ) :   1.3865
B( 25-C , 51-H ) :   0.9807 B( 26-C , 27-C ) :   1.3883 B( 26-C , 28-H ) :   0.9824
B( 27-C , 45-H ) :   0.9805 B( 30-C , 31-C ) :   1.5150 B( 30-C , 32-C ) :   1.4616
B( 31-C , 33-C ) :   1.3802 B( 31-C , 34-H ) :   0.9744 B( 32-C , 35-C ) :   1.4599
B( 32-C , 36-H ) :   0.9906 B( 33-C , 37-C ) :   1.3211 B( 33-C , 38-H ) :   0.9742
B( 35-C , 37-C ) :   1.3247 B( 35-C , 39-H ) :   0.9961 B( 37-C , 40-O ) :   1.1143
B( 40-O , 41-C ) :   0.8779 B( 41-C , 42-H ) :   0.9751 B( 41-C , 43-H ) :   0.9740
B( 41-C , 44-H ) :   0.9739 B( 46-B , 47-O ) :   1.2549 B( 46-B , 48-O ) :   1.3062
B( 47-O , 49-H ) :   0.8508 B( 48-O , 50-H ) :   0.8467

MP2 TOTAL ENERGY:    -1307.475885906 Eh

-----------------------------------------------------------------------------
         ABSORPTION SPECTRUM VIA TRANSITION ELECTRIC DIPOLE MOMENTS
-----------------------------------------------------------------------------
State   Energy    Wavelength  fosc         T2        TX        TY        TZ
        (cm-1)      (nm)                 (au**2)    (au)      (au)      (au)
-----------------------------------------------------------------------------
   1   16293.0    613.8   0.164978636   3.33351  -1.82196  -0.11294   0.03491
   2   21042.1    475.2   0.246554812   3.85746  -0.09458   1.91888   0.40792
   3   14593.2    685.2   0.006851908   0.15457  -0.37248   0.12399   0.02139
   4   19671.4    508.4   0.037924654   0.63469  -0.78898  -0.11039  -0.00483
   5   22124.4    452.0   0.028197017   0.41957   0.15778  -0.62161  -0.09096
   6   21099.1    474.0   0.017393527   0.27139   0.11802  -0.33447  -0.38157
   7   24095.9    415.0   0.204052713   2.78789   0.11466  -1.64750  -0.24594
   8   27939.5    357.9   0.074616034   0.87920   0.09650  -0.64755  -0.67125
   9   27976.6    357.4   0.474864663   5.58793  -0.29214   2.31279   0.39191
  10   29243.7    342.0   0.170425731   1.91857  -0.31265  -1.31358  -0.30874
  11   43317.1    230.9   0.025435217   0.19331  -0.07755   0.30159  -0.31038
  12   43957.3    227.5   0.127322558   0.95356  -0.91378  -0.16063   0.30457
  13   40597.8    246.3   0.098841587   0.80152   0.88713   0.10132  -0.06514
  14   34993.1    285.8   0.023923808   0.22507   0.12930   0.43470  -0.13925
  15   32805.3    304.8   0.027350568   0.27447  -0.44147  -0.26417   0.09894
  16   37667.9    265.5   0.003205328   0.02801  -0.15185  -0.03039   0.06350
  17   38129.8    262.3   0.630247737   5.44154  -2.33155   0.07349  -0.00002
  18   36124.7    276.8   0.090184476   0.82187  -0.30346  -0.39793   0.75593
  19   28079.2    356.1   0.018421491   0.21598  -0.45914  -0.06160  -0.03712
  20   42312.6    236.3   0.297341750   2.31346   0.77660  -0.75004   1.07135
  21   44055.2    227.0   1.386008611  10.35724   3.16649   0.37568  -0.43524
  22   42838.6    233.4   0.027961384   0.21488   0.34248  -0.22142   0.22037
  23   38015.9    263.0   0.044346261   0.38403  -0.12384  -0.43621  -0.42240
  24   44520.1    224.6   0.341722973   2.52693  -0.02451  -0.27101   1.56617
  25   38798.2    257.7   0.024622475   0.20893  -0.29822  -0.12775   0.32198
  26   39380.3    253.9   0.004758839   0.03978  -0.15437   0.12114   0.03577
  27   37869.8    264.1   0.068243112   0.59325   0.11942   0.74474  -0.15604
  28   39051.9    256.1   0.057932083   0.48837  -0.06700  -0.68236   0.13514
  29   39443.5    253.5   0.011125093   0.09285  -0.02739   0.23642  -0.19029
  30   38610.1    259.0   0.007061570   0.06021  -0.12827   0.11215  -0.17658

Dispersion correction           -0.052150467
FINAL SINGLE POINT ENERGY     -1304.977116728574

DIPOLE MOMENT
-------------
                                X             Y             Z
Electronic contribution:     11.27149      -0.70440      -0.35690
Nuclear contribution   :    -12.21503       1.60799       0.45789
                        -----------------------------------------
Total Dipole Moment    :     -0.94354       0.90359       0.10099
                        -----------------------------------------
Magnitude (a.u.)       :      1.31032
Magnitude (Debye)      :      3.33056

Rotational constants in cm-1:     0.010028     0.002980     0.002627
Rotational constants in MHz :   300.646435    89.343388    78.766984

                             ****ORCA TERMINATED NORMALLY****
TOTAL RUN TIME: 0 days 1 hours 55 minutes 19 seconds 919 msec
