                         Program Version 5.0.2 -  RELEASE  -
|  1> %maxcore 38400
|  2> %pal
|  3>  nprocs= 4
|  4> end
|  5> !STEOM-DLPNO-CCSD DEF2-TZVP DEF2-TZVP/C def2/J TightSCF TightPNO CPCM
|  6> %MDCI
|  7>    Dorootwise true
|  8>    OTHRESH 0.005
|  9>    VTHRESH 0.005
| 10>    TCutPNOSingles 1e-11
| 11>    DTol 1e-5
| 12>    NROOTS  25
| 13>    DOSOLV  TRUE
| 14>    MAXITER 500
| 15> END
| 16> %CPCM
| 17>    SMD          TRUE
| 18>    SMDsolvent   "ACETONITRILE"
| 19> END
| 20>
| 21>
| 22> * xyz 1 1
| 23> C                  -0.68199200    3.69212300    0.45109500
| 24> C                  -1.29772600    2.49705700    0.19805900
| 25> C                  -0.52563000    1.34919600   -0.05376000
| 26> C                   0.89842500    1.44364400   -0.07124300
| 27> C                   1.48730600    2.69973600    0.22582500
| 28> C                   0.71951400    3.79714800    0.47862600
| 29> C                   1.67020700    0.30031700   -0.34817000
| 30> C                   1.02104700   -0.92499200   -0.59013700
| 31> C                  -0.40290800   -0.99406800   -0.52766600
| 32> C                  -1.05201400   -2.22403800   -0.73464100
| 33> H                  -2.12827900   -2.27930000   -0.67436000
| 34> C                  -0.31925200   -3.34527600   -1.01281100
| 35> C                   1.08133000   -3.29123600   -1.11426000
| 36> C                   1.73155300   -2.10992900   -0.91270000
| 37> H                  -1.28875100    4.56712900    0.64432100
| 38> H                  -2.37503500    2.42932400    0.19516200
| 39> H                   2.56514000    2.77122800    0.25352500
| 40> H                   1.18453900    4.74692900    0.70456400
| 41> H                  -0.83245700   -4.28512000   -1.16891500
| 42> H                   1.63911800   -4.18408000   -1.36145400
| 43> H                   2.80673700   -2.06011500   -1.01067400
| 44> N                  -1.12546700    0.13962700   -0.27174000
| 45> C                   3.14569700    0.38732300   -0.39986500
| 46> C                   3.95586200   -0.31238100    0.51514400
| 47> C                   3.72463900    1.14686100   -1.41665300
| 48> C                   5.34093300   -0.22350900    0.35367000
| 49> C                   5.10131300    1.21534100   -1.54795700
| 50> C                   5.91389100    0.52892000   -0.65895800
| 51> H                   5.53564100    1.80205000   -2.34726300
| 52> H                   3.08512900    1.66910700   -2.11793500
| 53> C                  -2.56951200    0.05352900   -0.22339900
| 54> C                  -3.19860800   -0.18013700    0.98472300
| 55> C                  -3.30208600    0.20321600   -1.39253900
| 56> C                  -4.58111200   -0.26793400    1.03720400
| 57> H                  -2.60962600   -0.29450100    1.88601000
| 58> C                  -4.67740100    0.11745400   -1.34630600
| 59> H                  -2.79205500    0.38478400   -2.33002600
| 60> C                  -5.32696000   -0.11883200   -0.13164000
| 61> H                  -5.06612300   -0.45243400    1.98456100
| 62> H                  -5.26946900    0.23067900   -2.24474200
| 63> O                  -6.67156200   -0.18670200   -0.18612200
| 64> C                  -7.36963600   -0.42721000    1.02706200
| 65> H                  -8.42499100   -0.44121900    0.77034100
| 66> H                  -7.09260400   -1.38954200    1.46301400
| 67> H                  -7.18741700    0.36481100    1.75663300
| 68> H                   6.99099600    0.57925300   -0.75547000
| 69> B                   3.39754400   -1.14348300    1.72153900
| 70> O                   2.31006200   -0.79208700    2.47381000
| 71> O                   4.06471900   -2.28323200    2.05943000
| 72> H                   1.93286500    0.06571800    2.24961400
| 73> H                   3.68938000   -2.70780500    2.83994100
| 74> H                   5.98077500   -0.75465100    1.04846800
| 75> *
| 76>
| 77>
| 78>                          ****END OF INPUT****

CARTESIAN COORDINATES (ANGSTROEM)
---------------------------------
  C     -0.681992    3.692123    0.451095
  C     -1.297726    2.497057    0.198059
  C     -0.525630    1.349196   -0.053760
  C      0.898425    1.443644   -0.071243
  C      1.487306    2.699736    0.225825
  C      0.719514    3.797148    0.478626
  C      1.670207    0.300317   -0.348170
  C      1.021047   -0.924992   -0.590137
  C     -0.402908   -0.994068   -0.527666
  C     -1.052014   -2.224038   -0.734641
  H     -2.128279   -2.279300   -0.674360
  C     -0.319252   -3.345276   -1.012811
  C      1.081330   -3.291236   -1.114260
  C      1.731553   -2.109929   -0.912700
  H     -1.288751    4.567129    0.644321
  H     -2.375035    2.429324    0.195162
  H      2.565140    2.771228    0.253525
  H      1.184539    4.746929    0.704564
  H     -0.832457   -4.285120   -1.168915
  H      1.639118   -4.184080   -1.361454
  H      2.806737   -2.060115   -1.010674
  N     -1.125467    0.139627   -0.271740
  C      3.145697    0.387323   -0.399865
  C      3.955862   -0.312381    0.515144
  C      3.724639    1.146861   -1.416653
  C      5.340933   -0.223509    0.353670
  C      5.101313    1.215341   -1.547957
  C      5.913891    0.528920   -0.658958
  H      5.535641    1.802050   -2.347263
  H      3.085129    1.669107   -2.117935
  C     -2.569512    0.053529   -0.223399
  C     -3.198608   -0.180137    0.984723
  C     -3.302086    0.203216   -1.392539
  C     -4.581112   -0.267934    1.037204
  H     -2.609626   -0.294501    1.886010
  C     -4.677401    0.117454   -1.346306
  H     -2.792055    0.384784   -2.330026
  C     -5.326960   -0.118832   -0.131640
  H     -5.066123   -0.452434    1.984561
  H     -5.269469    0.230679   -2.244742
  O     -6.671562   -0.186702   -0.186122
  C     -7.369636   -0.427210    1.027062
  H     -8.424991   -0.441219    0.770341
  H     -7.092604   -1.389542    1.463014
  H     -7.187417    0.364811    1.756633
  H      6.990996    0.579253   -0.755470
  B      3.397544   -1.143483    1.721539
  O      2.310062   -0.792087    2.473810
  O      4.064719   -2.283232    2.059430
  H      1.932865    0.065718    2.249614
  H      3.689380   -2.707805    2.839941
  H      5.980775   -0.754651    1.048468

 Total Charge           Charge          ....    1
 Multiplicity           Mult            ....    1
 Number of Electrons    NEL             ....  212
 Basis Dimension        Dim             .... 1087

ORBITAL ENERGIES
----------------

  NO   OCC          E(Eh)            E(eV)
   0   2.0000     -20.588796      -560.2496
   1   2.0000     -20.571665      -559.7835
   2   2.0000     -20.565751      -559.6225
   3   2.0000     -15.662456      -426.1971
   4   2.0000     -11.331738      -308.3523
   5   2.0000     -11.331249      -308.3390
   6   2.0000     -11.320279      -308.0405
   7   2.0000     -11.310619      -307.7776
   8   2.0000     -11.278642      -306.9074
   9   2.0000     -11.274007      -306.7813
  10   2.0000     -11.273980      -306.7806
  11   2.0000     -11.271937      -306.7250
  12   2.0000     -11.264929      -306.5343
  13   2.0000     -11.264550      -306.5240
  14   2.0000     -11.264539      -306.5237
  15   2.0000     -11.259865      -306.3965
  16   2.0000     -11.259719      -306.3925
  17   2.0000     -11.250980      -306.1547
  18   2.0000     -11.249945      -306.1266
  19   2.0000     -11.246157      -306.0235
  20   2.0000     -11.245761      -306.0127
  21   2.0000     -11.244934      -305.9902
  22   2.0000     -11.243160      -305.9420
  23   2.0000     -11.242500      -305.9240
  24   2.0000     -11.241756      -305.9037
  25   2.0000     -11.241473      -305.8960
  26   2.0000     -11.238642      -305.8190
  27   2.0000     -11.236031      -305.7480
  28   2.0000     -11.234863      -305.7162
  29   2.0000     -11.231767      -305.6319
  30   2.0000      -7.645442      -208.0431
  31   2.0000      -1.420132       -38.6438
  32   2.0000      -1.387714       -37.7616
  33   2.0000      -1.353765       -36.8378
  34   2.0000      -1.346712       -36.6459
  35   2.0000      -1.206295       -32.8249
  36   2.0000      -1.186843       -32.2957
  37   2.0000      -1.170031       -31.8382
  38   2.0000      -1.155209       -31.4348
  39   2.0000      -1.120611       -30.4934
  40   2.0000      -1.063615       -28.9424
  41   2.0000      -1.047781       -28.5116
  42   2.0000      -1.046128       -28.4666
  43   2.0000      -1.037096       -28.2208
  44   2.0000      -1.029463       -28.0131
  45   2.0000      -1.027850       -27.9692
  46   2.0000      -1.007461       -27.4144
  47   2.0000      -0.948928       -25.8216
  48   2.0000      -0.928804       -25.2740
  49   2.0000      -0.896892       -24.4057
  50   2.0000      -0.883236       -24.0341
  51   2.0000      -0.854165       -23.2430
  52   2.0000      -0.844285       -22.9742
  53   2.0000      -0.838699       -22.8222
  54   2.0000      -0.832603       -22.6563
  55   2.0000      -0.800657       -21.7870
  56   2.0000      -0.779350       -21.2072
  57   2.0000      -0.771969       -21.0063
  58   2.0000      -0.768010       -20.8986
  59   2.0000      -0.744385       -20.2558
  60   2.0000      -0.738484       -20.0952
  61   2.0000      -0.718757       -19.5584
  62   2.0000      -0.705569       -19.1995
  63   2.0000      -0.693246       -18.8642
  64   2.0000      -0.687690       -18.7130
  65   2.0000      -0.670904       -18.2562
  66   2.0000      -0.665910       -18.1203
  67   2.0000      -0.660392       -17.9702
  68   2.0000      -0.656446       -17.8628
  69   2.0000      -0.647552       -17.6208
  70   2.0000      -0.633516       -17.2388
  71   2.0000      -0.629326       -17.1248
  72   2.0000      -0.626909       -17.0591
  73   2.0000      -0.620987       -16.8979
  74   2.0000      -0.620427       -16.8827
  75   2.0000      -0.614924       -16.7329
  76   2.0000      -0.611325       -16.6350
  77   2.0000      -0.603542       -16.4232
  78   2.0000      -0.591467       -16.0946
  79   2.0000      -0.580434       -15.7944
  80   2.0000      -0.576923       -15.6989
  81   2.0000      -0.566961       -15.4278
  82   2.0000      -0.563618       -15.3368
  83   2.0000      -0.558397       -15.1947
  84   2.0000      -0.557286       -15.1645
  85   2.0000      -0.537848       -14.6356
  86   2.0000      -0.529439       -14.4068
  87   2.0000      -0.527831       -14.3630
  88   2.0000      -0.526673       -14.3315
  89   2.0000      -0.521985       -14.2039
  90   2.0000      -0.519964       -14.1489
  91   2.0000      -0.509680       -13.8691
  92   2.0000      -0.506231       -13.7752
  93   2.0000      -0.494914       -13.4673
  94   2.0000      -0.492866       -13.4116
  95   2.0000      -0.482010       -13.1161
  96   2.0000      -0.477768       -13.0007
  97   2.0000      -0.476431       -12.9643
  98   2.0000      -0.430138       -11.7046
  99   2.0000      -0.376792       -10.2530
 100   2.0000      -0.355371        -9.6701
 101   2.0000      -0.351164        -9.5557
 102   2.0000      -0.349741        -9.5169
 103   2.0000      -0.342644        -9.3238
 104   2.0000      -0.328190        -8.9305
 105   2.0000      -0.314198        -8.5498
 106   0.0000      -0.002727        -0.0742
 107   0.0000       0.075930         2.0662
 108   0.0000       0.088039         2.3957
 109   0.0000       0.099165         2.6984
 110   0.0000       0.114320         3.1108

E(0)                                       ...  -1301.021297878
E(0)                                       ...  -1301.021297878
E(CORR)(strong-pairs)                      ...     -5.048475622
E(CORR)(weak-pairs)                        ...     -0.011798272
E(CORR)(corrected)                         ...     -5.060273894
E(TOT)                                     ...  -1306.081571772

MULLIKEN ATOMIC CHARGES
-----------------------
   0 C :   -0.092167
   1 C :   -0.253054
   2 C :    0.174351
   3 C :    0.142506
   4 C :   -0.269206
   5 C :   -0.155563
   6 C :    0.085066
   7 C :    0.239527
   8 C :    0.126947
   9 C :   -0.239167
  10 H :    0.191730
  11 C :   -0.105080
  12 C :   -0.141464
  13 C :   -0.285958
  14 H :    0.188193
  15 H :    0.191199
  16 H :    0.198579
  17 H :    0.181906
  18 H :    0.187667
  19 H :    0.182187
  20 H :    0.197728
  21 N :    0.205342
  22 C :    0.054875
  23 C :   -0.130019
  24 C :   -0.348969
  25 C :   -0.203055
  26 C :   -0.112942
  27 C :   -0.171561
  28 H :    0.177403
  29 H :    0.176559
  30 C :    0.054650
  31 C :   -0.264477
  32 C :   -0.244526
  33 C :   -0.210320
  34 H :    0.179154
  35 C :   -0.198422
  36 H :    0.177888
  37 C :    0.326349
  38 H :    0.184580
  39 H :    0.163463
  40 O :   -0.272647
  41 C :   -0.272819
  42 H :    0.172353
  43 H :    0.157295
  44 H :    0.157553
  45 H :    0.174646
  46 B :    0.353305
  47 O :   -0.461682
  48 O :   -0.473752
  49 H :    0.368935
  50 H :    0.367925
  51 H :    0.166989
Sum of atomic charges:    0.9999999

LOEWDIN ATOMIC CHARGES
----------------------
   0 C :   -0.089485
   1 C :   -0.094031
   2 C :   -0.066147
   3 C :   -0.049294
   4 C :   -0.068117
   5 C :   -0.120313
   6 C :    0.035317
   7 C :   -0.046247
   8 C :   -0.065967
   9 C :   -0.093052
  10 H :    0.174906
  11 C :   -0.089648
  12 C :   -0.118216
  13 C :   -0.063602
  14 H :    0.168560
  15 H :    0.174637
  16 H :    0.174981
  17 H :    0.164483
  18 H :    0.168560
  19 H :    0.164908
  20 H :    0.179633
  21 N :    0.384914
  22 C :   -0.065345
  23 C :   -0.035805
  24 C :   -0.090828
  25 C :   -0.083560
  26 C :   -0.128144
  27 C :   -0.130358
  28 H :    0.160940
  29 H :    0.168205
  30 C :   -0.171597
  31 C :   -0.095777
  32 C :   -0.098932
  33 C :   -0.126185
  34 H :    0.171013
  35 C :   -0.110080
  36 H :    0.170891
  37 C :   -0.251953
  38 H :    0.167200
  39 H :    0.163596
  40 O :    0.238155
  41 C :   -0.318944
  42 H :    0.121844
  43 H :    0.117715
  44 H :    0.117771
  45 H :    0.159629
  46 B :   -0.864928
  47 O :    0.186608
  48 O :    0.189338
  49 H :    0.221440
  50 H :    0.224926
  51 H :    0.166383

  Mayer bond orders larger than 0.100000
B(  0-C ,  1-C ) :   1.4217 B(  0-C ,  5-C ) :   1.1097 B(  0-C , 14-H ) :   0.9201
B(  1-C ,  2-C ) :   1.1517 B(  1-C , 15-H ) :   0.9237 B(  2-C ,  3-C ) :   1.1741
B(  2-C , 21-N ) :   1.1880 B(  3-C ,  4-C ) :   1.1098 B(  3-C ,  6-C ) :   1.1351
B(  4-C ,  5-C ) :   1.4580 B(  4-C , 16-H ) :   0.9165 B(  5-C , 17-H ) :   0.9329
B(  6-C ,  7-C ) :   1.0605 B(  6-C , 22-C ) :   0.6759 B(  6-C , 47-O ) :   0.1259
B(  7-C ,  8-C ) :   1.1883 B(  7-C , 13-C ) :   1.0893 B(  7-C , 22-C ) :  -0.1002
B(  8-C ,  9-C ) :   1.1550 B(  8-C , 21-N ) :   1.1852 B(  9-C , 10-H ) :   0.9236
B(  9-C , 11-C ) :   1.4150 B( 11-C , 12-C ) :   1.1111 B( 11-C , 18-H ) :   0.9217
B( 12-C , 13-C ) :   1.4573 B( 12-C , 19-H ) :   0.9338 B( 13-C , 20-H ) :   0.9158
B( 21-N , 30-C ) :   0.6541 B( 22-C , 23-C ) :   1.1789 B( 22-C , 24-C ) :   1.2953
B( 23-C , 25-C ) :   1.3410 B( 23-C , 46-B ) :   0.9218 B( 24-C , 26-C ) :   1.3179
B( 24-C , 29-H ) :   0.9397 B( 25-C , 27-C ) :   1.2717 B( 25-C , 51-H ) :   0.9343
B( 26-C , 27-C ) :   1.2747 B( 26-C , 28-H ) :   0.9322 B( 27-C , 45-H ) :   0.9311
B( 30-C , 31-C ) :   1.4158 B( 30-C , 32-C ) :   1.3526 B( 31-C , 33-C ) :   1.2708
B( 31-C , 34-H ) :   0.9267 B( 32-C , 35-C ) :   1.3472 B( 32-C , 36-H ) :   0.9423
B( 33-C , 37-C ) :   1.2129 B( 33-C , 38-H ) :   0.9199 B( 35-C , 37-C ) :   1.2215
B( 35-C , 39-H ) :   0.9445 B( 37-C , 40-O ) :   1.1012 B( 40-O , 41-C ) :   0.8370
B( 41-C , 42-H ) :   0.9211 B( 41-C , 43-H ) :   0.9177 B( 41-C , 44-H ) :   0.9176
B( 46-B , 47-O ) :   1.2458 B( 46-B , 48-O ) :   1.3131 B( 47-O , 49-H ) :   0.8076
B( 48-O , 50-H ) :   0.8018

-----------------------------------------------------------------------------
         ABSORPTION SPECTRUM VIA TRANSITION ELECTRIC DIPOLE MOMENTS
-----------------------------------------------------------------------------
State   Energy  Wavelength   fosc         T2         TX        TY        TZ
        (cm-1)    (nm)                  (au**2)     (au)      (au)      (au)
-----------------------------------------------------------------------------
   1   23609.1    423.6   0.202446760   2.82297   1.67741   0.09157   0.02157
   2   27654.7    361.6   0.124798309   1.48564   0.03659   1.19279   0.24657
   3   24173.2    413.7   0.000290247   0.00395   0.05606   0.02017   0.00459
   4   28710.1    348.3   0.043978200   0.50429   0.70796   0.05037   0.02104
   5   30914.6    323.5   0.014016426   0.14926   0.05823   0.38052   0.02103
   6   39155.4    255.4   0.047636107   0.40052   0.21901   0.58311   0.07022
   7   39201.1    255.1   0.042774756   0.35922   0.03052   0.08969   0.56336
   8   40956.1    244.2   1.174337658   9.43953   0.16737   2.97386   0.75268
   9   45315.9    220.7   0.107449626   0.78060   0.78402   0.39078   0.03650
  10   46458.3    215.2   0.232399362   1.64682   0.90052   0.91068   0.05360
  11   42493.1    235.3   0.011564643   0.08960   0.28925   0.03375   0.01423
  12   47613.7    210.0   0.385572948   2.66594   1.60435   0.00827   0.27762
  13   49912.4    200.4   0.042751326   0.28198   0.07845   0.27693   0.40049
  14   50016.9    199.9   0.174176309   1.14643   1.03578   0.19330   0.18571
  15   50034.4    199.9   0.225366277   1.48285   1.21192   0.05315   0.05923
  16   50410.6    198.4   0.099819537   0.65188   0.68098   0.24566   0.15118
  17   50614.1    197.6   0.065900850   0.42864   0.31444   0.07057   0.40235
  18   51809.5    193.0   0.038074294   0.24193   0.45472   0.14453   0.11370
  19   53207.1    187.9   0.212053167   1.31205   0.94814   0.26742   0.58119
  20   56343.0    177.5   0.002470344   0.01443   0.03885   0.08878   0.05700
  21   57971.1    172.5   0.009995441   0.05676   0.06145   0.22055   0.02429
  22   54229.1    184.4   0.077228413   0.46884   0.14740   0.66700   0.02007

FINAL SINGLE POINT ENERGY     -1305.974000593193

DIPOLE MOMENT
-------------
                                X             Y             Z
Electronic contribution:     11.02428      -0.76284      -0.31919
Nuclear contribution   :    -12.21503       1.60799       0.45789
                        -----------------------------------------
Total Dipole Moment    :     -1.19075       0.84515       0.13870
                        -----------------------------------------
Magnitude (a.u.)       :      1.46676
Magnitude (Debye)      :      3.72821

Rotational constants in cm-1:     0.010028     0.002980     0.002627
Rotational constants in MHz :   300.646435    89.343388    78.766984

                             ****ORCA TERMINATED NORMALLY****
TOTAL RUN TIME: 0 days 23 hours 0 minutes 3 seconds 308 msec
