                         Program Version 5.0.2 -  RELEASE  -
|  1> %maxcore 3200
|  2> %pal
|  3>  nprocs= 8
|  4> end
|  5> ! RI-B2PLYP D3BJ def2-TZVP def2/J def2-TZVP/C RIJCOSX CPCM TightSCF
|  6> %TDDFT DCORR 4
|  7>    NROOTS   30
|  8>
|  9>    TDA      FALSE
| 10> END
| 11>
| 12> %CPCM
| 13>    SMD          TRUE
| 14>    SMDsolvent   "ACETONITRILE"
| 15> END
| 16>
| 17>
| 18> * xyz 1 1
| 19> C                  -0.68199200    3.69212300    0.45109500
| 20> C                  -1.29772600    2.49705700    0.19805900
| 21> C                  -0.52563000    1.34919600   -0.05376000
| 22> C                   0.89842500    1.44364400   -0.07124300
| 23> C                   1.48730600    2.69973600    0.22582500
| 24> C                   0.71951400    3.79714800    0.47862600
| 25> C                   1.67020700    0.30031700   -0.34817000
| 26> C                   1.02104700   -0.92499200   -0.59013700
| 27> C                  -0.40290800   -0.99406800   -0.52766600
| 28> C                  -1.05201400   -2.22403800   -0.73464100
| 29> H                  -2.12827900   -2.27930000   -0.67436000
| 30> C                  -0.31925200   -3.34527600   -1.01281100
| 31> C                   1.08133000   -3.29123600   -1.11426000
| 32> C                   1.73155300   -2.10992900   -0.91270000
| 33> H                  -1.28875100    4.56712900    0.64432100
| 34> H                  -2.37503500    2.42932400    0.19516200
| 35> H                   2.56514000    2.77122800    0.25352500
| 36> H                   1.18453900    4.74692900    0.70456400
| 37> H                  -0.83245700   -4.28512000   -1.16891500
| 38> H                   1.63911800   -4.18408000   -1.36145400
| 39> H                   2.80673700   -2.06011500   -1.01067400
| 40> N                  -1.12546700    0.13962700   -0.27174000
| 41> C                   3.14569700    0.38732300   -0.39986500
| 42> C                   3.95586200   -0.31238100    0.51514400
| 43> C                   3.72463900    1.14686100   -1.41665300
| 44> C                   5.34093300   -0.22350900    0.35367000
| 45> C                   5.10131300    1.21534100   -1.54795700
| 46> C                   5.91389100    0.52892000   -0.65895800
| 47> H                   5.53564100    1.80205000   -2.34726300
| 48> H                   3.08512900    1.66910700   -2.11793500
| 49> C                  -2.56951200    0.05352900   -0.22339900
| 50> C                  -3.19860800   -0.18013700    0.98472300
| 51> C                  -3.30208600    0.20321600   -1.39253900
| 52> C                  -4.58111200   -0.26793400    1.03720400
| 53> H                  -2.60962600   -0.29450100    1.88601000
| 54> C                  -4.67740100    0.11745400   -1.34630600
| 55> H                  -2.79205500    0.38478400   -2.33002600
| 56> C                  -5.32696000   -0.11883200   -0.13164000
| 57> H                  -5.06612300   -0.45243400    1.98456100
| 58> H                  -5.26946900    0.23067900   -2.24474200
| 59> O                  -6.67156200   -0.18670200   -0.18612200
| 60> C                  -7.36963600   -0.42721000    1.02706200
| 61> H                  -8.42499100   -0.44121900    0.77034100
| 62> H                  -7.09260400   -1.38954200    1.46301400
| 63> H                  -7.18741700    0.36481100    1.75663300
| 64> H                   6.99099600    0.57925300   -0.75547000
| 65> B                   3.39754400   -1.14348300    1.72153900
| 66> O                   2.31006200   -0.79208700    2.47381000
| 67> O                   4.06471900   -2.28323200    2.05943000
| 68> H                   1.93286500    0.06571800    2.24961400
| 69> H                   3.68938000   -2.70780500    2.83994100
| 70> H                   5.98077500   -0.75465100    1.04846800
| 71> *
| 72>
| 73>
| 74>                          ****END OF INPUT****

CARTESIAN COORDINATES (ANGSTROEM)
---------------------------------
  C     -0.681992    3.692123    0.451095
  C     -1.297726    2.497057    0.198059
  C     -0.525630    1.349196   -0.053760
  C      0.898425    1.443644   -0.071243
  C      1.487306    2.699736    0.225825
  C      0.719514    3.797148    0.478626
  C      1.670207    0.300317   -0.348170
  C      1.021047   -0.924992   -0.590137
  C     -0.402908   -0.994068   -0.527666
  C     -1.052014   -2.224038   -0.734641
  H     -2.128279   -2.279300   -0.674360
  C     -0.319252   -3.345276   -1.012811
  C      1.081330   -3.291236   -1.114260
  C      1.731553   -2.109929   -0.912700
  H     -1.288751    4.567129    0.644321
  H     -2.375035    2.429324    0.195162
  H      2.565140    2.771228    0.253525
  H      1.184539    4.746929    0.704564
  H     -0.832457   -4.285120   -1.168915
  H      1.639118   -4.184080   -1.361454
  H      2.806737   -2.060115   -1.010674
  N     -1.125467    0.139627   -0.271740
  C      3.145697    0.387323   -0.399865
  C      3.955862   -0.312381    0.515144
  C      3.724639    1.146861   -1.416653
  C      5.340933   -0.223509    0.353670
  C      5.101313    1.215341   -1.547957
  C      5.913891    0.528920   -0.658958
  H      5.535641    1.802050   -2.347263
  H      3.085129    1.669107   -2.117935
  C     -2.569512    0.053529   -0.223399
  C     -3.198608   -0.180137    0.984723
  C     -3.302086    0.203216   -1.392539
  C     -4.581112   -0.267934    1.037204
  H     -2.609626   -0.294501    1.886010
  C     -4.677401    0.117454   -1.346306
  H     -2.792055    0.384784   -2.330026
  C     -5.326960   -0.118832   -0.131640
  H     -5.066123   -0.452434    1.984561
  H     -5.269469    0.230679   -2.244742
  O     -6.671562   -0.186702   -0.186122
  C     -7.369636   -0.427210    1.027062
  H     -8.424991   -0.441219    0.770341
  H     -7.092604   -1.389542    1.463014
  H     -7.187417    0.364811    1.756633
  H      6.990996    0.579253   -0.755470
  B      3.397544   -1.143483    1.721539
  O      2.310062   -0.792087    2.473810
  O      4.064719   -2.283232    2.059430
  H      1.932865    0.065718    2.249614
  H      3.689380   -2.707805    2.839941
  H      5.980775   -0.754651    1.048468

 Total Charge           Charge          ....    1
 Multiplicity           Mult            ....    1
 Number of Electrons    NEL             ....  212
 Basis Dimension        Dim             .... 1087

ORBITAL ENERGIES
----------------

  NO   OCC          E(Eh)            E(eV)
   0   2.0000     -19.760505      -537.7107
   1   2.0000     -19.741187      -537.1850
   2   2.0000     -19.735904      -537.0412
   3   2.0000     -14.941472      -406.5781
   4   2.0000     -10.709625      -291.4237
   5   2.0000     -10.709291      -291.4146
   6   2.0000     -10.693925      -290.9965
   7   2.0000     -10.692235      -290.9505
   8   2.0000     -10.666495      -290.2501
   9   2.0000     -10.663384      -290.1654
  10   2.0000     -10.663324      -290.1638
  11   2.0000     -10.657380      -290.0020
  12   2.0000     -10.648373      -289.7570
  13   2.0000     -10.645859      -289.6885
  14   2.0000     -10.645590      -289.6812
  15   2.0000     -10.641986      -289.5832
  16   2.0000     -10.641925      -289.5815
  17   2.0000     -10.635823      -289.4155
  18   2.0000     -10.635608      -289.4096
  19   2.0000     -10.635144      -289.3970
  20   2.0000     -10.634286      -289.3736
  21   2.0000     -10.632182      -289.3164
  22   2.0000     -10.631758      -289.3048
  23   2.0000     -10.629384      -289.2402
  24   2.0000     -10.626258      -289.1552
  25   2.0000     -10.625958      -289.1470
  26   2.0000     -10.624069      -289.0956
  27   2.0000     -10.623698      -289.0855
  28   2.0000     -10.622962      -289.0655
  29   2.0000     -10.618052      -288.9319
  30   2.0000      -7.147477      -194.4927
  31   2.0000      -1.220769       -33.2188
  32   2.0000      -1.188222       -32.3332
  33   2.0000      -1.167993       -31.7827
  34   2.0000      -1.151312       -31.3288
  35   2.0000      -1.031288       -28.0628
  36   2.0000      -1.015178       -27.6244
  37   2.0000      -0.998316       -27.1655
  38   2.0000      -0.986229       -26.8366
  39   2.0000      -0.955524       -26.0011
  40   2.0000      -0.907605       -24.6972
  41   2.0000      -0.893592       -24.3159
  42   2.0000      -0.890172       -24.2228
  43   2.0000      -0.881260       -23.9803
  44   2.0000      -0.873967       -23.7818
  45   2.0000      -0.871375       -23.7113
  46   2.0000      -0.857131       -23.3237
  47   2.0000      -0.809175       -22.0188
  48   2.0000      -0.789980       -21.4964
  49   2.0000      -0.765700       -20.8358
  50   2.0000      -0.752377       -20.4732
  51   2.0000      -0.725750       -19.7487
  52   2.0000      -0.715996       -19.4833
  53   2.0000      -0.711232       -19.3536
  54   2.0000      -0.706210       -19.2169
  55   2.0000      -0.680033       -18.5046
  56   2.0000      -0.662158       -18.0182
  57   2.0000      -0.660747       -17.9798
  58   2.0000      -0.653056       -17.7705
  59   2.0000      -0.637426       -17.3452
  60   2.0000      -0.628868       -17.1124
  61   2.0000      -0.612452       -16.6657
  62   2.0000      -0.599838       -16.3224
  63   2.0000      -0.589328       -16.0364
  64   2.0000      -0.581772       -15.8308
  65   2.0000      -0.566549       -15.4166
  66   2.0000      -0.563066       -15.3218
  67   2.0000      -0.560305       -15.2467
  68   2.0000      -0.549477       -14.9520
  69   2.0000      -0.547398       -14.8955
  70   2.0000      -0.532413       -14.4877
  71   2.0000      -0.531463       -14.4618
  72   2.0000      -0.528013       -14.3680
  73   2.0000      -0.525139       -14.2897
  74   2.0000      -0.523365       -14.2415
  75   2.0000      -0.518298       -14.1036
  76   2.0000      -0.509746       -13.8709
  77   2.0000      -0.508439       -13.8353
  78   2.0000      -0.496385       -13.5073
  79   2.0000      -0.485950       -13.2234
  80   2.0000      -0.477647       -12.9974
  81   2.0000      -0.475980       -12.9521
  82   2.0000      -0.466363       -12.6904
  83   2.0000      -0.461277       -12.5520
  84   2.0000      -0.457104       -12.4384
  85   2.0000      -0.454588       -12.3700
  86   2.0000      -0.452552       -12.3146
  87   2.0000      -0.444022       -12.0824
  88   2.0000      -0.440722       -11.9927
  89   2.0000      -0.435360       -11.8467
  90   2.0000      -0.432851       -11.7785
  91   2.0000      -0.429079       -11.6758
  92   2.0000      -0.415926       -11.3179
  93   2.0000      -0.409708       -11.1487
  94   2.0000      -0.403824       -10.9886
  95   2.0000      -0.399930       -10.8826
  96   2.0000      -0.394608       -10.7378
  97   2.0000      -0.393616       -10.7108
  98   2.0000      -0.372203       -10.1282
  99   2.0000      -0.328720        -8.9449
 100   2.0000      -0.309769        -8.4292
 101   2.0000      -0.307442        -8.3659
 102   2.0000      -0.304487        -8.2855
 103   2.0000      -0.301709        -8.2099
 104   2.0000      -0.278460        -7.5773
 105   2.0000      -0.273636        -7.4460
 106   0.0000      -0.075114        -2.0439
 107   0.0000      -0.001549        -0.0421
 108   0.0000       0.009148         0.2489
 109   0.0000       0.019245         0.5237
 110   0.0000       0.031778         0.8647

MULLIKEN ATOMIC CHARGES
-----------------------
   0 C :   -0.093439
   1 C :   -0.225872
   2 C :    0.194975
   3 C :    0.117155
   4 C :   -0.240592
   5 C :   -0.159570
   6 C :    0.106238
   7 C :    0.198531
   8 C :    0.144150
   9 C :   -0.215224
  10 H :    0.186207
  11 C :   -0.104661
  12 C :   -0.146817
  13 C :   -0.254277
  14 H :    0.176319
  15 H :    0.185915
  16 H :    0.190156
  17 H :    0.170023
  18 H :    0.175775
  19 H :    0.170340
  20 H :    0.189916
  21 N :    0.151980
  22 C :    0.048329
  23 C :   -0.121020
  24 C :   -0.312736
  25 C :   -0.192435
  26 C :   -0.111788
  27 C :   -0.158545
  28 H :    0.164378
  29 H :    0.166734
  30 C :    0.064584
  31 C :   -0.240811
  32 C :   -0.212143
  33 C :   -0.234015
  34 H :    0.168802
  35 C :   -0.199105
  36 H :    0.165150
  37 C :    0.378581
  38 H :    0.172306
  39 H :    0.152405
  40 O :   -0.327902
  41 C :   -0.195644
  42 H :    0.153555
  43 H :    0.139475
  44 H :    0.139910
  45 H :    0.161639
  46 B :    0.427300
  47 O :   -0.494129
  48 O :   -0.510418
  49 H :    0.366972
  50 H :    0.365254
  51 H :    0.158089
Sum of atomic charges:    1.0000000

LOEWDIN ATOMIC CHARGES
----------------------
   0 C :   -0.079449
   1 C :   -0.094923
   2 C :   -0.057082
   3 C :   -0.052809
   4 C :   -0.059644
   5 C :   -0.121964
   6 C :    0.052322
   7 C :   -0.049610
   8 C :   -0.056931
   9 C :   -0.093615
  10 H :    0.170560
  11 C :   -0.079832
  12 C :   -0.119350
  13 C :   -0.055229
  14 H :    0.163328
  15 H :    0.170285
  16 H :    0.170025
  17 H :    0.159051
  18 H :    0.163304
  19 H :    0.159497
  20 H :    0.174790
  21 N :    0.363534
  22 C :   -0.059522
  23 C :   -0.030199
  24 C :   -0.085304
  25 C :   -0.076739
  26 C :   -0.122931
  27 C :   -0.125534
  28 H :    0.155606
  29 H :    0.163362
  30 C :   -0.172036
  31 C :   -0.086599
  32 C :   -0.089610
  33 C :   -0.124260
  34 H :    0.165658
  35 C :   -0.108065
  36 H :    0.165417
  37 C :   -0.238284
  38 H :    0.161811
  39 H :    0.158087
  40 O :    0.215919
  41 C :   -0.297449
  42 H :    0.116610
  43 H :    0.112775
  44 H :    0.112839
  45 H :    0.154359
  46 B :   -0.842415
  47 O :    0.169931
  48 O :    0.173401
  49 H :    0.221159
  50 H :    0.224080
  51 H :    0.161676

  Mayer bond orders larger than 0.100000
B(  0-C ,  1-C ) :   1.5260 B(  0-C ,  5-C ) :   1.2203 B(  0-C , 14-H ) :   0.9703
B(  1-C ,  2-C ) :   1.2481 B(  1-C , 15-H ) :   0.9671 B(  2-C ,  3-C ) :   1.2416
B(  2-C , 21-N ) :   1.2334 B(  3-C ,  4-C ) :   1.1923 B(  3-C ,  6-C ) :   1.1595
B(  4-C ,  5-C ) :   1.5861 B(  4-C , 16-H ) :   0.9598 B(  5-C , 17-H ) :   0.9820
B(  6-C ,  7-C ) :   1.0937 B(  6-C , 22-C ) :   0.7357 B(  6-C , 47-O ) :   0.1158
B(  7-C ,  8-C ) :   1.2657 B(  7-C , 13-C ) :   1.1637 B(  8-C ,  9-C ) :   1.2523
B(  8-C , 21-N ) :   1.2301 B(  9-C , 10-H ) :   0.9676 B(  9-C , 11-C ) :   1.5201
B( 11-C , 12-C ) :   1.2218 B( 11-C , 18-H ) :   0.9721 B( 12-C , 13-C ) :   1.5872
B( 12-C , 19-H ) :   0.9820 B( 13-C , 20-H ) :   0.9595 B( 21-N , 30-C ) :   0.6905
B( 22-C , 23-C ) :   1.2537 B( 22-C , 24-C ) :   1.3653 B( 23-C , 25-C ) :   1.4399
B( 23-C , 46-B ) :   0.9687 B( 24-C , 26-C ) :   1.4294 B( 24-C , 29-H ) :   0.9906
B( 25-C , 27-C ) :   1.3843 B( 25-C , 51-H ) :   0.9802 B( 26-C , 27-C ) :   1.3831
B( 26-C , 28-H ) :   0.9816 B( 27-C , 45-H ) :   0.9799 B( 30-C , 31-C ) :   1.4973
B( 30-C , 32-C ) :   1.4478 B( 31-C , 33-C ) :   1.3707 B( 31-C , 34-H ) :   0.9749
B( 32-C , 35-C ) :   1.4518 B( 32-C , 36-H ) :   0.9927 B( 33-C , 37-C ) :   1.3042
B( 33-C , 38-H ) :   0.9708 B( 35-C , 37-C ) :   1.3180 B( 35-C , 39-H ) :   0.9954
B( 37-C , 40-O ) :   1.1260 B( 40-O , 41-C ) :   0.8860 B( 41-C , 42-H ) :   0.9728
B( 41-C , 43-H ) :   0.9706 B( 41-C , 44-H ) :   0.9706 B( 46-B , 47-O ) :   1.2733
B( 46-B , 48-O ) :   1.3274 B( 47-O , 49-H ) :   0.8541 B( 48-O , 50-H ) :   0.8504

MP2 TOTAL ENERGY:    -1308.079784002 Eh

-----------------------------------------------------------------------------
         ABSORPTION SPECTRUM VIA TRANSITION ELECTRIC DIPOLE MOMENTS
-----------------------------------------------------------------------------
State   Energy    Wavelength  fosc         T2        TX        TY        TZ
        (cm-1)      (nm)                 (au**2)    (au)      (au)      (au)
-----------------------------------------------------------------------------
   1   23213.4    430.8   0.217680821   3.08714   1.75354   0.10549  -0.03346
   2   23834.4    419.6   0.000342118   0.00473  -0.01272   0.06460   0.01977
   3   29381.3    340.4   0.319875423   3.58414  -0.04950   1.85434   0.37830
   4   28790.9    347.3   0.058692048   0.67112   0.81069  -0.10942  -0.04397
   5   29679.6    336.9   0.002720641   0.03018  -0.03128   0.15113  -0.07974
   6   31005.8    322.5   0.027332732   0.29021   0.08359  -0.43680  -0.30403
   7   32879.2    304.1   0.016212273   0.16233  -0.02859   0.37967   0.13177
   8   38562.6    259.3   0.285667542   2.43877   0.14143  -1.34073  -0.78816
   9   38772.8    257.9   0.912740179   7.74989  -0.22877   2.75219   0.35075
  10   40104.4    249.3   0.090852593   0.74580  -0.41540  -0.73668  -0.17478
  11   43515.2    229.8   0.040040616   0.30293   0.30012  -0.36737   0.27909
  12   45870.8    218.0   0.180484059   1.29532   1.03811   0.28937  -0.36594
  13   41937.0    238.5   0.072910367   0.57236   0.69557   0.28114  -0.09746
  14   43939.0    227.6   0.029850986   0.22366   0.24017  -0.38147  -0.14302
  15   45066.9    221.9   0.049663875   0.36279   0.41235   0.40100  -0.17878
  16   40246.9    248.5   0.000853018   0.00698  -0.03157   0.07681  -0.00902
  17   45155.2    221.5   0.002543489   0.01854  -0.11844   0.05083  -0.04397
  18   43946.3    227.6   0.052061311   0.39000   0.55317  -0.13350   0.25726
  19   45270.0    220.9   0.411285009   2.99094  -1.72075   0.14277   0.09788
  20   46330.1    215.8   0.095213758   0.67657  -0.08929   0.32664  -0.74960
  21   46654.3    214.3   0.306627255   2.16369   1.44266  -0.13826   0.25160
  22   48580.6    205.8   0.958777729   6.49727  -2.49419  -0.24890   0.46298
  23   47917.1    208.7   0.331981964   2.28086  -1.48968  -0.13744  -0.20697
  24   47908.9    208.7   0.075061698   0.51580  -0.70104   0.04108  -0.15049
  25   48508.3    206.2   0.093573614   0.63506   0.07159   0.09572  -0.78789
  26   46122.1    216.8   0.080940895   0.57774   0.70339  -0.06399  -0.28087
  27   47216.4    211.8   0.057173103   0.39863  -0.19092  -0.52548   0.29335
  28   47723.4    209.5   0.023087703   0.15927  -0.06903   0.16545  -0.35655
  29   47203.5    211.8   0.053257016   0.37143  -0.07965  -0.44738  -0.40613
  30   48336.3    206.9   0.187535212   1.27728   0.20433  -0.85297   0.71272

Dispersion correction           -0.064311275
FINAL SINGLE POINT ENERGY     -1306.389492489795

DIPOLE MOMENT
-------------
                                X             Y             Z
Electronic contribution:     11.18280      -0.72280      -0.35280
Nuclear contribution   :    -12.21503       1.60799       0.45789
                        -----------------------------------------
Total Dipole Moment    :     -1.03222       0.88519       0.10508
                        -----------------------------------------
Magnitude (a.u.)       :      1.36385
Magnitude (Debye)      :      3.46663

Rotational constants in cm-1:     0.010028     0.002980     0.002627
Rotational constants in MHz :   300.646435    89.343388    78.766984

                             ****ORCA TERMINATED NORMALLY****
TOTAL RUN TIME: 0 days 2 hours 15 minutes 40 seconds 855 msec
