                         Program Version 5.0.2 -  RELEASE  -
|  1> %maxcore 20000
|  2> %pal
|  3>  nprocs= 4
|  4> end
|  5> ! RI-B2GP-PLYP   def2-TZVP def2/J def2-TZVP/C RIJCOSX CPCM TightSCF
|  6> %TDDFT
|  7>    NROOTS   30
|  8>    dcorr 4
|  9>    TDA      FALSE
| 10> END
| 11>
| 12> %CPCM
| 13>    SMD          TRUE
| 14>    SMDsolvent   "ACETONITRILE"
| 15> END
| 16>
| 17>
| 18> * xyz 1 1
| 19> C                  -0.68199200    3.69212300    0.45109500
| 20> C                  -1.29772600    2.49705700    0.19805900
| 21> C                  -0.52563000    1.34919600   -0.05376000
| 22> C                   0.89842500    1.44364400   -0.07124300
| 23> C                   1.48730600    2.69973600    0.22582500
| 24> C                   0.71951400    3.79714800    0.47862600
| 25> C                   1.67020700    0.30031700   -0.34817000
| 26> C                   1.02104700   -0.92499200   -0.59013700
| 27> C                  -0.40290800   -0.99406800   -0.52766600
| 28> C                  -1.05201400   -2.22403800   -0.73464100
| 29> H                  -2.12827900   -2.27930000   -0.67436000
| 30> C                  -0.31925200   -3.34527600   -1.01281100
| 31> C                   1.08133000   -3.29123600   -1.11426000
| 32> C                   1.73155300   -2.10992900   -0.91270000
| 33> H                  -1.28875100    4.56712900    0.64432100
| 34> H                  -2.37503500    2.42932400    0.19516200
| 35> H                   2.56514000    2.77122800    0.25352500
| 36> H                   1.18453900    4.74692900    0.70456400
| 37> H                  -0.83245700   -4.28512000   -1.16891500
| 38> H                   1.63911800   -4.18408000   -1.36145400
| 39> H                   2.80673700   -2.06011500   -1.01067400
| 40> N                  -1.12546700    0.13962700   -0.27174000
| 41> C                   3.14569700    0.38732300   -0.39986500
| 42> C                   3.95586200   -0.31238100    0.51514400
| 43> C                   3.72463900    1.14686100   -1.41665300
| 44> C                   5.34093300   -0.22350900    0.35367000
| 45> C                   5.10131300    1.21534100   -1.54795700
| 46> C                   5.91389100    0.52892000   -0.65895800
| 47> H                   5.53564100    1.80205000   -2.34726300
| 48> H                   3.08512900    1.66910700   -2.11793500
| 49> C                  -2.56951200    0.05352900   -0.22339900
| 50> C                  -3.19860800   -0.18013700    0.98472300
| 51> C                  -3.30208600    0.20321600   -1.39253900
| 52> C                  -4.58111200   -0.26793400    1.03720400
| 53> H                  -2.60962600   -0.29450100    1.88601000
| 54> C                  -4.67740100    0.11745400   -1.34630600
| 55> H                  -2.79205500    0.38478400   -2.33002600
| 56> C                  -5.32696000   -0.11883200   -0.13164000
| 57> H                  -5.06612300   -0.45243400    1.98456100
| 58> H                  -5.26946900    0.23067900   -2.24474200
| 59> O                  -6.67156200   -0.18670200   -0.18612200
| 60> C                  -7.36963600   -0.42721000    1.02706200
| 61> H                  -8.42499100   -0.44121900    0.77034100
| 62> H                  -7.09260400   -1.38954200    1.46301400
| 63> H                  -7.18741700    0.36481100    1.75663300
| 64> H                   6.99099600    0.57925300   -0.75547000
| 65> B                   3.39754400   -1.14348300    1.72153900
| 66> O                   2.31006200   -0.79208700    2.47381000
| 67> O                   4.06471900   -2.28323200    2.05943000
| 68> H                   1.93286500    0.06571800    2.24961400
| 69> H                   3.68938000   -2.70780500    2.83994100
| 70> H                   5.98077500   -0.75465100    1.04846800
| 71> *
| 72>
| 73>
| 74>                          ****END OF INPUT****

CARTESIAN COORDINATES (ANGSTROEM)
---------------------------------
  C     -0.681992    3.692123    0.451095
  C     -1.297726    2.497057    0.198059
  C     -0.525630    1.349196   -0.053760
  C      0.898425    1.443644   -0.071243
  C      1.487306    2.699736    0.225825
  C      0.719514    3.797148    0.478626
  C      1.670207    0.300317   -0.348170
  C      1.021047   -0.924992   -0.590137
  C     -0.402908   -0.994068   -0.527666
  C     -1.052014   -2.224038   -0.734641
  H     -2.128279   -2.279300   -0.674360
  C     -0.319252   -3.345276   -1.012811
  C      1.081330   -3.291236   -1.114260
  C      1.731553   -2.109929   -0.912700
  H     -1.288751    4.567129    0.644321
  H     -2.375035    2.429324    0.195162
  H      2.565140    2.771228    0.253525
  H      1.184539    4.746929    0.704564
  H     -0.832457   -4.285120   -1.168915
  H      1.639118   -4.184080   -1.361454
  H      2.806737   -2.060115   -1.010674
  N     -1.125467    0.139627   -0.271740
  C      3.145697    0.387323   -0.399865
  C      3.955862   -0.312381    0.515144
  C      3.724639    1.146861   -1.416653
  C      5.340933   -0.223509    0.353670
  C      5.101313    1.215341   -1.547957
  C      5.913891    0.528920   -0.658958
  H      5.535641    1.802050   -2.347263
  H      3.085129    1.669107   -2.117935
  C     -2.569512    0.053529   -0.223399
  C     -3.198608   -0.180137    0.984723
  C     -3.302086    0.203216   -1.392539
  C     -4.581112   -0.267934    1.037204
  H     -2.609626   -0.294501    1.886010
  C     -4.677401    0.117454   -1.346306
  H     -2.792055    0.384784   -2.330026
  C     -5.326960   -0.118832   -0.131640
  H     -5.066123   -0.452434    1.984561
  H     -5.269469    0.230679   -2.244742
  O     -6.671562   -0.186702   -0.186122
  C     -7.369636   -0.427210    1.027062
  H     -8.424991   -0.441219    0.770341
  H     -7.092604   -1.389542    1.463014
  H     -7.187417    0.364811    1.756633
  H      6.990996    0.579253   -0.755470
  B      3.397544   -1.143483    1.721539
  O      2.310062   -0.792087    2.473810
  O      4.064719   -2.283232    2.059430
  H      1.932865    0.065718    2.249614
  H      3.689380   -2.707805    2.839941
  H      5.980775   -0.754651    1.048468

 Total Charge           Charge          ....    1
 Multiplicity           Mult            ....    1
 Number of Electrons    NEL             ....  212
 Basis Dimension        Dim             .... 1087

ORBITAL ENERGIES
----------------

  NO   OCC          E(Eh)            E(eV)
   0   2.0000     -19.975254      -543.5543
   1   2.0000     -19.956476      -543.0433
   2   2.0000     -19.951008      -542.8945
   3   2.0000     -15.129620      -411.6979
   4   2.0000     -10.872130      -295.8457
   5   2.0000     -10.871759      -295.8356
   6   2.0000     -10.857550      -295.4490
   7   2.0000     -10.853770      -295.3461
   8   2.0000     -10.826680      -294.6089
   9   2.0000     -10.823334      -294.5179
  10   2.0000     -10.823285      -294.5166
  11   2.0000     -10.817389      -294.3561
  12   2.0000     -10.809386      -294.1384
  13   2.0000     -10.807292      -294.0814
  14   2.0000     -10.806998      -294.0734
  15   2.0000     -10.803147      -293.9686
  16   2.0000     -10.803071      -293.9665
  17   2.0000     -10.795891      -293.7711
  18   2.0000     -10.795417      -293.7582
  19   2.0000     -10.795156      -293.7511
  20   2.0000     -10.794980      -293.7463
  21   2.0000     -10.791890      -293.6623
  22   2.0000     -10.791404      -293.6490
  23   2.0000     -10.790049      -293.6122
  24   2.0000     -10.786871      -293.5257
  25   2.0000     -10.786616      -293.5187
  26   2.0000     -10.784173      -293.4523
  27   2.0000     -10.783976      -293.4469
  28   2.0000     -10.782816      -293.4153
  29   2.0000     -10.778399      -293.2951
  30   2.0000      -7.278436      -198.0563
  31   2.0000      -1.274659       -34.6852
  32   2.0000      -1.242255       -33.8035
  33   2.0000      -1.218825       -33.1659
  34   2.0000      -1.204245       -32.7692
  35   2.0000      -1.079281       -29.3687
  36   2.0000      -1.062326       -28.9074
  37   2.0000      -1.045404       -28.4469
  38   2.0000      -1.032641       -28.0996
  39   2.0000      -1.000954       -27.2373
  40   2.0000      -0.950710       -25.8701
  41   2.0000      -0.936167       -25.4744
  42   2.0000      -0.933251       -25.3951
  43   2.0000      -0.924266       -25.1506
  44   2.0000      -0.916875       -24.9494
  45   2.0000      -0.914499       -24.8848
  46   2.0000      -0.898709       -24.4551
  47   2.0000      -0.848006       -23.0754
  48   2.0000      -0.828678       -22.5495
  49   2.0000      -0.802519       -21.8376
  50   2.0000      -0.789099       -21.4725
  51   2.0000      -0.761767       -20.7287
  52   2.0000      -0.751929       -20.4610
  53   2.0000      -0.747018       -20.3274
  54   2.0000      -0.741690       -20.1824
  55   2.0000      -0.714053       -19.4304
  56   2.0000      -0.694804       -18.9066
  57   2.0000      -0.693083       -18.8597
  58   2.0000      -0.685660       -18.6578
  59   2.0000      -0.668108       -18.1802
  60   2.0000      -0.660109       -17.9625
  61   2.0000      -0.642718       -17.4892
  62   2.0000      -0.630013       -17.1435
  63   2.0000      -0.619166       -16.8484
  64   2.0000      -0.611989       -16.6531
  65   2.0000      -0.596266       -16.2252
  66   2.0000      -0.592534       -16.1237
  67   2.0000      -0.589136       -16.0312
  68   2.0000      -0.579620       -15.7723
  69   2.0000      -0.576140       -15.6776
  70   2.0000      -0.561143       -15.2695
  71   2.0000      -0.559700       -15.2302
  72   2.0000      -0.556330       -15.1385
  73   2.0000      -0.552789       -15.0422
  74   2.0000      -0.551376       -15.0037
  75   2.0000      -0.546063       -14.8591
  76   2.0000      -0.538833       -14.6624
  77   2.0000      -0.535879       -14.5820
  78   2.0000      -0.523728       -14.2514
  79   2.0000      -0.512582       -13.9481
  80   2.0000      -0.505667       -13.7599
  81   2.0000      -0.503022       -13.6879
  82   2.0000      -0.492769       -13.4089
  83   2.0000      -0.489127       -13.3098
  84   2.0000      -0.487202       -13.2574
  85   2.0000      -0.478794       -13.0286
  86   2.0000      -0.475078       -12.9275
  87   2.0000      -0.468582       -12.7508
  88   2.0000      -0.465925       -12.6785
  89   2.0000      -0.460562       -12.5325
  90   2.0000      -0.458138       -12.4666
  91   2.0000      -0.452836       -12.3223
  92   2.0000      -0.439776       -11.9669
  93   2.0000      -0.434409       -11.8209
  94   2.0000      -0.431205       -11.7337
  95   2.0000      -0.424465       -11.5503
  96   2.0000      -0.418793       -11.3959
  97   2.0000      -0.417910       -11.3719
  98   2.0000      -0.390621       -10.6293
  99   2.0000      -0.344268        -9.3680
 100   2.0000      -0.324422        -8.8280
 101   2.0000      -0.321233        -8.7412
 102   2.0000      -0.319525        -8.6947
 103   2.0000      -0.315862        -8.5950
 104   2.0000      -0.294464        -8.0128
 105   2.0000      -0.286927        -7.8077
 106   0.0000      -0.060314        -1.6412
 107   0.0000       0.015082         0.4104
 108   0.0000       0.026302         0.7157
 109   0.0000       0.036754         1.0001
 110   0.0000       0.049935         1.3588

MULLIKEN ATOMIC CHARGES
-----------------------
   0 C :   -0.085601
   1 C :   -0.248604
   2 C :    0.218685
   3 C :    0.111139
   4 C :   -0.249373
   5 C :   -0.166966
   6 C :    0.125194
   7 C :    0.196240
   8 C :    0.165287
   9 C :   -0.236697
  10 H :    0.188865
  11 C :   -0.098226
  12 C :   -0.152491
  13 C :   -0.264973
  14 H :    0.180589
  15 H :    0.188476
  16 H :    0.193991
  17 H :    0.174035
  18 H :    0.180045
  19 H :    0.174512
  20 H :    0.193529
  21 N :    0.141921
  22 C :    0.051244
  23 C :   -0.133413
  24 C :   -0.328234
  25 C :   -0.192436
  26 C :   -0.113946
  27 C :   -0.164340
  28 H :    0.168775
  29 H :    0.172330
  30 C :    0.070592
  31 C :   -0.247478
  32 C :   -0.218498
  33 C :   -0.238141
  34 H :    0.173518
  35 C :   -0.205214
  36 H :    0.170200
  37 C :    0.387334
  38 H :    0.175702
  39 H :    0.157126
  40 O :   -0.342450
  41 C :   -0.193300
  42 H :    0.154799
  43 H :    0.139833
  44 H :    0.140315
  45 H :    0.166037
  46 B :    0.457328
  47 O :   -0.512720
  48 O :   -0.530149
  49 H :    0.372064
  50 H :    0.370871
  51 H :    0.162673
Sum of atomic charges:    1.0000000

LOEWDIN ATOMIC CHARGES
----------------------
   0 C :   -0.076272
   1 C :   -0.097875
   2 C :   -0.053474
   3 C :   -0.055320
   4 C :   -0.058331
   5 C :   -0.124370
   6 C :    0.057786
   7 C :   -0.052129
   8 C :   -0.053407
   9 C :   -0.096439
  10 H :    0.170314
  11 C :   -0.076756
  12 C :   -0.121594
  13 C :   -0.054172
  14 H :    0.163712
  15 H :    0.170032
  16 H :    0.170156
  17 H :    0.158962
  18 H :    0.163684
  19 H :    0.159430
  20 H :    0.174887
  21 N :    0.357910
  22 C :   -0.059712
  23 C :   -0.030805
  24 C :   -0.085212
  25 C :   -0.076329
  26 C :   -0.122470
  27 C :   -0.125252
  28 H :    0.155801
  29 H :    0.163561
  30 C :   -0.172386
  31 C :   -0.084984
  32 C :   -0.088081
  33 C :   -0.125178
  34 H :    0.165895
  35 C :   -0.109038
  36 H :    0.165616
  37 C :   -0.234347
  38 H :    0.161713
  39 H :    0.158117
  40 O :    0.207034
  41 C :   -0.293155
  42 H :    0.116011
  43 H :    0.112277
  44 H :    0.112345
  45 H :    0.154545
  46 B :   -0.831043
  47 O :    0.162916
  48 O :    0.166261
  49 H :    0.221996
  50 H :    0.225293
  51 H :    0.161880

  Mayer bond orders larger than 0.100000
B(  0-C ,  1-C ) :   1.5346 B(  0-C ,  5-C ) :   1.2168 B(  0-C , 14-H ) :   0.9695
B(  1-C ,  2-C ) :   1.2514 B(  1-C , 15-H ) :   0.9698 B(  2-C ,  3-C ) :   1.2409
B(  2-C , 21-N ) :   1.2350 B(  3-C ,  4-C ) :   1.1901 B(  3-C ,  6-C ) :   1.1650
B(  4-C ,  5-C ) :   1.5976 B(  4-C , 16-H ) :   0.9609 B(  5-C , 17-H ) :   0.9818
B(  6-C ,  7-C ) :   1.0961 B(  6-C , 22-C ) :   0.7185 B(  6-C , 47-O ) :   0.1171
B(  7-C ,  8-C ) :   1.2644 B(  7-C , 13-C ) :   1.1600 B(  7-C , 22-C ) :  -0.1021
B(  8-C ,  9-C ) :   1.2563 B(  8-C , 21-N ) :   1.2315 B(  9-C , 10-H ) :   0.9701
B(  9-C , 11-C ) :   1.5285 B( 11-C , 12-C ) :   1.2181 B( 11-C , 18-H ) :   0.9713
B( 12-C , 13-C ) :   1.5988 B( 12-C , 19-H ) :   0.9816 B( 13-C , 20-H ) :   0.9610
B( 21-N , 30-C ) :   0.6934 B( 22-C , 23-C ) :   1.2580 B( 22-C , 24-C ) :   1.3788
B( 23-C , 25-C ) :   1.4516 B( 23-C , 46-B ) :   0.9715 B( 24-C , 26-C ) :   1.4357
B( 24-C , 29-H ) :   0.9877 B( 25-C , 27-C ) :   1.3868 B( 25-C , 51-H ) :   0.9797
B( 26-C , 27-C ) :   1.3875 B( 26-C , 28-H ) :   0.9813 B( 27-C , 45-H ) :   0.9795
B( 30-C , 31-C ) :   1.5113 B( 30-C , 32-C ) :   1.4590 B( 31-C , 33-C ) :   1.3784
B( 31-C , 34-H ) :   0.9735 B( 32-C , 35-C ) :   1.4579 B( 32-C , 36-H ) :   0.9901
B( 33-C , 37-C ) :   1.3173 B( 33-C , 38-H ) :   0.9723 B( 35-C , 37-C ) :   1.3236
B( 35-C , 39-H ) :   0.9947 B( 37-C , 40-O ) :   1.1173 B( 40-O , 41-C ) :   0.8798
B( 41-C , 42-H ) :   0.9742 B( 41-C , 43-H ) :   0.9728 B( 41-C , 44-H ) :   0.9728
B( 46-B , 47-O ) :   1.2597 B( 46-B , 48-O ) :   1.3118 B( 47-O , 49-H ) :   0.8513
B( 48-O , 50-H ) :   0.8473

MP2 TOTAL ENERGY:    -1307.818702623 Eh

-----------------------------------------------------------------------------
         ABSORPTION SPECTRUM VIA TRANSITION ELECTRIC DIPOLE MOMENTS
-----------------------------------------------------------------------------
State   Energy    Wavelength  fosc         T2        TX        TY        TZ
        (cm-1)      (nm)                 (au**2)    (au)      (au)      (au)
-----------------------------------------------------------------------------
   1   23754.3    421.0   0.236020366   3.27102   1.80485   0.11109  -0.03454
   2   29683.5    336.9   0.343678441   3.81164  -0.08937   1.90809   0.40357
   3   25935.4    385.6   0.001276012   0.01620  -0.07499   0.10188   0.01391
   4   30180.7    331.3   0.067399893   0.73520  -0.85720  -0.01384   0.01494
   5   31419.7    318.3   0.029488067   0.30897  -0.10707   0.54247   0.05688
   6   32211.9    310.4   0.027152979   0.27751   0.10594  -0.36502  -0.36475
   7   34890.2    286.6   0.120663373   1.13854  -0.07292   1.03704   0.24035
   8   39219.6    255.0   0.059322414   0.49796   0.07015  -0.33451  -0.61736
   9   39246.6    254.8   0.975998224   8.18696   0.28521  -2.79989  -0.51595
  10   40453.8    247.2   0.164086428   1.33533  -0.35654  -1.06996  -0.25180
  11   45859.2    218.1   0.031529631   0.22634  -0.16540   0.31754  -0.31329
  12   46937.6    213.0   0.151835425   1.06495  -0.96158  -0.18088   0.32801
  13   45895.0    217.9   0.098524808   0.70673   0.83036   0.09773  -0.08767
  14   44116.8    226.7   0.031960187   0.23850   0.15806   0.45103  -0.10044
  15   44082.6    226.8   0.037449855   0.27968   0.41318   0.31383  -0.10235
  16   46607.4    214.6   0.002004176   0.01416   0.10092   0.02707  -0.05692
  17   43148.9    231.8   0.103240372   0.78769  -0.83746   0.13890  -0.25897
  18   46073.0    217.0   0.506093292   3.61626   1.89907  -0.09892   0.00432
  19   45815.4    218.3   0.135662480   0.97482   0.82996   0.21665  -0.48892
  20   49905.2    200.4   0.338103135   2.23038   0.60886  -0.75442   1.13601
  21   50678.9    197.3   1.680404055  10.91596   3.26315   0.34994  -0.38123
  22   50847.6    196.7   0.054263734   0.35133   0.53936  -0.18751   0.15893
  23   49029.0    204.0   0.040922190   0.27478  -0.17681  -0.24322  -0.42937
  24   49059.4    203.8   0.008762312   0.05880  -0.19715  -0.01480   0.14040
  25   51879.9    192.8   0.377823414   2.39754  -0.10435  -0.18542   1.53371
  26   49749.7    201.0   0.010508070   0.06954  -0.19635   0.12257  -0.12632
  27   49618.1    201.5   0.132952351   0.88213  -0.18446  -0.88669   0.24876
  28   50152.8    199.4   0.069794654   0.45814  -0.06464  -0.65498   0.15800
  29   50414.3    198.4   0.025081053   0.16378  -0.01232   0.32218  -0.24460
  30   49996.2    200.0   0.008531509   0.05618   0.16456  -0.01523   0.16990

FINAL SINGLE POINT ENERGY     -1305.628860782655

DIPOLE MOMENT
-------------
                                X             Y             Z
Electronic contribution:     11.25019      -0.70802      -0.35617
Nuclear contribution   :    -12.21503       1.60799       0.45789
                        -----------------------------------------
Total Dipole Moment    :     -0.96484       0.89997       0.10172
                        -----------------------------------------
Magnitude (a.u.)       :      1.32333
Magnitude (Debye)      :      3.36364

Rotational constants in cm-1:     0.010028     0.002980     0.002627
Rotational constants in MHz :   300.646435    89.343388    78.766984

                             ****ORCA TERMINATED NORMALLY****
TOTAL RUN TIME: 0 days 12 hours 59 minutes 26 seconds 851 msec
