                         Program Version 5.0.2 -  RELEASE  -
|  1> %maxcore 20000
|  2> %pal
|  3>  nprocs= 4
|  4> end
|  5> ! RI-wPBEPP86   def2-TZVP def2/J def2-TZVP/C RIJCOSX CPCM TightSCF
|  6> %TDDFT
|  7>    NROOTS   30
|  8>    dcorr 1
|  9>    TDA      FALSE
| 10> END
| 11>
| 12> %CPCM
| 13>    SMD          TRUE
| 14>    SMDsolvent   "ACETONITRILE"
| 15> END
| 16>
| 17>
| 18> * xyz 1 1
| 19> C                  -0.68199200    3.69212300    0.45109500
| 20> C                  -1.29772600    2.49705700    0.19805900
| 21> C                  -0.52563000    1.34919600   -0.05376000
| 22> C                   0.89842500    1.44364400   -0.07124300
| 23> C                   1.48730600    2.69973600    0.22582500
| 24> C                   0.71951400    3.79714800    0.47862600
| 25> C                   1.67020700    0.30031700   -0.34817000
| 26> C                   1.02104700   -0.92499200   -0.59013700
| 27> C                  -0.40290800   -0.99406800   -0.52766600
| 28> C                  -1.05201400   -2.22403800   -0.73464100
| 29> H                  -2.12827900   -2.27930000   -0.67436000
| 30> C                  -0.31925200   -3.34527600   -1.01281100
| 31> C                   1.08133000   -3.29123600   -1.11426000
| 32> C                   1.73155300   -2.10992900   -0.91270000
| 33> H                  -1.28875100    4.56712900    0.64432100
| 34> H                  -2.37503500    2.42932400    0.19516200
| 35> H                   2.56514000    2.77122800    0.25352500
| 36> H                   1.18453900    4.74692900    0.70456400
| 37> H                  -0.83245700   -4.28512000   -1.16891500
| 38> H                   1.63911800   -4.18408000   -1.36145400
| 39> H                   2.80673700   -2.06011500   -1.01067400
| 40> N                  -1.12546700    0.13962700   -0.27174000
| 41> C                   3.14569700    0.38732300   -0.39986500
| 42> C                   3.95586200   -0.31238100    0.51514400
| 43> C                   3.72463900    1.14686100   -1.41665300
| 44> C                   5.34093300   -0.22350900    0.35367000
| 45> C                   5.10131300    1.21534100   -1.54795700
| 46> C                   5.91389100    0.52892000   -0.65895800
| 47> H                   5.53564100    1.80205000   -2.34726300
| 48> H                   3.08512900    1.66910700   -2.11793500
| 49> C                  -2.56951200    0.05352900   -0.22339900
| 50> C                  -3.19860800   -0.18013700    0.98472300
| 51> C                  -3.30208600    0.20321600   -1.39253900
| 52> C                  -4.58111200   -0.26793400    1.03720400
| 53> H                  -2.60962600   -0.29450100    1.88601000
| 54> C                  -4.67740100    0.11745400   -1.34630600
| 55> H                  -2.79205500    0.38478400   -2.33002600
| 56> C                  -5.32696000   -0.11883200   -0.13164000
| 57> H                  -5.06612300   -0.45243400    1.98456100
| 58> H                  -5.26946900    0.23067900   -2.24474200
| 59> O                  -6.67156200   -0.18670200   -0.18612200
| 60> C                  -7.36963600   -0.42721000    1.02706200
| 61> H                  -8.42499100   -0.44121900    0.77034100
| 62> H                  -7.09260400   -1.38954200    1.46301400
| 63> H                  -7.18741700    0.36481100    1.75663300
| 64> H                   6.99099600    0.57925300   -0.75547000
| 65> B                   3.39754400   -1.14348300    1.72153900
| 66> O                   2.31006200   -0.79208700    2.47381000
| 67> O                   4.06471900   -2.28323200    2.05943000
| 68> H                   1.93286500    0.06571800    2.24961400
| 69> H                   3.68938000   -2.70780500    2.83994100
| 70> H                   5.98077500   -0.75465100    1.04846800
| 71> *
| 72>
| 73>
| 74>                          ****END OF INPUT****

CARTESIAN COORDINATES (ANGSTROEM)
---------------------------------
  C     -0.681992    3.692123    0.451095
  C     -1.297726    2.497057    0.198059
  C     -0.525630    1.349196   -0.053760
  C      0.898425    1.443644   -0.071243
  C      1.487306    2.699736    0.225825
  C      0.719514    3.797148    0.478626
  C      1.670207    0.300317   -0.348170
  C      1.021047   -0.924992   -0.590137
  C     -0.402908   -0.994068   -0.527666
  C     -1.052014   -2.224038   -0.734641
  H     -2.128279   -2.279300   -0.674360
  C     -0.319252   -3.345276   -1.012811
  C      1.081330   -3.291236   -1.114260
  C      1.731553   -2.109929   -0.912700
  H     -1.288751    4.567129    0.644321
  H     -2.375035    2.429324    0.195162
  H      2.565140    2.771228    0.253525
  H      1.184539    4.746929    0.704564
  H     -0.832457   -4.285120   -1.168915
  H      1.639118   -4.184080   -1.361454
  H      2.806737   -2.060115   -1.010674
  N     -1.125467    0.139627   -0.271740
  C      3.145697    0.387323   -0.399865
  C      3.955862   -0.312381    0.515144
  C      3.724639    1.146861   -1.416653
  C      5.340933   -0.223509    0.353670
  C      5.101313    1.215341   -1.547957
  C      5.913891    0.528920   -0.658958
  H      5.535641    1.802050   -2.347263
  H      3.085129    1.669107   -2.117935
  C     -2.569512    0.053529   -0.223399
  C     -3.198608   -0.180137    0.984723
  C     -3.302086    0.203216   -1.392539
  C     -4.581112   -0.267934    1.037204
  H     -2.609626   -0.294501    1.886010
  C     -4.677401    0.117454   -1.346306
  H     -2.792055    0.384784   -2.330026
  C     -5.326960   -0.118832   -0.131640
  H     -5.066123   -0.452434    1.984561
  H     -5.269469    0.230679   -2.244742
  O     -6.671562   -0.186702   -0.186122
  C     -7.369636   -0.427210    1.027062
  H     -8.424991   -0.441219    0.770341
  H     -7.092604   -1.389542    1.463014
  H     -7.187417    0.364811    1.756633
  H      6.990996    0.579253   -0.755470
  B      3.397544   -1.143483    1.721539
  O      2.310062   -0.792087    2.473810
  O      4.064719   -2.283232    2.059430
  H      1.932865    0.065718    2.249614
  H      3.689380   -2.707805    2.839941
  H      5.980775   -0.754651    1.048468

 Total Charge           Charge          ....    1
 Multiplicity           Mult            ....    1
 Number of Electrons    NEL             ....  212
 Basis Dimension        Dim             .... 1087

ORBITAL ENERGIES
----------------

  NO   OCC          E(Eh)            E(eV)
   0   2.0000     -20.094915      -546.8104
   1   2.0000     -20.074241      -546.2479
   2   2.0000     -20.068486      -546.0913
   3   2.0000     -15.239100      -414.6770
   4   2.0000     -10.966068      -298.4019
   5   2.0000     -10.965656      -298.3907
   6   2.0000     -10.953328      -298.0552
   7   2.0000     -10.945844      -297.8516
   8   2.0000     -10.919381      -297.1315
   9   2.0000     -10.916011      -297.0398
  10   2.0000     -10.915967      -297.0386
  11   2.0000     -10.904179      -296.7178
  12   2.0000     -10.902972      -296.6849
  13   2.0000     -10.899315      -296.5854
  14   2.0000     -10.898981      -296.5764
  15   2.0000     -10.895384      -296.4785
  16   2.0000     -10.895352      -296.4776
  17   2.0000     -10.887821      -296.2727
  18   2.0000     -10.886783      -296.2444
  19   2.0000     -10.886640      -296.2405
  20   2.0000     -10.886344      -296.2325
  21   2.0000     -10.882695      -296.1332
  22   2.0000     -10.882147      -296.1183
  23   2.0000     -10.881959      -296.1132
  24   2.0000     -10.878390      -296.0160
  25   2.0000     -10.878127      -296.0089
  26   2.0000     -10.875417      -295.9351
  27   2.0000     -10.875169      -295.9284
  28   2.0000     -10.873820      -295.8917
  29   2.0000     -10.871852      -295.8381
  30   2.0000      -7.352206      -200.0637
  31   2.0000      -1.341586       -36.5064
  32   2.0000      -1.307358       -35.5750
  33   2.0000      -1.286464       -35.0065
  34   2.0000      -1.268311       -34.5125
  35   2.0000      -1.145047       -31.1583
  36   2.0000      -1.127383       -30.6777
  37   2.0000      -1.110280       -30.2122
  38   2.0000      -1.096949       -29.8495
  39   2.0000      -1.064615       -28.9696
  40   2.0000      -1.012713       -27.5573
  41   2.0000      -0.997967       -27.1561
  42   2.0000      -0.994782       -27.0694
  43   2.0000      -0.985504       -26.8169
  44   2.0000      -0.977951       -26.6114
  45   2.0000      -0.975815       -26.5533
  46   2.0000      -0.959065       -26.0975
  47   2.0000      -0.906558       -24.6687
  48   2.0000      -0.887228       -24.1427
  49   2.0000      -0.860582       -23.4176
  50   2.0000      -0.847065       -23.0498
  51   2.0000      -0.818408       -22.2700
  52   2.0000      -0.808553       -22.0018
  53   2.0000      -0.803160       -21.8551
  54   2.0000      -0.797901       -21.7120
  55   2.0000      -0.769511       -20.9395
  56   2.0000      -0.749735       -20.4013
  57   2.0000      -0.748417       -20.3655
  58   2.0000      -0.739565       -20.1246
  59   2.0000      -0.722562       -19.6619
  60   2.0000      -0.713477       -19.4147
  61   2.0000      -0.695796       -18.9336
  62   2.0000      -0.682830       -18.5807
  63   2.0000      -0.673064       -18.3150
  64   2.0000      -0.663459       -18.0536
  65   2.0000      -0.647843       -17.6287
  66   2.0000      -0.644283       -17.5318
  67   2.0000      -0.640727       -17.4351
  68   2.0000      -0.632442       -17.2096
  69   2.0000      -0.628721       -17.1084
  70   2.0000      -0.611472       -16.6390
  71   2.0000      -0.610496       -16.6124
  72   2.0000      -0.606709       -16.5094
  73   2.0000      -0.604129       -16.4392
  74   2.0000      -0.600466       -16.3395
  75   2.0000      -0.596108       -16.2209
  76   2.0000      -0.589423       -16.0390
  77   2.0000      -0.584625       -15.9085
  78   2.0000      -0.572603       -15.5813
  79   2.0000      -0.562034       -15.2937
  80   2.0000      -0.557371       -15.1668
  81   2.0000      -0.551032       -14.9943
  82   2.0000      -0.539765       -14.6877
  83   2.0000      -0.538539       -14.6544
  84   2.0000      -0.537290       -14.6204
  85   2.0000      -0.529245       -14.4015
  86   2.0000      -0.527189       -14.3455
  87   2.0000      -0.517616       -14.0851
  88   2.0000      -0.512896       -13.9566
  89   2.0000      -0.506824       -13.7914
  90   2.0000      -0.504367       -13.7245
  91   2.0000      -0.501328       -13.6418
  92   2.0000      -0.489058       -13.3079
  93   2.0000      -0.483073       -13.1451
  94   2.0000      -0.477950       -13.0057
  95   2.0000      -0.470706       -12.8086
  96   2.0000      -0.467048       -12.7090
  97   2.0000      -0.464314       -12.6346
  98   2.0000      -0.438063       -11.9203
  99   2.0000      -0.390169       -10.6170
 100   2.0000      -0.369008       -10.0412
 101   2.0000      -0.364902        -9.9295
 102   2.0000      -0.364127        -9.9084
 103   2.0000      -0.359036        -9.7699
 104   2.0000      -0.338389        -9.2080
 105   2.0000      -0.328882        -8.9493
 106   0.0000      -0.045997        -1.2517
 107   0.0000       0.031410         0.8547
 108   0.0000       0.043859         1.1935
 109   0.0000       0.054805         1.4913
 110   0.0000       0.068962         1.8766

MULLIKEN ATOMIC CHARGES
-----------------------
   0 C :   -0.097802
   1 C :   -0.283183
   2 C :    0.246062
   3 C :    0.101442
   4 C :   -0.257529
   5 C :   -0.190712
   6 C :    0.064545
   7 C :    0.198340
   8 C :    0.201999
   9 C :   -0.272909
  10 H :    0.215815
  11 C :   -0.110686
  12 C :   -0.173086
  13 C :   -0.287715
  14 H :    0.201848
  15 H :    0.215278
  16 H :    0.222717
  17 H :    0.196295
  18 H :    0.201266
  19 H :    0.196966
  20 H :    0.224048
  21 N :    0.168603
  22 C :   -0.000040
  23 C :   -0.106952
  24 C :   -0.335995
  25 C :   -0.216287
  26 C :   -0.133702
  27 C :   -0.186601
  28 H :    0.192371
  29 H :    0.201841
  30 C :   -0.052411
  31 C :   -0.251087
  32 C :   -0.216977
  33 C :   -0.255815
  34 H :    0.198310
  35 C :   -0.228824
  36 H :    0.195521
  37 C :    0.388093
  38 H :    0.205543
  39 H :    0.184752
  40 O :   -0.320510
  41 C :   -0.270403
  42 H :    0.175626
  43 H :    0.161487
  44 H :    0.161904
  45 H :    0.189620
  46 B :    0.416039
  47 O :   -0.506771
  48 O :   -0.527947
  49 H :    0.385714
  50 H :    0.384749
  51 H :    0.187150
Sum of atomic charges:    1.0000000

LOEWDIN ATOMIC CHARGES
----------------------
   0 C :   -0.077585
   1 C :   -0.103396
   2 C :   -0.055833
   3 C :   -0.060656
   4 C :   -0.061632
   5 C :   -0.129105
   6 C :    0.056864
   7 C :   -0.057019
   8 C :   -0.055849
   9 C :   -0.101850
  10 H :    0.175526
  11 C :   -0.078151
  12 C :   -0.126168
  13 C :   -0.057707
  14 H :    0.169829
  15 H :    0.175258
  16 H :    0.175597
  17 H :    0.164864
  18 H :    0.169794
  19 H :    0.165358
  20 H :    0.180335
  21 N :    0.358422
  22 C :   -0.066096
  23 C :   -0.033887
  24 C :   -0.089340
  25 C :   -0.079387
  26 C :   -0.125710
  27 C :   -0.128598
  28 H :    0.161904
  29 H :    0.169952
  30 C :   -0.182760
  31 C :   -0.088543
  32 C :   -0.091855
  33 C :   -0.129374
  34 H :    0.172468
  35 C :   -0.112298
  36 H :    0.172138
  37 C :   -0.239612
  38 H :    0.167301
  39 H :    0.164436
  40 O :    0.209349
  41 C :   -0.306378
  42 H :    0.121065
  43 H :    0.117174
  44 H :    0.117228
  45 H :    0.160629
  46 B :   -0.841879
  47 O :    0.165111
  48 O :    0.167708
  49 H :    0.225071
  50 H :    0.229468
  51 H :    0.167815

  Mayer bond orders larger than 0.100000
B(  0-C ,  1-C ) :   1.5423 B(  0-C ,  5-C ) :   1.2093 B(  0-C , 14-H ) :   0.9628
B(  1-C ,  2-C ) :   1.2304 B(  1-C , 15-H ) :   0.9604 B(  2-C ,  3-C ) :   1.2546
B(  2-C , 21-N ) :   1.2394 B(  3-C ,  4-C ) :   1.1830 B(  3-C ,  6-C ) :   1.1928
B(  4-C ,  5-C ) :   1.6020 B(  4-C , 16-H ) :   0.9438 B(  5-C , 17-H ) :   0.9745
B(  6-C ,  7-C ) :   1.1179 B(  6-C , 22-C ) :   0.7406 B(  6-C , 47-O ) :   0.1337
B(  7-C ,  8-C ) :   1.2743 B(  7-C , 13-C ) :   1.1389 B(  7-C , 22-C ) :  -0.1032
B(  8-C ,  9-C ) :   1.2336 B(  8-C , 21-N ) :   1.2355 B(  9-C , 10-H ) :   0.9604
B(  9-C , 11-C ) :   1.5362 B( 11-C , 12-C ) :   1.2104 B( 11-C , 18-H ) :   0.9648
B( 12-C , 13-C ) :   1.6046 B( 12-C , 19-H ) :   0.9741 B( 13-C , 20-H ) :   0.9489
B( 21-N , 30-C ) :   0.7222 B( 22-C , 23-C ) :   1.2444 B( 22-C , 24-C ) :   1.4060
B( 23-C , 25-C ) :   1.4540 B( 23-C , 46-B ) :   0.9846 B( 24-C , 26-C ) :   1.4314
B( 24-C , 29-H ) :   0.9711 B( 25-C , 27-C ) :   1.3894 B( 25-C , 51-H ) :   0.9700
B( 26-C , 27-C ) :   1.3850 B( 26-C , 28-H ) :   0.9748 B( 27-C , 45-H ) :   0.9738
B( 30-C , 31-C ) :   1.5313 B( 30-C , 32-C ) :   1.4743 B( 31-C , 33-C ) :   1.3978
B( 31-C , 34-H ) :   0.9635 B( 32-C , 35-C ) :   1.4592 B( 32-C , 36-H ) :   0.9797
B( 33-C , 37-C ) :   1.3155 B( 33-C , 38-H ) :   0.9538 B( 35-C , 37-C ) :   1.3201
B( 35-C , 39-H ) :   0.9840 B( 37-C , 40-O ) :   1.1243 B( 40-O , 41-C ) :   0.8870
B( 41-C , 42-H ) :   0.9680 B( 41-C , 43-H ) :   0.9678 B( 41-C , 44-H ) :   0.9677
B( 46-B , 47-O ) :   1.2716 B( 46-B , 48-O ) :   1.3234 B( 47-O , 49-H ) :   0.8398
B( 48-O , 50-H ) :   0.8358

MP2 TOTAL ENERGY:    -1308.120207433 Eh

-----------------------------------------------------------------------------
         ABSORPTION SPECTRUM VIA TRANSITION ELECTRIC DIPOLE MOMENTS
-----------------------------------------------------------------------------
State   Energy    Wavelength  fosc         T2        TX        TY        TZ
        (cm-1)      (nm)                 (au**2)    (au)      (au)      (au)
-----------------------------------------------------------------------------
   1   24445.2    409.1   0.256831481   3.45883  -1.85579  -0.11686   0.03464
   2   29938.7    334.0   0.352659418   3.87792  -0.10215   1.92305   0.41155
   3   32904.5    303.9   0.072425374   0.72462  -0.54969  -0.63794  -0.12450
   4   32734.6    305.5   0.086421163   0.86914  -0.73821   0.55841   0.11119
   5   29017.9    344.6   0.003958722   0.04491   0.18499  -0.10015  -0.02571
   6   34524.5    289.6   0.030475578   0.29060   0.16513  -0.28927  -0.42386
   7   39557.6    252.8   0.034317254   0.28560  -0.03728  -0.06685   0.52891
   8   40273.1    248.3   1.150782989   9.40705   0.22976  -2.99625  -0.61378
   9   40739.7    245.5   0.072584817   0.58655   0.32739   0.63040   0.28630
  10   47250.7    211.6   0.031207586   0.21743   0.00471  -0.38175   0.26773
  11   46054.9    217.1   0.141138072   1.00889  -0.83007  -0.51261   0.23895
  12   40040.5    249.7   0.083616928   0.68750  -0.44138   0.65892   0.24187
  13   47381.6    211.1   0.120838451   0.83960   0.90930   0.10709  -0.03605
  14   44842.2    223.0   0.038179094   0.28029   0.52322  -0.06894   0.04222
  15   46001.8    217.4   0.065408993   0.46810   0.49331   0.39437  -0.26309
  16   48036.7    208.2   0.002785660   0.01909   0.12403   0.00667  -0.06053
  17   46234.8    216.3   0.070439445   0.50156  -0.44664   0.26975  -0.47886
  18   49651.6    201.4   1.003150562   6.65133  -2.56790  -0.11135   0.21168
  19   51441.4    194.4   0.400071840   2.56036   0.35013  -0.94432   1.24339
  20   52096.7    192.0   1.483500953   9.37460   3.04815   0.23767  -0.16402
  21   51197.4    195.3   0.025594839   0.16458   0.04353  -0.20397   0.34797
  22   49244.1    203.1   0.228253419   1.52594  -0.32981  -0.19994   1.17354
  23   51615.3    193.7   0.113348303   0.72296  -0.05766  -0.70496  -0.47188
  24   50484.0    198.1   0.238637041   1.55618  -0.04518   0.40311  -1.17968
  25   50691.8    197.3   0.000859598   0.00558  -0.03445  -0.03111   0.05855
  26   51795.1    193.1   0.018646305   0.11852   0.19775   0.17425  -0.22146
  27   52270.2    191.3   0.001577367   0.00993  -0.05161   0.07800   0.03446
  28   52029.5    192.2   0.000608491   0.00385  -0.01740   0.00276  -0.05950
  29   51583.8    193.9   0.034729450   0.22165   0.07493  -0.44649   0.12915
  30   52696.3    189.8   0.040720340   0.25439   0.11824  -0.48564  -0.06754

FINAL SINGLE POINT ENERGY     -1305.406366566516

DIPOLE MOMENT
-------------
                                X             Y             Z
Electronic contribution:     11.26717      -0.70057      -0.35661
Nuclear contribution   :    -12.21503       1.60799       0.45789
                        -----------------------------------------
Total Dipole Moment    :     -0.94785       0.90741       0.10127
                        -----------------------------------------
Magnitude (a.u.)       :      1.31609
Magnitude (Debye)      :      3.34523

Rotational constants in cm-1:     0.010028     0.002980     0.002627
Rotational constants in MHz :   300.646435    89.343388    78.766984

                             ****ORCA TERMINATED NORMALLY****
TOTAL RUN TIME: 0 days 14 hours 4 minutes 59 seconds 508 msec
