                         Program Version 5.0.2 -  RELEASE  -
|  1> %maxcore 3200
|  2> %pal
|  3>  nprocs= 8
|  4> end
|  5> ! RI-wB2PLYP def2-TZVP def2/J def2-TZVP/C RIJCOSX CPCM TightSCF
|  6> %TDDFT DCORR 1
|  7>    NROOTS   30
|  8>
|  9>    TDA      FALSE
| 10> END
| 11>
| 12> %CPCM
| 13>    SMD          TRUE
| 14>    SMDsolvent   "ACETONITRILE"
| 15> END
| 16>
| 17>
| 18> * xyz 1 1
| 19> C                  -0.68199200    3.69212300    0.45109500
| 20> C                  -1.29772600    2.49705700    0.19805900
| 21> C                  -0.52563000    1.34919600   -0.05376000
| 22> C                   0.89842500    1.44364400   -0.07124300
| 23> C                   1.48730600    2.69973600    0.22582500
| 24> C                   0.71951400    3.79714800    0.47862600
| 25> C                   1.67020700    0.30031700   -0.34817000
| 26> C                   1.02104700   -0.92499200   -0.59013700
| 27> C                  -0.40290800   -0.99406800   -0.52766600
| 28> C                  -1.05201400   -2.22403800   -0.73464100
| 29> H                  -2.12827900   -2.27930000   -0.67436000
| 30> C                  -0.31925200   -3.34527600   -1.01281100
| 31> C                   1.08133000   -3.29123600   -1.11426000
| 32> C                   1.73155300   -2.10992900   -0.91270000
| 33> H                  -1.28875100    4.56712900    0.64432100
| 34> H                  -2.37503500    2.42932400    0.19516200
| 35> H                   2.56514000    2.77122800    0.25352500
| 36> H                   1.18453900    4.74692900    0.70456400
| 37> H                  -0.83245700   -4.28512000   -1.16891500
| 38> H                   1.63911800   -4.18408000   -1.36145400
| 39> H                   2.80673700   -2.06011500   -1.01067400
| 40> N                  -1.12546700    0.13962700   -0.27174000
| 41> C                   3.14569700    0.38732300   -0.39986500
| 42> C                   3.95586200   -0.31238100    0.51514400
| 43> C                   3.72463900    1.14686100   -1.41665300
| 44> C                   5.34093300   -0.22350900    0.35367000
| 45> C                   5.10131300    1.21534100   -1.54795700
| 46> C                   5.91389100    0.52892000   -0.65895800
| 47> H                   5.53564100    1.80205000   -2.34726300
| 48> H                   3.08512900    1.66910700   -2.11793500
| 49> C                  -2.56951200    0.05352900   -0.22339900
| 50> C                  -3.19860800   -0.18013700    0.98472300
| 51> C                  -3.30208600    0.20321600   -1.39253900
| 52> C                  -4.58111200   -0.26793400    1.03720400
| 53> H                  -2.60962600   -0.29450100    1.88601000
| 54> C                  -4.67740100    0.11745400   -1.34630600
| 55> H                  -2.79205500    0.38478400   -2.33002600
| 56> C                  -5.32696000   -0.11883200   -0.13164000
| 57> H                  -5.06612300   -0.45243400    1.98456100
| 58> H                  -5.26946900    0.23067900   -2.24474200
| 59> O                  -6.67156200   -0.18670200   -0.18612200
| 60> C                  -7.36963600   -0.42721000    1.02706200
| 61> H                  -8.42499100   -0.44121900    0.77034100
| 62> H                  -7.09260400   -1.38954200    1.46301400
| 63> H                  -7.18741700    0.36481100    1.75663300
| 64> H                   6.99099600    0.57925300   -0.75547000
| 65> B                   3.39754400   -1.14348300    1.72153900
| 66> O                   2.31006200   -0.79208700    2.47381000
| 67> O                   4.06471900   -2.28323200    2.05943000
| 68> H                   1.93286500    0.06571800    2.24961400
| 69> H                   3.68938000   -2.70780500    2.83994100
| 70> H                   5.98077500   -0.75465100    1.04846800
| 71> *
| 72>
| 73>
| 74>                          ****END OF INPUT****

CARTESIAN COORDINATES (ANGSTROEM)
---------------------------------
  C     -0.681992    3.692123    0.451095
  C     -1.297726    2.497057    0.198059
  C     -0.525630    1.349196   -0.053760
  C      0.898425    1.443644   -0.071243
  C      1.487306    2.699736    0.225825
  C      0.719514    3.797148    0.478626
  C      1.670207    0.300317   -0.348170
  C      1.021047   -0.924992   -0.590137
  C     -0.402908   -0.994068   -0.527666
  C     -1.052014   -2.224038   -0.734641
  H     -2.128279   -2.279300   -0.674360
  C     -0.319252   -3.345276   -1.012811
  C      1.081330   -3.291236   -1.114260
  C      1.731553   -2.109929   -0.912700
  H     -1.288751    4.567129    0.644321
  H     -2.375035    2.429324    0.195162
  H      2.565140    2.771228    0.253525
  H      1.184539    4.746929    0.704564
  H     -0.832457   -4.285120   -1.168915
  H      1.639118   -4.184080   -1.361454
  H      2.806737   -2.060115   -1.010674
  N     -1.125467    0.139627   -0.271740
  C      3.145697    0.387323   -0.399865
  C      3.955862   -0.312381    0.515144
  C      3.724639    1.146861   -1.416653
  C      5.340933   -0.223509    0.353670
  C      5.101313    1.215341   -1.547957
  C      5.913891    0.528920   -0.658958
  H      5.535641    1.802050   -2.347263
  H      3.085129    1.669107   -2.117935
  C     -2.569512    0.053529   -0.223399
  C     -3.198608   -0.180137    0.984723
  C     -3.302086    0.203216   -1.392539
  C     -4.581112   -0.267934    1.037204
  H     -2.609626   -0.294501    1.886010
  C     -4.677401    0.117454   -1.346306
  H     -2.792055    0.384784   -2.330026
  C     -5.326960   -0.118832   -0.131640
  H     -5.066123   -0.452434    1.984561
  H     -5.269469    0.230679   -2.244742
  O     -6.671562   -0.186702   -0.186122
  C     -7.369636   -0.427210    1.027062
  H     -8.424991   -0.441219    0.770341
  H     -7.092604   -1.389542    1.463014
  H     -7.187417    0.364811    1.756633
  H      6.990996    0.579253   -0.755470
  B      3.397544   -1.143483    1.721539
  O      2.310062   -0.792087    2.473810
  O      4.064719   -2.283232    2.059430
  H      1.932865    0.065718    2.249614
  H      3.689380   -2.707805    2.839941
  H      5.980775   -0.754651    1.048468

 Total Charge           Charge          ....    1
 Multiplicity           Mult            ....    1
 Number of Electrons    NEL             ....  212
 Basis Dimension        Dim             .... 1087

ORBITAL ENERGIES
----------------

  NO   OCC          E(Eh)            E(eV)
   0   2.0000     -19.832775      -539.6772
   1   2.0000     -19.814800      -539.1881
   2   2.0000     -19.809111      -539.0333
   3   2.0000     -15.014476      -408.5647
   4   2.0000     -10.784592      -293.4637
   5   2.0000     -10.784170      -293.4522
   6   2.0000     -10.771065      -293.0956
   7   2.0000     -10.765544      -292.9454
   8   2.0000     -10.738412      -292.2070
   9   2.0000     -10.735130      -292.1177
  10   2.0000     -10.735037      -292.1152
  11   2.0000     -10.727094      -291.8991
  12   2.0000     -10.721463      -291.7458
  13   2.0000     -10.718835      -291.6743
  14   2.0000     -10.718512      -291.6655
  15   2.0000     -10.714804      -291.5647
  16   2.0000     -10.714740      -291.5629
  17   2.0000     -10.707584      -291.3682
  18   2.0000     -10.706794      -291.3467
  19   2.0000     -10.706593      -291.3412
  20   2.0000     -10.706533      -291.3396
  21   2.0000     -10.702914      -291.2411
  22   2.0000     -10.702411      -291.2274
  23   2.0000     -10.701488      -291.2023
  24   2.0000     -10.698052      -291.1088
  25   2.0000     -10.697894      -291.1045
  26   2.0000     -10.695439      -291.0377
  27   2.0000     -10.695389      -291.0363
  28   2.0000     -10.694198      -291.0039
  29   2.0000     -10.690920      -290.9147
  30   2.0000      -7.218695      -196.4307
  31   2.0000      -1.302484       -35.4424
  32   2.0000      -1.269937       -34.5567
  33   2.0000      -1.252902       -34.0932
  34   2.0000      -1.231548       -33.5121
  35   2.0000      -1.116926       -30.3931
  36   2.0000      -1.099982       -29.9320
  37   2.0000      -1.082877       -29.4666
  38   2.0000      -1.070084       -29.1185
  39   2.0000      -1.039160       -28.2770
  40   2.0000      -0.989314       -26.9206
  41   2.0000      -0.975067       -26.5329
  42   2.0000      -0.971464       -26.4349
  43   2.0000      -0.962471       -26.1902
  44   2.0000      -0.954673       -25.9780
  45   2.0000      -0.952688       -25.9240
  46   2.0000      -0.937045       -25.4983
  47   2.0000      -0.887801       -24.1583
  48   2.0000      -0.868158       -23.6238
  49   2.0000      -0.842948       -22.9378
  50   2.0000      -0.829979       -22.5849
  51   2.0000      -0.802355       -21.8332
  52   2.0000      -0.792593       -21.5675
  53   2.0000      -0.787004       -21.4155
  54   2.0000      -0.781825       -21.2745
  55   2.0000      -0.755045       -20.5458
  56   2.0000      -0.737344       -20.0642
  57   2.0000      -0.735018       -20.0008
  58   2.0000      -0.727162       -19.7871
  59   2.0000      -0.711330       -19.3563
  60   2.0000      -0.702561       -19.1176
  61   2.0000      -0.684602       -18.6290
  62   2.0000      -0.672076       -18.2881
  63   2.0000      -0.663141       -18.0450
  64   2.0000      -0.652089       -17.7442
  65   2.0000      -0.637678       -17.3521
  66   2.0000      -0.634176       -17.2568
  67   2.0000      -0.631280       -17.1780
  68   2.0000      -0.622982       -16.9522
  69   2.0000      -0.619782       -16.8651
  70   2.0000      -0.602786       -16.4026
  71   2.0000      -0.601718       -16.3736
  72   2.0000      -0.598209       -16.2781
  73   2.0000      -0.595347       -16.2002
  74   2.0000      -0.591891       -16.1062
  75   2.0000      -0.587611       -15.9897
  76   2.0000      -0.580155       -15.7868
  77   2.0000      -0.576856       -15.6970
  78   2.0000      -0.564520       -15.3614
  79   2.0000      -0.554449       -15.0873
  80   2.0000      -0.549489       -14.9523
  81   2.0000      -0.543201       -14.7813
  82   2.0000      -0.532046       -14.4777
  83   2.0000      -0.529258       -14.4018
  84   2.0000      -0.527599       -14.3567
  85   2.0000      -0.525118       -14.2892
  86   2.0000      -0.523384       -14.2420
  87   2.0000      -0.512618       -13.9491
  88   2.0000      -0.506689       -13.7877
  89   2.0000      -0.500196       -13.6110
  90   2.0000      -0.497538       -13.5387
  91   2.0000      -0.495641       -13.4871
  92   2.0000      -0.482941       -13.1415
  93   2.0000      -0.475634       -12.9427
  94   2.0000      -0.470853       -12.8126
  95   2.0000      -0.464278       -12.6337
  96   2.0000      -0.460997       -12.5444
  97   2.0000      -0.458405       -12.4738
  98   2.0000      -0.434750       -11.8302
  99   2.0000      -0.387845       -10.5538
 100   2.0000      -0.366687        -9.9781
 101   2.0000      -0.362381        -9.8609
 102   2.0000      -0.361538        -9.8380
 103   2.0000      -0.356430        -9.6989
 104   2.0000      -0.334953        -9.1145
 105   2.0000      -0.325988        -8.8706
 106   0.0000      -0.038952        -1.0599
 107   0.0000       0.037917         1.0318
 108   0.0000       0.050724         1.3803
 109   0.0000       0.061150         1.6640
 110   0.0000       0.074965         2.0399

MULLIKEN ATOMIC CHARGES
-----------------------
   0 C :   -0.109179
   1 C :   -0.244817
   2 C :    0.209263
   3 C :    0.115388
   4 C :   -0.241658
   5 C :   -0.183188
   6 C :    0.034883
   7 C :    0.198417
   8 C :    0.167873
   9 C :   -0.236881
  10 H :    0.210633
  11 C :   -0.119063
  12 C :   -0.169827
  13 C :   -0.265056
  14 H :    0.198594
  15 H :    0.210099
  16 H :    0.214862
  17 H :    0.191452
  18 H :    0.198046
  19 H :    0.192218
  20 H :    0.216320
  21 N :    0.131719
  22 C :    0.006910
  23 C :   -0.083317
  24 C :   -0.297414
  25 C :   -0.205597
  26 C :   -0.135640
  27 C :   -0.176676
  28 H :    0.186926
  29 H :    0.192934
  30 C :   -0.046377
  31 C :   -0.232621
  32 C :   -0.202029
  33 C :   -0.236196
  34 H :    0.192771
  35 C :   -0.208398
  36 H :    0.189974
  37 C :    0.350626
  38 H :    0.196312
  39 H :    0.177490
  40 O :   -0.311391
  41 C :   -0.258300
  42 H :    0.170162
  43 H :    0.157367
  44 H :    0.157753
  45 H :    0.184135
  46 B :    0.360083
  47 O :   -0.478197
  48 O :   -0.497060
  49 H :    0.373408
  50 H :    0.372988
  51 H :    0.179273
Sum of atomic charges:    1.0000000

LOEWDIN ATOMIC CHARGES
----------------------
   0 C :   -0.078797
   1 C :   -0.101308
   2 C :   -0.055023
   3 C :   -0.057793
   4 C :   -0.061159
   5 C :   -0.128155
   6 C :    0.057468
   7 C :   -0.054515
   8 C :   -0.055057
   9 C :   -0.099861
  10 H :    0.174060
  11 C :   -0.079334
  12 C :   -0.125360
  13 C :   -0.057010
  14 H :    0.167852
  15 H :    0.173783
  16 H :    0.174069
  17 H :    0.162874
  18 H :    0.167812
  19 H :    0.163357
  20 H :    0.178857
  21 N :    0.362179
  22 C :   -0.062952
  23 C :   -0.031724
  24 C :   -0.088445
  25 C :   -0.079354
  26 C :   -0.125754
  27 C :   -0.128319
  28 H :    0.159810
  29 H :    0.167799
  30 C :   -0.178598
  31 C :   -0.088003
  32 C :   -0.091263
  33 C :   -0.128502
  34 H :    0.170247
  35 C :   -0.112121
  36 H :    0.169956
  37 C :   -0.240019
  38 H :    0.165521
  39 H :    0.162229
  40 O :    0.214920
  41 C :   -0.307995
  42 H :    0.120339
  43 H :    0.116490
  44 H :    0.116551
  45 H :    0.158584
  46 B :   -0.852668
  47 O :    0.172430
  48 O :    0.175294
  49 H :    0.223565
  50 H :    0.227274
  51 H :    0.165772

  Mayer bond orders larger than 0.100000
B(  0-C ,  1-C ) :   1.5526 B(  0-C ,  5-C ) :   1.2166 B(  0-C , 14-H ) :   0.9617
B(  1-C ,  2-C ) :   1.2272 B(  1-C , 15-H ) :   0.9584 B(  2-C ,  3-C ) :   1.2587
B(  2-C , 21-N ) :   1.2352 B(  3-C ,  4-C ) :   1.1853 B(  3-C ,  6-C ) :   1.1857
B(  4-C ,  5-C ) :   1.6124 B(  4-C , 16-H ) :   0.9450 B(  5-C , 17-H ) :   0.9725
B(  6-C ,  7-C ) :   1.1167 B(  6-C , 22-C ) :   0.7752 B(  6-C , 47-O ) :   0.1276
B(  7-C ,  8-C ) :   1.2835 B(  7-C , 13-C ) :   1.1450 B(  8-C ,  9-C ) :   1.2303
B(  8-C , 21-N ) :   1.2316 B(  9-C , 10-H ) :   0.9585 B(  9-C , 11-C ) :   1.5476
B( 11-C , 12-C ) :   1.2194 B( 11-C , 18-H ) :   0.9633 B( 12-C , 13-C ) :   1.6127
B( 12-C , 19-H ) :   0.9721 B( 13-C , 20-H ) :   0.9500 B( 21-N , 30-C ) :   0.6991
B( 22-C , 23-C ) :   1.2483 B( 22-C , 24-C ) :   1.3859 B( 23-C , 25-C ) :   1.4403
B( 23-C , 46-B ) :   0.9863 B( 24-C , 26-C ) :   1.4365 B( 24-C , 29-H ) :   0.9741
B( 25-C , 27-C ) :   1.3946 B( 25-C , 51-H ) :   0.9703 B( 26-C , 27-C ) :   1.3917
B( 26-C , 28-H ) :   0.9739 B( 27-C , 45-H ) :   0.9728 B( 30-C , 31-C ) :   1.5001
B( 30-C , 32-C ) :   1.4480 B( 31-C , 33-C ) :   1.3750 B( 31-C , 34-H ) :   0.9631
B( 32-C , 35-C ) :   1.4585 B( 32-C , 36-H ) :   0.9793 B( 33-C , 37-C ) :   1.3123
B( 33-C , 38-H ) :   0.9588 B( 35-C , 37-C ) :   1.3288 B( 35-C , 39-H ) :   0.9802
B( 37-C , 40-O ) :   1.1385 B( 40-O , 41-C ) :   0.8835 B( 41-C , 42-H ) :   0.9718
B( 41-C , 43-H ) :   0.9696 B( 41-C , 44-H ) :   0.9695 B( 46-B , 47-O ) :   1.2971
B( 46-B , 48-O ) :   1.3568 B( 47-O , 49-H ) :   0.8509 B( 48-O , 50-H ) :   0.8458

MP2 TOTAL ENERGY:    -1306.631629487 Eh

-----------------------------------------------------------------------------
         ABSORPTION SPECTRUM VIA TRANSITION ELECTRIC DIPOLE MOMENTS
-----------------------------------------------------------------------------
State   Energy    Wavelength  fosc         T2        TX        TY        TZ
        (cm-1)      (nm)                 (au**2)    (au)      (au)      (au)
-----------------------------------------------------------------------------
   1   26103.6    383.1   0.278499045   3.51236  -1.87008  -0.11830   0.03423
   2   30948.5    323.1   0.351409262   3.73809   0.10294  -1.88764  -0.40534
   3   35218.9    283.9   0.091913534   0.85917   0.27187   0.86732   0.18169
   4   34950.9    286.1   0.094938695   0.89425   0.87393  -0.35432  -0.07040
   5   33755.3    296.2   0.004131956   0.04030  -0.17835   0.08867   0.02503
   6   37732.5    265.0   0.034997301   0.30535   0.18603  -0.29998  -0.42515
   7   40852.2    244.8   0.033954580   0.27363  -0.03636  -0.07287   0.51672
   8   42344.9    236.2   1.233328772   9.58856  -0.20977   3.03017   0.60221
   9   42676.4    234.3   0.064724752   0.49930  -0.26842  -0.56476  -0.32907
  10   47256.5    211.6   0.030677741   0.21372   0.36733  -0.23835   0.14823
  11   47631.3    209.9   0.169789836   1.17353  -0.95402  -0.30460   0.41302
  12   43051.9    232.3   0.058366580   0.44632  -0.09189   0.65840   0.06628
  13   48045.8    208.1   0.120708876   0.82710  -0.90160  -0.11513   0.03108
  14   47260.8    211.6   0.099482790   0.69298  -0.82999  -0.05025   0.03965
  15   48279.0    207.1   0.048674776   0.33191  -0.33768  -0.36355   0.29277
  16   49677.3    201.3   0.000395442   0.00262  -0.00771  -0.01717  -0.04761
  17   48780.2    205.0   0.032516941   0.21945  -0.21155   0.19533  -0.36952
  18   51570.0    193.9   1.078885015   6.88737   2.61846   0.09237  -0.15006
  19   52851.3    189.2   0.428480464   2.66901  -0.19239   0.99258  -1.28327
  20   53274.6    187.7   1.417841344   8.76158  -2.95285  -0.19068   0.07669
  21   53062.0    188.5   0.021546785   0.13368   0.01987  -0.16537   0.32548
  22   53311.8    187.6   0.376441958   2.32461  -0.27548  -0.23761   1.48063
  23   54088.6    184.9   0.108682253   0.66150   0.02704   0.79177   0.18404
  24   52365.0    191.0   0.114570662   0.72029  -0.06829   0.18665  -0.82510
  25   53286.1    187.7   0.009542511   0.05896  -0.00068  -0.06797   0.23310
  26   54681.2    182.9   0.019197865   0.11558  -0.12471  -0.18223   0.25850
  27   54974.6    181.9   0.001819946   0.01090  -0.01115   0.04395  -0.09404
  28   55525.8    180.1   0.000876645   0.00520   0.02546  -0.05544  -0.03842
  29   55992.9    178.6   0.000175777   0.00103  -0.00168   0.02753   0.01651
  30   57236.6    174.7   0.013724934   0.07894  -0.21472   0.12778   0.12849

FINAL SINGLE POINT ENERGY     -1305.024292957346

DIPOLE MOMENT
-------------
                                X             Y             Z
Electronic contribution:     11.23879      -0.70710      -0.34289
Nuclear contribution   :    -12.21503       1.60799       0.45789
                        -----------------------------------------
Total Dipole Moment    :     -0.97624       0.90089       0.11499
                        -----------------------------------------
Magnitude (a.u.)       :      1.33336
Magnitude (Debye)      :      3.38914

Rotational constants in cm-1:     0.010028     0.002980     0.002627
Rotational constants in MHz :   300.646435    89.343388    78.766984

                             ****ORCA TERMINATED NORMALLY****
TOTAL RUN TIME: 0 days 1 hours 56 minutes 38 seconds 1 msec
