                         Program Version 5.0.2 -  RELEASE  -
|  1> %maxcore 20000
|  2> %pal
|  3>  nprocs= 6
|  4> end
|  5> ! RI-SCS-PBE-QIDH   def2-TZVP def2/J def2-TZVP/C RIJCOSX CPCM TightSCF
|  6> %TDDFT
|  7>    NROOTS   30
|  8>    dcorr 4
|  9>    doscs true
| 10>    TDA      FALSE
| 11> END
| 12>
| 13> %CPCM
| 14>    SMD          TRUE
| 15>    SMDsolvent   "ACETONITRILE"
| 16> END
| 17>
| 18>
| 19> * xyz 1 1
| 20> C                  -0.68199200    3.69212300    0.45109500
| 21> C                  -1.29772600    2.49705700    0.19805900
| 22> C                  -0.52563000    1.34919600   -0.05376000
| 23> C                   0.89842500    1.44364400   -0.07124300
| 24> C                   1.48730600    2.69973600    0.22582500
| 25> C                   0.71951400    3.79714800    0.47862600
| 26> C                   1.67020700    0.30031700   -0.34817000
| 27> C                   1.02104700   -0.92499200   -0.59013700
| 28> C                  -0.40290800   -0.99406800   -0.52766600
| 29> C                  -1.05201400   -2.22403800   -0.73464100
| 30> H                  -2.12827900   -2.27930000   -0.67436000
| 31> C                  -0.31925200   -3.34527600   -1.01281100
| 32> C                   1.08133000   -3.29123600   -1.11426000
| 33> C                   1.73155300   -2.10992900   -0.91270000
| 34> H                  -1.28875100    4.56712900    0.64432100
| 35> H                  -2.37503500    2.42932400    0.19516200
| 36> H                   2.56514000    2.77122800    0.25352500
| 37> H                   1.18453900    4.74692900    0.70456400
| 38> H                  -0.83245700   -4.28512000   -1.16891500
| 39> H                   1.63911800   -4.18408000   -1.36145400
| 40> H                   2.80673700   -2.06011500   -1.01067400
| 41> N                  -1.12546700    0.13962700   -0.27174000
| 42> C                   3.14569700    0.38732300   -0.39986500
| 43> C                   3.95586200   -0.31238100    0.51514400
| 44> C                   3.72463900    1.14686100   -1.41665300
| 45> C                   5.34093300   -0.22350900    0.35367000
| 46> C                   5.10131300    1.21534100   -1.54795700
| 47> C                   5.91389100    0.52892000   -0.65895800
| 48> H                   5.53564100    1.80205000   -2.34726300
| 49> H                   3.08512900    1.66910700   -2.11793500
| 50> C                  -2.56951200    0.05352900   -0.22339900
| 51> C                  -3.19860800   -0.18013700    0.98472300
| 52> C                  -3.30208600    0.20321600   -1.39253900
| 53> C                  -4.58111200   -0.26793400    1.03720400
| 54> H                  -2.60962600   -0.29450100    1.88601000
| 55> C                  -4.67740100    0.11745400   -1.34630600
| 56> H                  -2.79205500    0.38478400   -2.33002600
| 57> C                  -5.32696000   -0.11883200   -0.13164000
| 58> H                  -5.06612300   -0.45243400    1.98456100
| 59> H                  -5.26946900    0.23067900   -2.24474200
| 60> O                  -6.67156200   -0.18670200   -0.18612200
| 61> C                  -7.36963600   -0.42721000    1.02706200
| 62> H                  -8.42499100   -0.44121900    0.77034100
| 63> H                  -7.09260400   -1.38954200    1.46301400
| 64> H                  -7.18741700    0.36481100    1.75663300
| 65> H                   6.99099600    0.57925300   -0.75547000
| 66> B                   3.39754400   -1.14348300    1.72153900
| 67> O                   2.31006200   -0.79208700    2.47381000
| 68> O                   4.06471900   -2.28323200    2.05943000
| 69> H                   1.93286500    0.06571800    2.24961400
| 70> H                   3.68938000   -2.70780500    2.83994100
| 71> H                   5.98077500   -0.75465100    1.04846800
| 72> *
| 73>
| 74>
| 75>                          ****END OF INPUT****

CARTESIAN COORDINATES (ANGSTROEM)
---------------------------------
  C     -0.681992    3.692123    0.451095
  C     -1.297726    2.497057    0.198059
  C     -0.525630    1.349196   -0.053760
  C      0.898425    1.443644   -0.071243
  C      1.487306    2.699736    0.225825
  C      0.719514    3.797148    0.478626
  C      1.670207    0.300317   -0.348170
  C      1.021047   -0.924992   -0.590137
  C     -0.402908   -0.994068   -0.527666
  C     -1.052014   -2.224038   -0.734641
  H     -2.128279   -2.279300   -0.674360
  C     -0.319252   -3.345276   -1.012811
  C      1.081330   -3.291236   -1.114260
  C      1.731553   -2.109929   -0.912700
  H     -1.288751    4.567129    0.644321
  H     -2.375035    2.429324    0.195162
  H      2.565140    2.771228    0.253525
  H      1.184539    4.746929    0.704564
  H     -0.832457   -4.285120   -1.168915
  H      1.639118   -4.184080   -1.361454
  H      2.806737   -2.060115   -1.010674
  N     -1.125467    0.139627   -0.271740
  C      3.145697    0.387323   -0.399865
  C      3.955862   -0.312381    0.515144
  C      3.724639    1.146861   -1.416653
  C      5.340933   -0.223509    0.353670
  C      5.101313    1.215341   -1.547957
  C      5.913891    0.528920   -0.658958
  H      5.535641    1.802050   -2.347263
  H      3.085129    1.669107   -2.117935
  C     -2.569512    0.053529   -0.223399
  C     -3.198608   -0.180137    0.984723
  C     -3.302086    0.203216   -1.392539
  C     -4.581112   -0.267934    1.037204
  H     -2.609626   -0.294501    1.886010
  C     -4.677401    0.117454   -1.346306
  H     -2.792055    0.384784   -2.330026
  C     -5.326960   -0.118832   -0.131640
  H     -5.066123   -0.452434    1.984561
  H     -5.269469    0.230679   -2.244742
  O     -6.671562   -0.186702   -0.186122
  C     -7.369636   -0.427210    1.027062
  H     -8.424991   -0.441219    0.770341
  H     -7.092604   -1.389542    1.463014
  H     -7.187417    0.364811    1.756633
  H      6.990996    0.579253   -0.755470
  B      3.397544   -1.143483    1.721539
  O      2.310062   -0.792087    2.473810
  O      4.064719   -2.283232    2.059430
  H      1.932865    0.065718    2.249614
  H      3.689380   -2.707805    2.839941
  H      5.980775   -0.754651    1.048468

 Total Charge           Charge          ....    1
 Multiplicity           Mult            ....    1
 Number of Electrons    NEL             ....  212
 Basis Dimension        Dim             .... 1087

ORBITAL ENERGIES
----------------

  NO   OCC          E(Eh)            E(eV)
   0   2.0000     -20.041304      -545.3516
   1   2.0000     -20.019842      -544.7676
   2   2.0000     -20.014269      -544.6160
   3   2.0000     -15.189491      -413.3271
   4   2.0000     -10.918956      -297.1199
   5   2.0000     -10.918581      -297.1097
   6   2.0000     -10.905510      -296.7540
   7   2.0000     -10.899186      -296.5819
   8   2.0000     -10.873299      -295.8775
   9   2.0000     -10.870002      -295.7878
  10   2.0000     -10.869980      -295.7872
  11   2.0000     -10.859231      -295.4947
  12   2.0000     -10.856557      -295.4219
  13   2.0000     -10.852999      -295.3251
  14   2.0000     -10.852692      -295.3168
  15   2.0000     -10.848973      -295.2156
  16   2.0000     -10.848936      -295.2145
  17   2.0000     -10.841549      -295.0135
  18   2.0000     -10.840831      -294.9940
  19   2.0000     -10.840577      -294.9871
  20   2.0000     -10.840563      -294.9867
  21   2.0000     -10.837076      -294.8918
  22   2.0000     -10.836580      -294.8783
  23   2.0000     -10.835811      -294.8574
  24   2.0000     -10.832318      -294.7624
  25   2.0000     -10.832120      -294.7570
  26   2.0000     -10.829477      -294.6851
  27   2.0000     -10.829126      -294.6755
  28   2.0000     -10.827895      -294.6420
  29   2.0000     -10.825497      -294.5767
  30   2.0000      -7.309761      -198.9087
  31   2.0000      -1.302122       -35.4325
  32   2.0000      -1.267785       -34.4982
  33   2.0000      -1.246559       -33.9206
  34   2.0000      -1.229173       -33.4475
  35   2.0000      -1.105219       -30.0745
  36   2.0000      -1.087881       -29.6028
  37   2.0000      -1.070818       -29.1384
  38   2.0000      -1.057677       -28.7808
  39   2.0000      -1.025435       -27.9035
  40   2.0000      -0.974087       -26.5063
  41   2.0000      -0.959366       -26.1057
  42   2.0000      -0.956295       -26.0221
  43   2.0000      -0.947064       -25.7709
  44   2.0000      -0.939670       -25.5697
  45   2.0000      -0.937363       -25.5069
  46   2.0000      -0.920948       -25.0603
  47   2.0000      -0.869003       -23.6468
  48   2.0000      -0.849628       -23.1196
  49   2.0000      -0.823130       -22.3985
  50   2.0000      -0.809533       -22.0285
  51   2.0000      -0.781297       -21.2602
  52   2.0000      -0.771429       -20.9916
  53   2.0000      -0.766363       -20.8538
  54   2.0000      -0.761061       -20.7095
  55   2.0000      -0.732801       -19.9405
  56   2.0000      -0.713069       -19.4036
  57   2.0000      -0.711613       -19.3640
  58   2.0000      -0.702974       -19.1289
  59   2.0000      -0.686164       -18.6715
  60   2.0000      -0.676958       -18.4210
  61   2.0000      -0.659910       -17.9571
  62   2.0000      -0.646947       -17.6043
  63   2.0000      -0.636448       -17.3186
  64   2.0000      -0.628335       -17.0979
  65   2.0000      -0.612372       -16.6635
  66   2.0000      -0.608663       -16.5626
  67   2.0000      -0.605149       -16.4669
  68   2.0000      -0.596222       -16.2240
  69   2.0000      -0.592547       -16.1240
  70   2.0000      -0.576386       -15.6843
  71   2.0000      -0.575092       -15.6491
  72   2.0000      -0.571721       -15.5573
  73   2.0000      -0.568847       -15.4791
  74   2.0000      -0.565964       -15.4007
  75   2.0000      -0.561019       -15.2661
  76   2.0000      -0.553989       -15.0748
  77   2.0000      -0.550069       -14.9681
  78   2.0000      -0.538022       -14.6403
  79   2.0000      -0.527376       -14.3506
  80   2.0000      -0.521091       -14.1796
  81   2.0000      -0.516964       -14.0673
  82   2.0000      -0.506117       -13.7721
  83   2.0000      -0.503460       -13.6998
  84   2.0000      -0.502387       -13.6707
  85   2.0000      -0.494015       -13.4428
  86   2.0000      -0.491600       -13.3771
  87   2.0000      -0.483066       -13.1449
  88   2.0000      -0.479262       -13.0414
  89   2.0000      -0.473326       -12.8799
  90   2.0000      -0.470934       -12.8148
  91   2.0000      -0.467397       -12.7185
  92   2.0000      -0.454670       -12.3722
  93   2.0000      -0.448477       -12.2037
  94   2.0000      -0.444464       -12.0945
  95   2.0000      -0.437395       -11.9021
  96   2.0000      -0.433186       -11.7876
  97   2.0000      -0.430680       -11.7194
  98   2.0000      -0.405136       -11.0243
  99   2.0000      -0.358120        -9.7449
 100   2.0000      -0.337993        -9.1973
 101   2.0000      -0.334596        -9.1048
 102   2.0000      -0.333181        -9.0663
 103   2.0000      -0.329209        -8.9582
 104   2.0000      -0.307501        -8.3675
 105   2.0000      -0.299639        -8.1536
 106   0.0000      -0.063657        -1.7322
 107   0.0000       0.012925         0.3517
 108   0.0000       0.024824         0.6755
 109   0.0000       0.035761         0.9731
 110   0.0000       0.049086         1.3357

MULLIKEN ATOMIC CHARGES
-----------------------
   0 C :   -0.082522
   1 C :   -0.283595
   2 C :    0.233490
   3 C :    0.108668
   4 C :   -0.264705
   5 C :   -0.175794
   6 C :    0.118032
   7 C :    0.198828
   8 C :    0.181838
   9 C :   -0.270834
  10 H :    0.196285
  11 C :   -0.096350
  12 C :   -0.160679
  13 C :   -0.279245
  14 H :    0.187741
  15 H :    0.195782
  16 H :    0.201777
  17 H :    0.182582
  18 H :    0.187146
  19 H :    0.182837
  20 H :    0.200696
  21 N :    0.220355
  22 C :    0.033483
  23 C :   -0.119967
  24 C :   -0.346494
  25 C :   -0.210712
  26 C :   -0.121068
  27 C :   -0.173382
  28 H :    0.177366
  29 H :    0.183224
  30 C :    0.024720
  31 C :   -0.250579
  32 C :   -0.217442
  33 C :   -0.258196
  34 H :    0.181434
  35 C :   -0.231592
  36 H :    0.178477
  37 C :    0.395909
  38 H :    0.186156
  39 H :    0.165883
  40 O :   -0.316175
  41 C :   -0.234078
  42 H :    0.165788
  43 H :    0.150177
  44 H :    0.150659
  45 H :    0.175062
  46 B :    0.442017
  47 O :   -0.512196
  48 O :   -0.532596
  49 H :    0.379176
  50 H :    0.378822
  51 H :    0.173792
Sum of atomic charges:    1.0000000

LOEWDIN ATOMIC CHARGES
----------------------
   0 C :   -0.077184
   1 C :   -0.100148
   2 C :   -0.055945
   3 C :   -0.058563
   4 C :   -0.059996
   5 C :   -0.126394
   6 C :    0.055786
   7 C :   -0.055078
   8 C :   -0.055847
   9 C :   -0.098686
  10 H :    0.173366
  11 C :   -0.077685
  12 C :   -0.123603
  13 C :   -0.055946
  14 H :    0.166928
  15 H :    0.173096
  16 H :    0.173220
  17 H :    0.162206
  18 H :    0.166900
  19 H :    0.162675
  20 H :    0.177948
  21 N :    0.359192
  22 C :   -0.064147
  23 C :   -0.033292
  24 C :   -0.087237
  25 C :   -0.077824
  26 C :   -0.124091
  27 C :   -0.126906
  28 H :    0.159100
  29 H :    0.167130
  30 C :   -0.179099
  31 C :   -0.086821
  32 C :   -0.089929
  33 C :   -0.126936
  34 H :    0.169426
  35 C :   -0.110522
  36 H :    0.169129
  37 C :   -0.238175
  38 H :    0.164885
  39 H :    0.161600
  40 O :    0.209690
  41 C :   -0.300844
  42 H :    0.118632
  43 H :    0.115108
  44 H :    0.115170
  45 H :    0.157826
  46 B :   -0.833176
  47 O :    0.163172
  48 O :    0.166050
  49 H :    0.223450
  50 H :    0.227160
  51 H :    0.165227

  Mayer bond orders larger than 0.100000
B(  0-C ,  1-C ) :   1.5327 B(  0-C ,  5-C ) :   1.2139 B(  0-C , 14-H ) :   0.9669
B(  1-C ,  2-C ) :   1.2523 B(  1-C , 15-H ) :   0.9698 B(  2-C ,  3-C ) :   1.2404
B(  2-C ,  8-C ) :   0.1077 B(  2-C , 21-N ) :   1.2391 B(  3-C ,  4-C ) :   1.1782
B(  3-C ,  6-C ) :   1.1684 B(  3-C , 22-C ) :  -0.1080 B(  4-C ,  5-C ) :   1.5977
B(  4-C , 16-H ) :   0.9599 B(  5-C , 17-H ) :   0.9789 B(  6-C ,  7-C ) :   1.0986
B(  6-C , 22-C ) :   0.7115 B(  6-C , 47-O ) :   0.1221 B(  7-C ,  8-C ) :   1.2586
B(  7-C , 13-C ) :   1.1495 B(  7-C , 22-C ) :  -0.1142 B(  8-C ,  9-C ) :   1.2576
B(  8-C , 21-N ) :   1.2353 B(  9-C , 10-H ) :   0.9699 B(  9-C , 11-C ) :   1.5262
B( 11-C , 12-C ) :   1.2137 B( 11-C , 18-H ) :   0.9690 B( 12-C , 13-C ) :   1.5997
B( 12-C , 19-H ) :   0.9790 B( 13-C , 20-H ) :   0.9600 B( 21-N , 30-C ) :   0.7196
B( 22-C , 23-C ) :   1.2471 B( 22-C , 24-C ) :   1.4036 B( 23-C , 25-C ) :   1.4616
B( 23-C , 46-B ) :   0.9695 B( 24-C , 26-C ) :   1.4333 B( 24-C , 29-H ) :   0.9824
B( 25-C , 27-C ) :   1.3890 B( 25-C , 51-H ) :   0.9755 B( 26-C , 27-C ) :   1.3869
B( 26-C , 28-H ) :   0.9788 B( 27-C , 45-H ) :   0.9766 B( 30-C , 31-C ) :   1.5344
B( 30-C , 32-C ) :   1.4774 B( 31-C , 33-C ) :   1.3968 B( 31-C , 34-H ) :   0.9701
B( 32-C , 35-C ) :   1.4609 B( 32-C , 36-H ) :   0.9864 B( 33-C , 37-C ) :   1.3204
B( 33-C , 38-H ) :   0.9654 B( 35-C , 37-C ) :   1.3198 B( 35-C , 39-H ) :   0.9949
B( 37-C , 40-O ) :   1.1265 B( 40-O , 41-C ) :   0.8926 B( 41-C , 42-H ) :   0.9700
B( 41-C , 43-H ) :   0.9701 B( 41-C , 44-H ) :   0.9700 B( 46-B , 47-O ) :   1.2678
B( 46-B , 48-O ) :   1.3172 B( 47-O , 49-H ) :   0.8449 B( 48-O , 50-H ) :   0.8405

MP2 TOTAL ENERGY:    -1307.427387379 Eh

-----------------------------------------------------------------------------
         ABSORPTION SPECTRUM VIA TRANSITION ELECTRIC DIPOLE MOMENTS
-----------------------------------------------------------------------------
State   Energy    Wavelength  fosc         T2        TX        TY        TZ
        (cm-1)      (nm)                 (au**2)    (au)      (au)      (au)
-----------------------------------------------------------------------------
   1   23608.9    423.6   0.237256812   3.30840  -1.81514  -0.11163   0.03488
   2   28556.9    350.2   0.333051680   3.83951   0.09351  -1.91457  -0.40643
   3   27627.4    362.0   0.004374746   0.05213   0.19462  -0.11796  -0.01847
   4   30744.9    325.3   0.068128115   0.72951  -0.85141  -0.06770   0.00522
   5   31543.2    317.0   0.039815280   0.41555  -0.14755   0.62138   0.08752
   6   32763.5    305.2   0.026929000   0.27059   0.11074  -0.33989  -0.37789
   7   36501.3    274.0   0.288104046   2.59846   0.11163  -1.57977  -0.30057
   8   38139.1    262.2   0.073116540   0.63113  -0.07697   0.46401   0.64023
   9   38955.7    256.7   0.777293858   6.56885   0.27068  -2.51039  -0.43992
  10   39484.4    253.3   0.160763886   1.34041   0.35665   1.07178   0.25398
  11   45999.9    217.4   0.030090208   0.21535   0.14476  -0.30692   0.31654
  12   46661.2    214.3   0.155568993   1.09760   0.97999   0.17817  -0.32478
  13   45805.2    218.3   0.106264524   0.76375   0.86444   0.10395  -0.07542
  14   44408.5    225.2   0.021478642   0.15923   0.04085   0.38352  -0.10233
  15   44243.5    226.0   0.052493118   0.39060  -0.49170  -0.36288   0.13095
  16   46323.8    215.9   0.002198392   0.01562  -0.11224  -0.02229   0.05030
  17   46098.5    216.9   0.049763884   0.35539  -0.41164   0.19282  -0.38569
  18   47842.7    209.0   0.740292108   5.09404  -2.25030  -0.00478   0.17366
  19   43941.5    227.6   0.027286888   0.20443  -0.41571   0.03517  -0.17431
  20   50894.4    196.5   0.381933096   2.47055  -0.48095   0.84495  -1.23503
  21   51233.8    195.2   1.683289042  10.81627  -3.25442  -0.31726   0.35262
  22   51041.5    195.9   0.026941009   0.17377   0.31204  -0.19071   0.20006
  23   49585.0    201.7   0.052606590   0.34927  -0.12491  -0.41158  -0.40530
  24   52492.6    190.5   0.411419582   2.58025   0.04538   0.27394  -1.58214
  25   50478.4    198.1   0.023016683   0.15011  -0.29341  -0.07685   0.24107
  26   50710.6    197.2   0.000173558   0.00113   0.00359  -0.02326  -0.02393
  27   51130.5    195.6   0.008172005   0.05262  -0.15818   0.16492   0.01992
  28   50753.1    197.0   0.151262130   0.98117  -0.11224  -0.95967   0.21817
  29   51784.7    193.1   0.018443716   0.11725  -0.01276   0.27683  -0.20114
  30   50045.3    199.8   0.024377957   0.16037   0.08816   0.38129   0.08493

FINAL SINGLE POINT ENERGY     -1305.448335472682

DIPOLE MOMENT
-------------
                                X             Y             Z
Electronic contribution:     11.24945      -0.70819      -0.35864
Nuclear contribution   :    -12.21503       1.60799       0.45789
                        -----------------------------------------
Total Dipole Moment    :     -0.96558       0.89979       0.09924
                        -----------------------------------------
Magnitude (a.u.)       :      1.32357
Magnitude (Debye)      :      3.36424

Rotational constants in cm-1:     0.010028     0.002980     0.002627
Rotational constants in MHz :   300.646435    89.343388    78.766984

                             ****ORCA TERMINATED NORMALLY****
TOTAL RUN TIME: 0 days 9 hours 4 minutes 11 seconds 397 msec
