                         Program Version 5.0.2 -  RELEASE  -
|  1> %maxcore 3200
|  2> %pal
|  3>  nprocs= 8
|  4> end
|  5> ! RI-wB2PLYP def2-TZVP def2/J def2-TZVP/C RIJCOSX CPCM TightSCF
|  6> %TDDFT DCORR 1
|  7>    NROOTS   30
|  8>
|  9>    TDA      FALSE
| 10> END
| 11>
| 12> %CPCM
| 13>    SMD          TRUE
| 14>    SMDsolvent   "ACETONITRILE"
| 15> END
| 16>
| 17>
| 18> * xyz 0 1
| 19> C                  -1.33517900    3.59951500    0.01496600
| 20> C                  -1.99941600    2.40569100   -0.06161400
| 21> C                  -1.27852900    1.19839100   -0.05656400
| 22> C                   0.14681400    1.22248100   -0.00378800
| 23> C                   0.78287200    2.48471500    0.11273800
| 24> C                   0.06482600    3.64387900    0.11890300
| 25> C                   0.87039300    0.01271300   -0.03377000
| 26> C                   0.16140500   -1.20443600   -0.09601700
| 27> C                  -1.26500900   -1.19505800   -0.10071500
| 28> C                  -1.97286100   -2.40970700   -0.12793000
| 29> H                  -3.05211800   -2.40114300   -0.11061500
| 30> C                  -1.29378600   -3.59640200   -0.18090600
| 31> C                   0.10968600   -3.62619400   -0.22761800
| 32> C                   0.81490700   -2.45972300   -0.18912700
| 33> H                  -1.90341100    4.52055100    0.01020300
| 34> H                  -3.07689300    2.38605600   -0.12303900
| 35> H                   1.85800200    2.51440200    0.20994300
| 36> H                   0.56938500    4.59585900    0.21170600
| 37> H                  -1.85221400   -4.52318100   -0.20235400
| 38> H                   0.62740400   -4.57268200   -0.30223200
| 39> H                   1.89343600   -2.47802700   -0.24240000
| 40> N                  -1.93575900   -0.00191000   -0.08975100
| 41> C                   2.34016300    0.01909200   -0.00022100
| 42> C                   3.03378200   -0.63478900    1.02206500
| 43> C                   3.07600300    0.67822300   -0.98770700
| 44> C                   4.41729100   -0.61163300    1.05294000
| 45> C                   4.46058100    0.66574600   -0.95363000
| 46> C                   5.17266500    0.02959800    0.06609100
| 47> H                   5.00464300    1.17230600   -1.74368700
| 48> H                   2.55250900    1.18188800   -1.79213400
| 49> C                  -3.38215200   -0.00910800   -0.11245000
| 50> C                  -4.08300000    0.01602500    1.07835000
| 51> C                  -4.04762200   -0.03955400   -1.33022100
| 52> C                  -5.46937200    0.01138600    1.06517500
| 53> H                  -3.54605200    0.03998200    2.01828600
| 54> C                  -5.42627000   -0.04411500   -1.35017500
| 55> H                  -3.48259400   -0.05934600   -2.25346900
| 56> C                  -6.14715000   -0.01833900   -0.15319800
| 57> H                  -6.01021200    0.03110300    2.00014500
| 58> H                  -5.96618700   -0.06701500   -2.28747400
| 59> O                  -7.48941500   -0.02427900   -0.27426500
| 60> C                  -8.25978000    0.00391500    0.91824300
| 61> H                  -9.30015500   -0.00518900    0.60609500
| 62> H                  -8.06384600   -0.87126300    1.54134300
| 63> H                  -8.06624400    0.90924100    1.49749300
| 64> H                   4.92649100   -1.10906800    1.87219600
| 65> B                   6.78084300   -0.00531600    0.09357000
| 66> F                   7.34166600    1.03029900   -0.69206700
| 67> F                   7.26987200   -1.24050000   -0.41765900
| 68> F                   7.28020500    0.12750000    1.41408500
| 69> H                   2.47622100   -1.13985700    1.80237700
| 70> *
| 71>
| 72>
| 73>                          ****END OF INPUT****

CARTESIAN COORDINATES (ANGSTROEM)
---------------------------------
  C     -1.335179    3.599515    0.014966
  C     -1.999416    2.405691   -0.061614
  C     -1.278529    1.198391   -0.056564
  C      0.146814    1.222481   -0.003788
  C      0.782872    2.484715    0.112738
  C      0.064826    3.643879    0.118903
  C      0.870393    0.012713   -0.033770
  C      0.161405   -1.204436   -0.096017
  C     -1.265009   -1.195058   -0.100715
  C     -1.972861   -2.409707   -0.127930
  H     -3.052118   -2.401143   -0.110615
  C     -1.293786   -3.596402   -0.180906
  C      0.109686   -3.626194   -0.227618
  C      0.814907   -2.459723   -0.189127
  H     -1.903411    4.520551    0.010203
  H     -3.076893    2.386056   -0.123039
  H      1.858002    2.514402    0.209943
  H      0.569385    4.595859    0.211706
  H     -1.852214   -4.523181   -0.202354
  H      0.627404   -4.572682   -0.302232
  H      1.893436   -2.478027   -0.242400
  N     -1.935759   -0.001910   -0.089751
  C      2.340163    0.019092   -0.000221
  C      3.033782   -0.634789    1.022065
  C      3.076003    0.678223   -0.987707
  C      4.417291   -0.611633    1.052940
  C      4.460581    0.665746   -0.953630
  C      5.172665    0.029598    0.066091
  H      5.004643    1.172306   -1.743687
  H      2.552509    1.181888   -1.792134
  C     -3.382152   -0.009108   -0.112450
  C     -4.083000    0.016025    1.078350
  C     -4.047622   -0.039554   -1.330221
  C     -5.469372    0.011386    1.065175
  H     -3.546052    0.039982    2.018286
  C     -5.426270   -0.044115   -1.350175
  H     -3.482594   -0.059346   -2.253469
  C     -6.147150   -0.018339   -0.153198
  H     -6.010212    0.031103    2.000145
  H     -5.966187   -0.067015   -2.287474
  O     -7.489415   -0.024279   -0.274265
  C     -8.259780    0.003915    0.918243
  H     -9.300155   -0.005189    0.606095
  H     -8.063846   -0.871263    1.541343
  H     -8.066244    0.909241    1.497493
  H      4.926491   -1.109068    1.872196
  B      6.780843   -0.005316    0.093570
  F      7.341666    1.030299   -0.692067
  F      7.269872   -1.240500   -0.417659
  F      7.280205    0.127500    1.414085
  H      2.476221   -1.139857    1.802377

 Total Charge           Charge          ....    0
 Multiplicity           Mult            ....    1
 Number of Electrons    NEL             ....  222
 Basis Dimension        Dim             .... 1106

ORBITAL ENERGIES
----------------

  NO   OCC          E(Eh)            E(eV)
   0   2.0000     -25.367566      -690.2866
   1   2.0000     -25.366871      -690.2677
   2   2.0000     -25.365528      -690.2311
   3   2.0000     -19.831342      -539.6383
   4   2.0000     -15.009043      -408.4168
   5   2.0000     -10.780220      -293.3447
   6   2.0000     -10.780176      -293.3435
   7   2.0000     -10.767587      -293.0009
   8   2.0000     -10.763936      -292.9016
   9   2.0000     -10.736166      -292.1459
  10   2.0000     -10.730058      -291.9797
  11   2.0000     -10.730028      -291.9789
  12   2.0000     -10.725813      -291.8642
  13   2.0000     -10.715413      -291.5812
  14   2.0000     -10.715406      -291.5810
  15   2.0000     -10.710878      -291.4578
  16   2.0000     -10.710852      -291.4571
  17   2.0000     -10.706805      -291.3470
  18   2.0000     -10.705601      -291.3142
  19   2.0000     -10.704686      -291.2893
  20   2.0000     -10.703149      -291.2475
  21   2.0000     -10.703143      -291.2473
  22   2.0000     -10.698486      -291.1206
  23   2.0000     -10.698467      -291.1201
  24   2.0000     -10.693922      -290.9964
  25   2.0000     -10.692626      -290.9611
  26   2.0000     -10.692602      -290.9605
  27   2.0000     -10.692582      -290.9599
  28   2.0000     -10.681299      -290.6529
  29   2.0000     -10.680901      -290.6421
  30   2.0000     -10.661988      -290.1274
  31   2.0000      -7.219770      -196.4599
  32   2.0000      -1.413597       -38.4659
  33   2.0000      -1.368430       -37.2369
  34   2.0000      -1.365975       -37.1701
  35   2.0000      -1.300993       -35.4018
  36   2.0000      -1.248597       -33.9760
  37   2.0000      -1.111330       -30.2408
  38   2.0000      -1.096204       -29.8292
  39   2.0000      -1.076812       -29.3015
  40   2.0000      -1.063984       -28.9525
  41   2.0000      -1.031732       -28.0749
  42   2.0000      -0.985363       -26.8131
  43   2.0000      -0.970180       -26.3999
  44   2.0000      -0.967572       -26.3290
  45   2.0000      -0.960168       -26.1275
  46   2.0000      -0.946539       -25.7566
  47   2.0000      -0.939239       -25.5580
  48   2.0000      -0.932178       -25.3658
  49   2.0000      -0.884938       -24.0804
  50   2.0000      -0.863596       -23.4996
  51   2.0000      -0.838667       -22.8213
  52   2.0000      -0.824815       -22.4444
  53   2.0000      -0.799890       -21.7661
  54   2.0000      -0.786502       -21.4018
  55   2.0000      -0.774948       -21.0874
  56   2.0000      -0.774386       -21.0721
  57   2.0000      -0.749198       -20.3867
  58   2.0000      -0.731171       -19.8962
  59   2.0000      -0.728288       -19.8177
  60   2.0000      -0.708956       -19.2917
  61   2.0000      -0.705536       -19.1986
  62   2.0000      -0.684787       -18.6340
  63   2.0000      -0.672107       -18.2890
  64   2.0000      -0.661020       -17.9873
  65   2.0000      -0.648252       -17.6398
  66   2.0000      -0.637488       -17.3469
  67   2.0000      -0.636999       -17.3336
  68   2.0000      -0.633940       -17.2504
  69   2.0000      -0.631545       -17.1852
  70   2.0000      -0.627039       -17.0626
  71   2.0000      -0.621503       -16.9120
  72   2.0000      -0.605206       -16.4685
  73   2.0000      -0.598366       -16.2824
  74   2.0000      -0.598148       -16.2764
  75   2.0000      -0.591117       -16.0851
  76   2.0000      -0.590157       -16.0590
  77   2.0000      -0.589860       -16.0509
  78   2.0000      -0.581964       -15.8360
  79   2.0000      -0.581564       -15.8252
  80   2.0000      -0.574880       -15.6433
  81   2.0000      -0.556600       -15.1459
  82   2.0000      -0.555739       -15.1224
  83   2.0000      -0.554409       -15.0862
  84   2.0000      -0.550849       -14.9894
  85   2.0000      -0.541146       -14.7253
  86   2.0000      -0.530739       -14.4422
  87   2.0000      -0.528023       -14.3682
  88   2.0000      -0.525277       -14.2935
  89   2.0000      -0.522014       -14.2047
  90   2.0000      -0.521278       -14.1847
  91   2.0000      -0.519886       -14.1468
  92   2.0000      -0.507009       -13.7964
  93   2.0000      -0.506525       -13.7833
  94   2.0000      -0.503863       -13.7108
  95   2.0000      -0.496659       -13.5148
  96   2.0000      -0.488031       -13.2800
  97   2.0000      -0.478438       -13.0190
  98   2.0000      -0.478172       -13.0117
  99   2.0000      -0.463021       -12.5994
 100   2.0000      -0.461987       -12.5713
 101   2.0000      -0.459099       -12.4927
 102   2.0000      -0.432476       -11.7683
 103   2.0000      -0.419468       -11.4143
 104   2.0000      -0.384086       -10.4515
 105   2.0000      -0.364032        -9.9058
 106   2.0000      -0.357133        -9.7181
 107   2.0000      -0.348864        -9.4931
 108   2.0000      -0.346520        -9.4293
 109   2.0000      -0.333158        -9.0657
 110   2.0000      -0.319609        -8.6970
 111   0.0000      -0.034067        -0.9270
 112   0.0000       0.043904         1.1947
 113   0.0000       0.064312         1.7500
 114   0.0000       0.071012         1.9323
 115   0.0000       0.082760         2.2520

MULLIKEN ATOMIC CHARGES
-----------------------
   0 C :   -0.117956
   1 C :   -0.246224
   2 C :    0.179830
   3 C :    0.088058
   4 C :   -0.250772
   5 C :   -0.181632
   6 C :    0.300136
   7 C :    0.087585
   8 C :    0.179685
   9 C :   -0.246993
  10 H :    0.209096
  11 C :   -0.117107
  12 C :   -0.181140
  13 C :   -0.250100
  14 H :    0.197105
  15 H :    0.209381
  16 H :    0.219589
  17 H :    0.190954
  18 H :    0.197115
  19 H :    0.190872
  20 H :    0.219023
  21 N :    0.117023
  22 C :   -0.013366
  23 C :   -0.289649
  24 C :   -0.283702
  25 C :   -0.244512
  26 C :   -0.250852
  27 C :    0.006658
  28 H :    0.167273
  29 H :    0.194552
  30 C :   -0.045441
  31 C :   -0.234796
  32 C :   -0.208246
  33 C :   -0.231241
  34 H :    0.192883
  35 C :   -0.200504
  36 H :    0.189613
  37 C :    0.343087
  38 H :    0.195556
  39 H :    0.178064
  40 O :   -0.312031
  41 C :   -0.257811
  42 H :    0.169300
  43 H :    0.157687
  44 H :    0.157647
  45 H :    0.168814
  46 B :    0.622879
  47 F :   -0.452330
  48 F :   -0.452327
  49 F :   -0.455159
  50 H :    0.194426
Sum of atomic charges:    0.0000000

LOEWDIN ATOMIC CHARGES
----------------------
   0 C :   -0.082780
   1 C :   -0.104432
   2 C :   -0.058637
   3 C :   -0.055868
   4 C :   -0.061613
   5 C :   -0.132803
   6 C :    0.067579
   7 C :   -0.055964
   8 C :   -0.058813
   9 C :   -0.104475
  10 H :    0.173212
  11 C :   -0.082811
  12 C :   -0.132703
  13 C :   -0.061618
  14 H :    0.167087
  15 H :    0.173222
  16 H :    0.173868
  17 H :    0.162151
  18 H :    0.167092
  19 H :    0.162164
  20 H :    0.173914
  21 N :    0.356744
  22 C :   -0.115322
  23 C :   -0.098888
  24 C :   -0.098607
  25 C :   -0.109888
  26 C :   -0.111698
  27 C :   -0.056362
  28 H :    0.158061
  29 H :    0.164072
  30 C :   -0.179701
  31 C :   -0.088538
  32 C :   -0.091622
  33 C :   -0.129037
  34 H :    0.170183
  35 C :   -0.112884
  36 H :    0.169778
  37 C :   -0.240604
  38 H :    0.165214
  39 H :    0.162090
  40 O :    0.214517
  41 C :   -0.308378
  42 H :    0.120184
  43 H :    0.116442
  44 H :    0.116447
  45 H :    0.159365
  46 B :   -1.267341
  47 F :    0.121367
  48 F :    0.106003
  49 F :    0.116527
  50 H :    0.164104

  Mayer bond orders larger than 0.100000
B(  0-C ,  1-C ) :   1.5488 B(  0-C ,  5-C ) :   1.2264 B(  0-C , 14-H ) :   0.9624
B(  1-C ,  2-C ) :   1.2282 B(  1-C , 15-H ) :   0.9590 B(  2-C ,  3-C ) :   1.2832
B(  2-C , 21-N ) :   1.2294 B(  3-C ,  4-C ) :   1.1865 B(  3-C ,  6-C ) :   1.1988
B(  4-C ,  5-C ) :   1.6070 B(  4-C , 16-H ) :   0.9421 B(  5-C , 17-H ) :   0.9720
B(  6-C ,  7-C ) :   1.1979 B(  6-C , 22-C ) :   0.8610 B(  7-C ,  8-C ) :   1.2825
B(  7-C , 13-C ) :   1.1858 B(  8-C ,  9-C ) :   1.2278 B(  8-C , 21-N ) :   1.2292
B(  9-C , 10-H ) :   0.9593 B(  9-C , 11-C ) :   1.5490 B( 11-C , 12-C ) :   1.2263
B( 11-C , 18-H ) :   0.9623 B( 12-C , 13-C ) :   1.6063 B( 12-C , 19-H ) :   0.9722
B( 13-C , 20-H ) :   0.9425 B( 21-N , 30-C ) :   0.7043 B( 22-C , 23-C ) :   1.3336
B( 22-C , 24-C ) :   1.3416 B( 23-C , 25-C ) :   1.4395 B( 23-C , 50-H ) :   0.9853
B( 24-C , 26-C ) :   1.4336 B( 24-C , 29-H ) :   0.9869 B( 25-C , 27-C ) :   1.3655
B( 25-C , 45-H ) :   0.9753 B( 26-C , 27-C ) :   1.3764 B( 26-C , 28-H ) :   0.9720
B( 27-C , 46-B ) :   0.9320 B( 30-C , 31-C ) :   1.5020 B( 30-C , 32-C ) :   1.4473
B( 31-C , 33-C ) :   1.3730 B( 31-C , 34-H ) :   0.9629 B( 32-C , 35-C ) :   1.4569
B( 32-C , 36-H ) :   0.9784 B( 33-C , 37-C ) :   1.3139 B( 33-C , 38-H ) :   0.9588
B( 35-C , 37-C ) :   1.3324 B( 35-C , 39-H ) :   0.9788 B( 37-C , 40-O ) :   1.1379
B( 40-O , 41-C ) :   0.8837 B( 41-C , 42-H ) :   0.9721 B( 41-C , 43-H ) :   0.9695
B( 41-C , 44-H ) :   0.9695 B( 46-B , 47-F ) :   0.8872 B( 46-B , 48-F ) :   0.8984
B( 46-B , 49-F ) :   0.8859

MP2 TOTAL ENERGY:    -1454.664515250 Eh

-----------------------------------------------------------------------------
         ABSORPTION SPECTRUM VIA TRANSITION ELECTRIC DIPOLE MOMENTS
-----------------------------------------------------------------------------
State   Energy    Wavelength  fosc         T2        TX        TY        TZ
        (cm-1)      (nm)                 (au**2)    (au)      (au)      (au)
-----------------------------------------------------------------------------
   1   25971.9    385.0   0.343953447   4.35984  -2.08782  -0.00968  -0.02757
   2   31300.9    319.5   0.342041021   3.59747   0.01187  -1.89556  -0.06472
   3   32850.6    304.4   0.110959870   1.11198   1.05431   0.00479   0.01978
   4   35267.5    283.5   0.096825172   0.90383   0.01074  -0.95055  -0.01292
   5   36160.4    276.5   0.029553891   0.26906   0.06881   0.43115   0.28007
   6   34913.4    286.4   0.010590058   0.09986  -0.13360   0.25475   0.13080
   7   40849.8    244.8   0.034672280   0.27943   0.06628  -0.02244  -0.52396
   8   42545.0    235.0   1.288012188   9.96660  -0.01168   3.15552   0.09576
   9   43723.2    228.7   0.014390434   0.10835   0.03002  -0.26728  -0.18977
  10   47369.3    211.1   0.145530027   1.01142   0.98681  -0.00148  -0.19399
  11   48473.8    206.3   0.007281144   0.04945  -0.21882  -0.02913  -0.02683
  12   43895.3    227.8   0.051638829   0.38729   0.06490  -0.61113   0.09795
  13   48728.0    205.2   0.084863077   0.57334  -0.75431  -0.02224  -0.06214
  14   47786.0    209.3   0.110903477   0.76405   0.87202  -0.01242   0.05897
  15   48077.6    208.0   0.021581770   0.14778   0.02674   0.29432  -0.24585
  16   50186.4    199.3   0.008680936   0.05695  -0.23839  -0.00797   0.00707
  17   47955.0    208.5   0.004187536   0.02875   0.01575   0.08475  -0.14601
  18   52133.6    191.8   0.959882905   6.06144  -2.46182  -0.02969  -0.00068
  19   53394.2    187.3   1.698767283  10.47406   3.23347   0.02054   0.13537
  20   53629.4    186.5   0.372942092   2.28936   0.05026  -0.93148   1.19129
  21   53895.6    185.5   0.456895776   2.79087  -0.35796   0.01957   1.63167
  22   54206.5    184.5   0.095808925   0.58188   0.75085  -0.02456   0.13225
  23   52989.8    188.7   0.018802779   0.11682  -0.10083  -0.32609  -0.01770
  24   52719.7    189.7   0.031767746   0.19838   0.09685  -0.02190  -0.43418
  25   53535.0    186.8   0.000259829   0.00160  -0.03298  -0.00071   0.02257
  26   52403.5    190.8   0.065683553   0.41264  -0.03373   0.06915  -0.63775
  27   54737.7    182.7   0.006468370   0.03890   0.04748   0.19030   0.02088
  28   55168.1    181.3   0.219283629   1.30856   0.01519  -1.14322   0.03714
  29   54974.5    181.9   0.000187100   0.00112   0.02667  -0.01721   0.01064
  30   56353.1    177.5   0.003815042   0.02229   0.04484   0.13127  -0.05517

FINAL SINGLE POINT ENERGY     -1452.970314210493

DIPOLE MOMENT
-------------
                                X             Y             Z
Electronic contribution:     44.74604      -0.11953      -1.83776
Nuclear contribution   :    -59.85722       0.20415       2.26466
                        -----------------------------------------
Total Dipole Moment    :    -15.11117       0.08462       0.42690
                        -----------------------------------------
Magnitude (a.u.)       :     15.11744
Magnitude (Debye)      :     38.42548

Rotational constants in cm-1:     0.012130     0.001892     0.001710
Rotational constants in MHz :   363.659825    56.710211    51.257227

                             ****ORCA TERMINATED NORMALLY****
TOTAL RUN TIME: 0 days 2 hours 2 minutes 56 seconds 894 msec
