                         Program Version 5.0.2 -  RELEASE  -
|  1> %maxcore 3200
|  2> %pal
|  3>  nprocs= 8
|  4> end
|  5> ! RI-B2PLYP D3BJ def2-TZVP def2/J def2-TZVP/C RIJCOSX CPCM TightSCF
|  6> %TDDFT DCORR 4
|  7>    NROOTS   30
|  8>
|  9>    TDA      FALSE
| 10> END
| 11>
| 12> %CPCM
| 13>    SMD          TRUE
| 14>    SMDsolvent   "ACETONITRILE"
| 15> END
| 16>
| 17>
| 18> * xyz 0 1
| 19> C                  -1.33517900    3.59951500    0.01496600
| 20> C                  -1.99941600    2.40569100   -0.06161400
| 21> C                  -1.27852900    1.19839100   -0.05656400
| 22> C                   0.14681400    1.22248100   -0.00378800
| 23> C                   0.78287200    2.48471500    0.11273800
| 24> C                   0.06482600    3.64387900    0.11890300
| 25> C                   0.87039300    0.01271300   -0.03377000
| 26> C                   0.16140500   -1.20443600   -0.09601700
| 27> C                  -1.26500900   -1.19505800   -0.10071500
| 28> C                  -1.97286100   -2.40970700   -0.12793000
| 29> H                  -3.05211800   -2.40114300   -0.11061500
| 30> C                  -1.29378600   -3.59640200   -0.18090600
| 31> C                   0.10968600   -3.62619400   -0.22761800
| 32> C                   0.81490700   -2.45972300   -0.18912700
| 33> H                  -1.90341100    4.52055100    0.01020300
| 34> H                  -3.07689300    2.38605600   -0.12303900
| 35> H                   1.85800200    2.51440200    0.20994300
| 36> H                   0.56938500    4.59585900    0.21170600
| 37> H                  -1.85221400   -4.52318100   -0.20235400
| 38> H                   0.62740400   -4.57268200   -0.30223200
| 39> H                   1.89343600   -2.47802700   -0.24240000
| 40> N                  -1.93575900   -0.00191000   -0.08975100
| 41> C                   2.34016300    0.01909200   -0.00022100
| 42> C                   3.03378200   -0.63478900    1.02206500
| 43> C                   3.07600300    0.67822300   -0.98770700
| 44> C                   4.41729100   -0.61163300    1.05294000
| 45> C                   4.46058100    0.66574600   -0.95363000
| 46> C                   5.17266500    0.02959800    0.06609100
| 47> H                   5.00464300    1.17230600   -1.74368700
| 48> H                   2.55250900    1.18188800   -1.79213400
| 49> C                  -3.38215200   -0.00910800   -0.11245000
| 50> C                  -4.08300000    0.01602500    1.07835000
| 51> C                  -4.04762200   -0.03955400   -1.33022100
| 52> C                  -5.46937200    0.01138600    1.06517500
| 53> H                  -3.54605200    0.03998200    2.01828600
| 54> C                  -5.42627000   -0.04411500   -1.35017500
| 55> H                  -3.48259400   -0.05934600   -2.25346900
| 56> C                  -6.14715000   -0.01833900   -0.15319800
| 57> H                  -6.01021200    0.03110300    2.00014500
| 58> H                  -5.96618700   -0.06701500   -2.28747400
| 59> O                  -7.48941500   -0.02427900   -0.27426500
| 60> C                  -8.25978000    0.00391500    0.91824300
| 61> H                  -9.30015500   -0.00518900    0.60609500
| 62> H                  -8.06384600   -0.87126300    1.54134300
| 63> H                  -8.06624400    0.90924100    1.49749300
| 64> H                   4.92649100   -1.10906800    1.87219600
| 65> B                   6.78084300   -0.00531600    0.09357000
| 66> F                   7.34166600    1.03029900   -0.69206700
| 67> F                   7.26987200   -1.24050000   -0.41765900
| 68> F                   7.28020500    0.12750000    1.41408500
| 69> H                   2.47622100   -1.13985700    1.80237700
| 70> *
| 71>
| 72>
| 73>                          ****END OF INPUT****

CARTESIAN COORDINATES (ANGSTROEM)
---------------------------------
  C     -1.335179    3.599515    0.014966
  C     -1.999416    2.405691   -0.061614
  C     -1.278529    1.198391   -0.056564
  C      0.146814    1.222481   -0.003788
  C      0.782872    2.484715    0.112738
  C      0.064826    3.643879    0.118903
  C      0.870393    0.012713   -0.033770
  C      0.161405   -1.204436   -0.096017
  C     -1.265009   -1.195058   -0.100715
  C     -1.972861   -2.409707   -0.127930
  H     -3.052118   -2.401143   -0.110615
  C     -1.293786   -3.596402   -0.180906
  C      0.109686   -3.626194   -0.227618
  C      0.814907   -2.459723   -0.189127
  H     -1.903411    4.520551    0.010203
  H     -3.076893    2.386056   -0.123039
  H      1.858002    2.514402    0.209943
  H      0.569385    4.595859    0.211706
  H     -1.852214   -4.523181   -0.202354
  H      0.627404   -4.572682   -0.302232
  H      1.893436   -2.478027   -0.242400
  N     -1.935759   -0.001910   -0.089751
  C      2.340163    0.019092   -0.000221
  C      3.033782   -0.634789    1.022065
  C      3.076003    0.678223   -0.987707
  C      4.417291   -0.611633    1.052940
  C      4.460581    0.665746   -0.953630
  C      5.172665    0.029598    0.066091
  H      5.004643    1.172306   -1.743687
  H      2.552509    1.181888   -1.792134
  C     -3.382152   -0.009108   -0.112450
  C     -4.083000    0.016025    1.078350
  C     -4.047622   -0.039554   -1.330221
  C     -5.469372    0.011386    1.065175
  H     -3.546052    0.039982    2.018286
  C     -5.426270   -0.044115   -1.350175
  H     -3.482594   -0.059346   -2.253469
  C     -6.147150   -0.018339   -0.153198
  H     -6.010212    0.031103    2.000145
  H     -5.966187   -0.067015   -2.287474
  O     -7.489415   -0.024279   -0.274265
  C     -8.259780    0.003915    0.918243
  H     -9.300155   -0.005189    0.606095
  H     -8.063846   -0.871263    1.541343
  H     -8.066244    0.909241    1.497493
  H      4.926491   -1.109068    1.872196
  B      6.780843   -0.005316    0.093570
  F      7.341666    1.030299   -0.692067
  F      7.269872   -1.240500   -0.417659
  F      7.280205    0.127500    1.414085
  H      2.476221   -1.139857    1.802377

 Total Charge           Charge          ....    0
 Multiplicity           Mult            ....    1
 Number of Electrons    NEL             ....  222
 Basis Dimension        Dim             .... 1106

ORBITAL ENERGIES
----------------

  NO   OCC          E(Eh)            E(eV)
   0   2.0000     -25.292132      -688.2339
   1   2.0000     -25.291501      -688.2167
   2   2.0000     -25.290342      -688.1852
   3   2.0000     -19.759078      -537.6719
   4   2.0000     -14.936122      -406.4325
   5   2.0000     -10.705276      -291.3054
   6   2.0000     -10.705238      -291.3043
   7   2.0000     -10.690635      -290.9070
   8   2.0000     -10.690219      -290.8957
   9   2.0000     -10.664261      -290.1893
  10   2.0000     -10.658368      -290.0289
  11   2.0000     -10.658337      -290.0281
  12   2.0000     -10.656096      -289.9671
  13   2.0000     -10.642394      -289.5943
  14   2.0000     -10.642390      -289.5942
  15   2.0000     -10.637988      -289.4744
  16   2.0000     -10.637961      -289.4736
  17   2.0000     -10.634129      -289.3694
  18   2.0000     -10.633174      -289.3434
  19   2.0000     -10.632386      -289.3219
  20   2.0000     -10.632190      -289.3166
  21   2.0000     -10.632183      -289.3164
  22   2.0000     -10.627832      -289.1980
  23   2.0000     -10.627814      -289.1975
  24   2.0000     -10.622546      -289.0542
  25   2.0000     -10.621361      -289.0219
  26   2.0000     -10.620074      -288.9869
  27   2.0000     -10.620024      -288.9856
  28   2.0000     -10.609431      -288.6973
  29   2.0000     -10.609043      -288.6867
  30   2.0000     -10.589193      -288.1466
  31   2.0000      -7.149937      -194.5597
  32   2.0000      -1.331215       -36.2242
  33   2.0000      -1.287483       -35.0342
  34   2.0000      -1.285148       -34.9706
  35   2.0000      -1.219280       -33.1783
  36   2.0000      -1.163699       -31.6659
  37   2.0000      -1.025714       -27.9111
  38   2.0000      -1.011383       -27.5211
  39   2.0000      -0.992368       -27.0037
  40   2.0000      -0.979920       -26.6650
  41   2.0000      -0.948018       -25.7969
  42   2.0000      -0.903644       -24.5894
  43   2.0000      -0.888860       -24.1871
  44   2.0000      -0.886251       -24.1161
  45   2.0000      -0.878985       -23.9184
  46   2.0000      -0.865601       -23.5542
  47   2.0000      -0.858007       -23.3476
  48   2.0000      -0.852069       -23.1860
  49   2.0000      -0.806296       -21.9404
  50   2.0000      -0.785289       -21.3688
  51   2.0000      -0.761397       -20.7187
  52   2.0000      -0.747165       -20.3314
  53   2.0000      -0.723317       -19.6825
  54   2.0000      -0.710526       -19.3344
  55   2.0000      -0.699019       -19.0213
  56   2.0000      -0.698066       -18.9953
  57   2.0000      -0.674201       -18.3459
  58   2.0000      -0.655903       -17.8480
  59   2.0000      -0.654247       -17.8030
  60   2.0000      -0.634919       -17.2770
  61   2.0000      -0.627899       -17.0860
  62   2.0000      -0.611797       -16.6478
  63   2.0000      -0.598568       -16.2879
  64   2.0000      -0.587239       -15.9796
  65   2.0000      -0.577837       -15.7237
  66   2.0000      -0.563727       -15.3398
  67   2.0000      -0.562048       -15.2941
  68   2.0000      -0.559513       -15.2251
  69   2.0000      -0.557844       -15.1797
  70   2.0000      -0.555807       -15.1243
  71   2.0000      -0.547999       -14.9118
  72   2.0000      -0.531655       -14.4671
  73   2.0000      -0.529227       -14.4010
  74   2.0000      -0.527850       -14.3635
  75   2.0000      -0.521009       -14.1774
  76   2.0000      -0.520588       -14.1659
  77   2.0000      -0.520148       -14.1539
  78   2.0000      -0.511950       -13.9309
  79   2.0000      -0.511539       -13.9197
  80   2.0000      -0.506574       -13.7846
  81   2.0000      -0.486735       -13.2447
  82   2.0000      -0.483795       -13.1647
  83   2.0000      -0.481999       -13.1158
  84   2.0000      -0.479689       -13.0530
  85   2.0000      -0.475095       -12.9280
  86   2.0000      -0.463772       -12.6199
  87   2.0000      -0.461023       -12.5451
  88   2.0000      -0.453010       -12.3270
  89   2.0000      -0.450916       -12.2700
  90   2.0000      -0.450014       -12.2455
  91   2.0000      -0.447136       -12.1672
  92   2.0000      -0.440136       -11.9767
  93   2.0000      -0.437444       -11.9035
  94   2.0000      -0.433602       -11.7989
  95   2.0000      -0.431846       -11.7511
  96   2.0000      -0.420217       -11.4347
  97   2.0000      -0.414404       -11.2765
  98   2.0000      -0.411033       -11.1848
  99   2.0000      -0.399016       -10.8578
 100   2.0000      -0.397638       -10.8203
 101   2.0000      -0.392689       -10.6856
 102   2.0000      -0.369898       -10.0654
 103   2.0000      -0.353930        -9.6309
 104   2.0000      -0.324953        -8.8424
 105   2.0000      -0.306585        -8.3426
 106   2.0000      -0.304214        -8.2781
 107   2.0000      -0.292027        -7.9465
 108   2.0000      -0.289764        -7.8849
 109   2.0000      -0.276632        -7.5275
 110   2.0000      -0.267290        -7.2733
 111   0.0000      -0.070174        -1.9095
 112   0.0000       0.004163         0.1133
 113   0.0000       0.022388         0.6092
 114   0.0000       0.028920         0.7870
 115   0.0000       0.039591         1.0773

MULLIKEN ATOMIC CHARGES
-----------------------
   0 C :   -0.102913
   1 C :   -0.226090
   2 C :    0.169859
   3 C :    0.105097
   4 C :   -0.257144
   5 C :   -0.155548
   6 C :    0.309838
   7 C :    0.104294
   8 C :    0.169978
   9 C :   -0.226964
  10 H :    0.184918
  11 C :   -0.102116
  12 C :   -0.155362
  13 C :   -0.255954
  14 H :    0.174865
  15 H :    0.185147
  16 H :    0.195247
  17 H :    0.169443
  18 H :    0.174877
  19 H :    0.169394
  20 H :    0.194701
  21 N :    0.136908
  22 C :    0.041963
  23 C :   -0.286903
  24 C :   -0.279206
  25 C :   -0.237708
  26 C :   -0.242396
  27 C :    0.010565
  28 H :    0.143793
  29 H :    0.166239
  30 C :    0.064118
  31 C :   -0.241315
  32 C :   -0.216701
  33 C :   -0.229404
  34 H :    0.168267
  35 C :   -0.192031
  36 H :    0.164588
  37 C :    0.371864
  38 H :    0.171259
  39 H :    0.152927
  40 O :   -0.328560
  41 C :   -0.195156
  42 H :    0.152781
  43 H :    0.139784
  44 H :    0.139742
  45 H :    0.145015
  46 B :    0.702304
  47 F :   -0.470179
  48 F :   -0.470880
  49 F :   -0.473338
  50 H :    0.166091
Sum of atomic charges:    0.0000000

LOEWDIN ATOMIC CHARGES
----------------------
   0 C :   -0.083561
   1 C :   -0.098160
   2 C :   -0.060698
   3 C :   -0.050928
   4 C :   -0.060365
   5 C :   -0.126568
   6 C :    0.061076
   7 C :   -0.051020
   8 C :   -0.060866
   9 C :   -0.098204
  10 H :    0.169714
  11 C :   -0.083590
  12 C :   -0.126473
  13 C :   -0.060366
  14 H :    0.162536
  15 H :    0.169727
  16 H :    0.169877
  17 H :    0.158319
  18 H :    0.162543
  19 H :    0.158332
  20 H :    0.169921
  21 N :    0.358201
  22 C :   -0.110989
  23 C :   -0.096635
  24 C :   -0.096396
  25 C :   -0.106803
  26 C :   -0.108655
  27 C :   -0.054144
  28 H :    0.153915
  29 H :    0.159443
  30 C :   -0.173170
  31 C :   -0.087085
  32 C :   -0.089927
  33 C :   -0.124829
  34 H :    0.165568
  35 C :   -0.108878
  36 H :    0.165232
  37 C :   -0.238859
  38 H :    0.161494
  39 H :    0.157940
  40 O :    0.215518
  41 C :   -0.297833
  42 H :    0.116457
  43 H :    0.112726
  44 H :    0.112729
  45 H :    0.155092
  46 B :   -1.250152
  47 F :    0.116458
  48 F :    0.101232
  49 F :    0.111627
  50 H :    0.159480

  Mayer bond orders larger than 0.100000
B(  0-C ,  1-C ) :   1.5226 B(  0-C ,  5-C ) :   1.2290 B(  0-C , 14-H ) :   0.9709
B(  1-C ,  2-C ) :   1.2483 B(  1-C , 15-H ) :   0.9677 B(  2-C ,  3-C ) :   1.2600
B(  2-C , 21-N ) :   1.2282 B(  3-C ,  4-C ) :   1.1942 B(  3-C ,  6-C ) :   1.1787
B(  4-C ,  5-C ) :   1.5816 B(  4-C , 16-H ) :   0.9576 B(  5-C , 17-H ) :   0.9813
B(  6-C ,  7-C ) :   1.1781 B(  6-C , 22-C ) :   0.8562 B(  7-C ,  8-C ) :   1.2595
B(  7-C , 13-C ) :   1.1937 B(  8-C ,  9-C ) :   1.2479 B(  8-C , 21-N ) :   1.2279
B(  9-C , 10-H ) :   0.9679 B(  9-C , 11-C ) :   1.5228 B( 11-C , 12-C ) :   1.2289
B( 11-C , 18-H ) :   0.9708 B( 12-C , 13-C ) :   1.5811 B( 12-C , 19-H ) :   0.9814
B( 13-C , 20-H ) :   0.9580 B( 21-N , 30-C ) :   0.6965 B( 22-C , 23-C ) :   1.3310
B( 22-C , 24-C ) :   1.3379 B( 23-C , 25-C ) :   1.4256 B( 23-C , 50-H ) :   0.9989
B( 24-C , 26-C ) :   1.4179 B( 24-C , 29-H ) :   1.0004 B( 25-C , 27-C ) :   1.3597
B( 25-C , 45-H ) :   0.9888 B( 26-C , 27-C ) :   1.3709 B( 26-C , 28-H ) :   0.9859
B( 27-C , 46-B ) :   0.9092 B( 30-C , 31-C ) :   1.4986 B( 30-C , 32-C ) :   1.4467
B( 31-C , 33-C ) :   1.3684 B( 31-C , 34-H ) :   0.9752 B( 32-C , 35-C ) :   1.4497
B( 32-C , 36-H ) :   0.9915 B( 33-C , 37-C ) :   1.3053 B( 33-C , 38-H ) :   0.9710
B( 35-C , 37-C ) :   1.3212 B( 35-C , 39-H ) :   0.9941 B( 37-C , 40-O ) :   1.1255
B( 40-O , 41-C ) :   0.8864 B( 41-C , 42-H ) :   0.9730 B( 41-C , 43-H ) :   0.9706
B( 41-C , 44-H ) :   0.9706 B( 46-B , 47-F ) :   0.8597 B( 46-B , 48-F ) :   0.8709
B( 46-B , 49-F ) :   0.8579

MP2 TOTAL ENERGY:    -1456.184634733 Eh

-----------------------------------------------------------------------------
         ABSORPTION SPECTRUM VIA TRANSITION ELECTRIC DIPOLE MOMENTS
-----------------------------------------------------------------------------
State   Energy    Wavelength  fosc         T2        TX        TY        TZ
        (cm-1)      (nm)                 (au**2)    (au)      (au)      (au)
-----------------------------------------------------------------------------
   1   22969.7    435.4   0.284931946   4.08377   2.02062   0.00939   0.02763
   2   26827.3    372.8   0.059602971   0.73142   0.85466   0.02555   0.01794
   3   24732.0    404.3   0.004374020   0.05822   0.19277  -0.14502  -0.00583
   4   29235.1    342.1   0.285712778   3.21737  -0.01403   1.79360   0.01271
   5   28526.3    350.6   0.019065151   0.22002  -0.02302  -0.43861  -0.16466
   6   31568.9    316.8   0.035525214   0.37047   0.00728  -0.58790  -0.15746
   7   33571.4    297.9   0.026999370   0.26476   0.00432   0.51098   0.06034
   8   38580.2    259.2   0.307093585   2.62048  -0.06176   1.52313   0.54473
   9   38703.3    258.4   0.897907404   7.63763  -0.01477  -2.75975   0.14549
  10   41284.1    242.2   0.004890209   0.03900  -0.03752   0.18344   0.06276
  11   44574.6    224.3   0.182997124   1.35155  -1.15935  -0.03611   0.07849
  12   44714.1    223.6   0.052993265   0.39017  -0.36864   0.50192   0.04845
  13   44049.0    227.0   0.059205055   0.44248  -0.21808  -0.58342   0.23356
  14   42630.7    234.6   0.027668498   0.21367   0.46147   0.01742  -0.02032
  15   37954.6    263.5   0.001864516   0.01617  -0.03768   0.11820   0.02794
  16   47284.7    211.5   0.038070223   0.26506   0.50879  -0.00907   0.07813
  17   41091.8    243.4   0.000381838   0.00306  -0.01448   0.03216  -0.04260
  18   45670.2    219.0   0.008496713   0.06125   0.24234   0.01756   0.04702
  19   42979.4    232.7   0.044813520   0.34326  -0.03990   0.56690   0.14245
  20   46745.6    213.9   0.583817580   4.11161   2.02645   0.07146  -0.00346
  21   46546.4    214.8   0.080560262   0.56978  -0.65499   0.32035  -0.19532
  22   45843.0    218.1   0.036540130   0.26241  -0.37064  -0.29956   0.18787
  23   45392.1    220.3   0.002950980   0.02140   0.03529  -0.14135   0.01332
  24   47129.0    212.2   0.154448959   1.07888  -0.71795  -0.55781   0.50227
  25   49742.4    201.0   1.501486906   9.93734   3.14376  -0.10491   0.20766
  26   49998.7    200.0   0.167428711   1.10242  -0.04813  -0.39839   0.97025
  27   48219.3    207.4   0.064747783   0.44206   0.65715  -0.00752  -0.10075
  28   48689.7    205.4   0.205292807   1.38807  -0.41578   0.19491   1.08499
  29   49742.1    201.0   0.163196051   1.08009  -1.00537  -0.00660  -0.26323
  30   49799.6    200.8   0.123944767   0.81937   0.07813   0.84647  -0.31105

Dispersion correction           -0.061111124
FINAL SINGLE POINT ENERGY     -1454.402387114140

DIPOLE MOMENT
-------------
                                X             Y             Z
Electronic contribution:     44.74016      -0.12116      -1.85393
Nuclear contribution   :    -59.85722       0.20415       2.26466
                        -----------------------------------------
Total Dipole Moment    :    -15.11706       0.08299       0.41073
                        -----------------------------------------
Magnitude (a.u.)       :     15.12286
Magnitude (Debye)      :     38.43926

Rotational constants in cm-1:     0.012130     0.001892     0.001710
Rotational constants in MHz :   363.659825    56.710211    51.257227

                             ****ORCA TERMINATED NORMALLY****
TOTAL RUN TIME: 0 days 2 hours 0 minutes 36 seconds 909 msec
