                         Program Version 5.0.2 -  RELEASE  -
|  1> %maxcore 38400
|  2> %pal
|  3>  nprocs= 4
|  4> end
|  5> !STEOM-DLPNO-CCSD DEF2-TZVP DEF2-TZVP/C def2/J TightSCF TightPNO CPCM
|  6> %MDCI
|  7>    Dorootwise true
|  8>    OTHRESH 0.005
|  9>    VTHRESH 0.005
| 10>    TCutPNOSingles 1e-11
| 11>    DTol 1e-5
| 12>    NROOTS  25
| 13>    DOSOLV  TRUE
| 14>    MAXITER 500
| 15> END
| 16> %CPCM
| 17>    SMD          TRUE
| 18>    SMDsolvent   "ACETONITRILE"
| 19> END
| 20>
| 21>
| 22> * xyz 0 1
| 23> C                  -1.33517900    3.59951500    0.01496600
| 24> C                  -1.99941600    2.40569100   -0.06161400
| 25> C                  -1.27852900    1.19839100   -0.05656400
| 26> C                   0.14681400    1.22248100   -0.00378800
| 27> C                   0.78287200    2.48471500    0.11273800
| 28> C                   0.06482600    3.64387900    0.11890300
| 29> C                   0.87039300    0.01271300   -0.03377000
| 30> C                   0.16140500   -1.20443600   -0.09601700
| 31> C                  -1.26500900   -1.19505800   -0.10071500
| 32> C                  -1.97286100   -2.40970700   -0.12793000
| 33> H                  -3.05211800   -2.40114300   -0.11061500
| 34> C                  -1.29378600   -3.59640200   -0.18090600
| 35> C                   0.10968600   -3.62619400   -0.22761800
| 36> C                   0.81490700   -2.45972300   -0.18912700
| 37> H                  -1.90341100    4.52055100    0.01020300
| 38> H                  -3.07689300    2.38605600   -0.12303900
| 39> H                   1.85800200    2.51440200    0.20994300
| 40> H                   0.56938500    4.59585900    0.21170600
| 41> H                  -1.85221400   -4.52318100   -0.20235400
| 42> H                   0.62740400   -4.57268200   -0.30223200
| 43> H                   1.89343600   -2.47802700   -0.24240000
| 44> N                  -1.93575900   -0.00191000   -0.08975100
| 45> C                   2.34016300    0.01909200   -0.00022100
| 46> C                   3.03378200   -0.63478900    1.02206500
| 47> C                   3.07600300    0.67822300   -0.98770700
| 48> C                   4.41729100   -0.61163300    1.05294000
| 49> C                   4.46058100    0.66574600   -0.95363000
| 50> C                   5.17266500    0.02959800    0.06609100
| 51> H                   5.00464300    1.17230600   -1.74368700
| 52> H                   2.55250900    1.18188800   -1.79213400
| 53> C                  -3.38215200   -0.00910800   -0.11245000
| 54> C                  -4.08300000    0.01602500    1.07835000
| 55> C                  -4.04762200   -0.03955400   -1.33022100
| 56> C                  -5.46937200    0.01138600    1.06517500
| 57> H                  -3.54605200    0.03998200    2.01828600
| 58> C                  -5.42627000   -0.04411500   -1.35017500
| 59> H                  -3.48259400   -0.05934600   -2.25346900
| 60> C                  -6.14715000   -0.01833900   -0.15319800
| 61> H                  -6.01021200    0.03110300    2.00014500
| 62> H                  -5.96618700   -0.06701500   -2.28747400
| 63> O                  -7.48941500   -0.02427900   -0.27426500
| 64> C                  -8.25978000    0.00391500    0.91824300
| 65> H                  -9.30015500   -0.00518900    0.60609500
| 66> H                  -8.06384600   -0.87126300    1.54134300
| 67> H                  -8.06624400    0.90924100    1.49749300
| 68> H                   4.92649100   -1.10906800    1.87219600
| 69> B                   6.78084300   -0.00531600    0.09357000
| 70> F                   7.34166600    1.03029900   -0.69206700
| 71> F                   7.26987200   -1.24050000   -0.41765900
| 72> F                   7.28020500    0.12750000    1.41408500
| 73> H                   2.47622100   -1.13985700    1.80237700
| 74> *
| 75>
| 76>
| 77>                          ****END OF INPUT****

CARTESIAN COORDINATES (ANGSTROEM)
---------------------------------
  C     -1.335179    3.599515    0.014966
  C     -1.999416    2.405691   -0.061614
  C     -1.278529    1.198391   -0.056564
  C      0.146814    1.222481   -0.003788
  C      0.782872    2.484715    0.112738
  C      0.064826    3.643879    0.118903
  C      0.870393    0.012713   -0.033770
  C      0.161405   -1.204436   -0.096017
  C     -1.265009   -1.195058   -0.100715
  C     -1.972861   -2.409707   -0.127930
  H     -3.052118   -2.401143   -0.110615
  C     -1.293786   -3.596402   -0.180906
  C      0.109686   -3.626194   -0.227618
  C      0.814907   -2.459723   -0.189127
  H     -1.903411    4.520551    0.010203
  H     -3.076893    2.386056   -0.123039
  H      1.858002    2.514402    0.209943
  H      0.569385    4.595859    0.211706
  H     -1.852214   -4.523181   -0.202354
  H      0.627404   -4.572682   -0.302232
  H      1.893436   -2.478027   -0.242400
  N     -1.935759   -0.001910   -0.089751
  C      2.340163    0.019092   -0.000221
  C      3.033782   -0.634789    1.022065
  C      3.076003    0.678223   -0.987707
  C      4.417291   -0.611633    1.052940
  C      4.460581    0.665746   -0.953630
  C      5.172665    0.029598    0.066091
  H      5.004643    1.172306   -1.743687
  H      2.552509    1.181888   -1.792134
  C     -3.382152   -0.009108   -0.112450
  C     -4.083000    0.016025    1.078350
  C     -4.047622   -0.039554   -1.330221
  C     -5.469372    0.011386    1.065175
  H     -3.546052    0.039982    2.018286
  C     -5.426270   -0.044115   -1.350175
  H     -3.482594   -0.059346   -2.253469
  C     -6.147150   -0.018339   -0.153198
  H     -6.010212    0.031103    2.000145
  H     -5.966187   -0.067015   -2.287474
  O     -7.489415   -0.024279   -0.274265
  C     -8.259780    0.003915    0.918243
  H     -9.300155   -0.005189    0.606095
  H     -8.063846   -0.871263    1.541343
  H     -8.066244    0.909241    1.497493
  H      4.926491   -1.109068    1.872196
  B      6.780843   -0.005316    0.093570
  F      7.341666    1.030299   -0.692067
  F      7.269872   -1.240500   -0.417659
  F      7.280205    0.127500    1.414085
  H      2.476221   -1.139857    1.802377

 Total Charge           Charge          ....    0
 Multiplicity           Mult            ....    1
 Number of Electrons    NEL             ....  222
 Basis Dimension        Dim             .... 1106

ORBITAL ENERGIES
----------------

  NO   OCC          E(Eh)            E(eV)
   0   2.0000     -26.229511      -713.7413
   1   2.0000     -26.228837      -713.7229
   2   2.0000     -26.227376      -713.6832
   3   2.0000     -20.587367      -560.2107
   4   2.0000     -15.656874      -426.0452
   5   2.0000     -11.327270      -308.2307
   6   2.0000     -11.327221      -308.2294
   7   2.0000     -11.316870      -307.9477
   8   2.0000     -11.308990      -307.7333
   9   2.0000     -11.276413      -306.8468
  10   2.0000     -11.270675      -306.6907
  11   2.0000     -11.268827      -306.6404
  12   2.0000     -11.268789      -306.6393
  13   2.0000     -11.261433      -306.4392
  14   2.0000     -11.261426      -306.4390
  15   2.0000     -11.255987      -306.2910
  16   2.0000     -11.255959      -306.2902
  17   2.0000     -11.248984      -306.1004
  18   2.0000     -11.248510      -306.0875
  19   2.0000     -11.248030      -306.0745
  20   2.0000     -11.242388      -305.9209
  21   2.0000     -11.242387      -305.9209
  22   2.0000     -11.238516      -305.8156
  23   2.0000     -11.238493      -305.8149
  24   2.0000     -11.236706      -305.7663
  25   2.0000     -11.236631      -305.7643
  26   2.0000     -11.234523      -305.7069
  27   2.0000     -11.233274      -305.6729
  28   2.0000     -11.223523      -305.4076
  29   2.0000     -11.223117      -305.3965
  30   2.0000     -11.203177      -304.8539
  31   2.0000      -7.648380      -208.1230
  32   2.0000      -1.565364       -42.5957
  33   2.0000      -1.519752       -41.3545
  34   2.0000      -1.517199       -41.2851
  35   2.0000      -1.418646       -38.6033
  36   2.0000      -1.349361       -36.7180
  37   2.0000      -1.200360       -32.6635
  38   2.0000      -1.183016       -32.1915
  39   2.0000      -1.163408       -31.6579
  40   2.0000      -1.149355       -31.2755
  41   2.0000      -1.112981       -30.2857
  42   2.0000      -1.059581       -28.8327
  43   2.0000      -1.042631       -28.3714
  44   2.0000      -1.042154       -28.3584
  45   2.0000      -1.034722       -28.1562
  46   2.0000      -1.021228       -27.7890
  47   2.0000      -1.013998       -27.5923
  48   2.0000      -1.002560       -27.2810
  49   2.0000      -0.946303       -25.7502
  50   2.0000      -0.924274       -25.1508
  51   2.0000      -0.892472       -24.2854
  52   2.0000      -0.878017       -23.8921
  53   2.0000      -0.851756       -23.1774
  54   2.0000      -0.837640       -22.7934
  55   2.0000      -0.826771       -22.4976
  56   2.0000      -0.825346       -22.4588
  57   2.0000      -0.795909       -21.6578
  58   2.0000      -0.774052       -21.0630
  59   2.0000      -0.766245       -20.8506
  60   2.0000      -0.759144       -20.6574
  61   2.0000      -0.741670       -20.1819
  62   2.0000      -0.718606       -19.5543
  63   2.0000      -0.708280       -19.2733
  64   2.0000      -0.691400       -18.8139
  65   2.0000      -0.687532       -18.7087
  66   2.0000      -0.685276       -18.6473
  67   2.0000      -0.683094       -18.5879
  68   2.0000      -0.678590       -18.4654
  69   2.0000      -0.663587       -18.0571
  70   2.0000      -0.656509       -17.8645
  71   2.0000      -0.655016       -17.8239
  72   2.0000      -0.632733       -17.2176
  73   2.0000      -0.630403       -17.1542
  74   2.0000      -0.625114       -17.0102
  75   2.0000      -0.623227       -16.9589
  76   2.0000      -0.620783       -16.8924
  77   2.0000      -0.617332       -16.7985
  78   2.0000      -0.614752       -16.7282
  79   2.0000      -0.611200       -16.6316
  80   2.0000      -0.608858       -16.5679
  81   2.0000      -0.603699       -16.4275
  82   2.0000      -0.601258       -16.3611
  83   2.0000      -0.584139       -15.8952
  84   2.0000      -0.576035       -15.6747
  85   2.0000      -0.575673       -15.6649
  86   2.0000      -0.570016       -15.5109
  87   2.0000      -0.564822       -15.3696
  88   2.0000      -0.561371       -15.2757
  89   2.0000      -0.559699       -15.2302
  90   2.0000      -0.553491       -15.0613
  91   2.0000      -0.535477       -14.5711
  92   2.0000      -0.527347       -14.3498
  93   2.0000      -0.523627       -14.2486
  94   2.0000      -0.523298       -14.2397
  95   2.0000      -0.518808       -14.1175
  96   2.0000      -0.500391       -13.6163
  97   2.0000      -0.499382       -13.5889
  98   2.0000      -0.491834       -13.3835
  99   2.0000      -0.483547       -13.1580
 100   2.0000      -0.476982       -12.9794
 101   2.0000      -0.475391       -12.9361
 102   2.0000      -0.443537       -12.0693
 103   2.0000      -0.426654       -11.6098
 104   2.0000      -0.372884       -10.1467
 105   2.0000      -0.352539        -9.5931
 106   2.0000      -0.343171        -9.3382
 107   2.0000      -0.336787        -9.1644
 108   2.0000      -0.335392        -9.1265
 109   2.0000      -0.326367        -8.8809
 110   2.0000      -0.307960        -8.3800
 111   0.0000       0.002438         0.0663
 112   0.0000       0.082038         2.2324
 113   0.0000       0.103145         2.8067
 114   0.0000       0.108964         2.9651
 115   0.0000       0.122232         3.3261

E(0)                                       ...  -1448.706298481
E(0)                                       ...  -1448.706298481
E(CORR)(strong-pairs)                      ...     -5.336998714
E(CORR)(weak-pairs)                        ...     -0.011508310
E(CORR)(corrected)                         ...     -5.348507025
E(TOT)                                     ...  -1454.054805506

MULLIKEN ATOMIC CHARGES
-----------------------
   0 C :   -0.102836
   1 C :   -0.250134
   2 C :    0.147771
   3 C :    0.125767
   4 C :   -0.282400
   5 C :   -0.152320
   6 C :    0.305090
   7 C :    0.140415
   8 C :    0.139517
   9 C :   -0.245364
  10 H :    0.190746
  11 C :   -0.104431
  12 C :   -0.148900
  13 C :   -0.288427
  14 H :    0.186690
  15 H :    0.190431
  16 H :    0.203022
  17 H :    0.180861
  18 H :    0.186798
  19 H :    0.180728
  20 H :    0.202684
  21 N :    0.189207
  22 C :    0.043003
  23 C :   -0.320446
  24 C :   -0.287392
  25 C :   -0.236652
  26 C :   -0.239452
  27 C :   -0.013971
  28 H :    0.154866
  29 H :    0.175126
  30 C :    0.055313
  31 C :   -0.266325
  32 C :   -0.247925
  33 C :   -0.205305
  34 H :    0.178969
  35 C :   -0.193632
  36 H :    0.177707
  37 C :    0.321056
  38 H :    0.183714
  39 H :    0.163498
  40 O :   -0.273020
  41 C :   -0.273318
  42 H :    0.171883
  43 H :    0.157544
  44 H :    0.157514
  45 H :    0.156409
  46 B :    0.616174
  47 F :   -0.440075
  48 F :   -0.440402
  49 F :   -0.443872
  50 H :    0.174093
Sum of atomic charges:   -0.0000000

LOEWDIN ATOMIC CHARGES
----------------------
   0 C :   -0.093273
   1 C :   -0.097154
   2 C :   -0.069406
   3 C :   -0.046913
   4 C :   -0.068508
   5 C :   -0.124885
   6 C :    0.045991
   7 C :   -0.046927
   8 C :   -0.069554
   9 C :   -0.097211
  10 H :    0.174109
  11 C :   -0.093270
  12 C :   -0.124727
  13 C :   -0.068598
  14 H :    0.167809
  15 H :    0.174107
  16 H :    0.174820
  17 H :    0.163813
  18 H :    0.167811
  19 H :    0.163762
  20 H :    0.174905
  21 N :    0.379460
  22 C :   -0.114169
  23 C :   -0.104408
  24 C :   -0.103286
  25 C :   -0.111396
  26 C :   -0.113028
  27 C :   -0.065683
  28 H :    0.158888
  29 H :    0.164244
  30 C :   -0.172728
  31 C :   -0.096300
  32 C :   -0.099258
  33 C :   -0.126716
  34 H :    0.170909
  35 C :   -0.110841
  36 H :    0.170719
  37 C :   -0.252460
  38 H :    0.166894
  39 H :    0.163436
  40 O :    0.237727
  41 C :   -0.319363
  42 H :    0.121712
  43 H :    0.117656
  44 H :    0.117661
  45 H :    0.160029
  46 B :   -1.288489
  47 F :    0.132602
  48 F :    0.117430
  49 F :    0.127822
  50 H :    0.164235

  Mayer bond orders larger than 0.100000
B(  0-C ,  1-C ) :   1.4180 B(  0-C ,  5-C ) :   1.1144 B(  0-C , 14-H ) :   0.9210
B(  1-C ,  2-C ) :   1.1547 B(  1-C , 15-H ) :   0.9235 B(  2-C ,  3-C ) :   1.1922
B(  2-C , 21-N ) :   1.1800 B(  3-C ,  4-C ) :   1.1184 B(  3-C ,  6-C ) :   1.1416
B(  4-C ,  5-C ) :   1.4515 B(  4-C , 16-H ) :   0.9149 B(  5-C , 17-H ) :   0.9339
B(  6-C ,  7-C ) :   1.1319 B(  6-C , 22-C ) :   0.7763 B(  7-C ,  8-C ) :   1.1930
B(  7-C , 13-C ) :   1.1260 B(  7-C , 22-C ) :  -0.1019 B(  8-C ,  9-C ) :   1.1505
B(  8-C , 21-N ) :   1.1816 B(  9-C , 10-H ) :   0.9234 B(  9-C , 11-C ) :   1.4189
B( 11-C , 12-C ) :   1.1147 B( 11-C , 18-H ) :   0.9208 B( 12-C , 13-C ) :   1.4515
B( 12-C , 19-H ) :   0.9338 B( 13-C , 20-H ) :   0.9143 B( 21-N , 30-C ) :   0.6557
B( 22-C , 23-C ) :   1.2340 B( 22-C , 24-C ) :   1.2511 B( 23-C , 25-C ) :   1.3171
B( 23-C , 50-H ) :   0.9510 B( 24-C , 26-C ) :   1.3094 B( 24-C , 29-H ) :   0.9487
B( 25-C , 27-C ) :   1.2659 B( 25-C , 45-H ) :   0.9398 B( 26-C , 27-C ) :   1.2795
B( 26-C , 28-H ) :   0.9393 B( 27-C , 46-B ) :   0.8619 B( 30-C , 31-C ) :   1.4177
B( 30-C , 32-C ) :   1.3529 B( 31-C , 33-C ) :   1.2687 B( 31-C , 34-H ) :   0.9262
B( 32-C , 35-C ) :   1.3464 B( 32-C , 36-H ) :   0.9408 B( 33-C , 37-C ) :   1.2141
B( 33-C , 38-H ) :   0.9200 B( 35-C , 37-C ) :   1.2231 B( 35-C , 39-H ) :   0.9441
B( 37-C , 40-O ) :   1.1003 B( 40-O , 41-C ) :   0.8374 B( 41-C , 42-H ) :   0.9213
B( 41-C , 43-H ) :   0.9177 B( 41-C , 44-H ) :   0.9177 B( 46-B , 47-F ) :   0.8532
B( 46-B , 48-F ) :   0.8683 B( 46-B , 49-F ) :   0.8523

-----------------------------------------------------------------------------
         ABSORPTION SPECTRUM VIA TRANSITION ELECTRIC DIPOLE MOMENTS
-----------------------------------------------------------------------------
State   Energy  Wavelength   fosc         T2         TX        TY        TZ
        (cm-1)    (nm)                  (au**2)     (au)      (au)      (au)
-----------------------------------------------------------------------------
   1   23160.6    431.8   0.253693612   3.60608   1.89876   0.00670   0.02700
   2   27192.1    367.8   0.047199730   0.57144   0.75555   0.01835   0.01441
   3   25027.2    399.6   0.001023915   0.01347   0.11078   0.02412   0.00799
   4   29290.1    341.4   0.016164850   0.18169   0.00214   0.41839   0.08103
   5   33190.1    301.3   0.063498870   0.62984   0.00441   0.78002   0.14613
   6   36733.2    272.2   0.010608239   0.09507   0.02284   0.01218   0.30665
   7   39321.2    254.3   0.003144881   0.02633   0.00382   0.15256   0.05362
   8   36105.0    277.0   0.231158380   2.10774   0.00495   1.44767   0.10924
   9   36768.9    272.0   0.000560904   0.00502   0.01533   0.06672   0.01710
  10   42879.1    233.2   0.004481862   0.03441   0.17387   0.06046   0.00317
  11   45264.7    220.9   0.209752688   1.52554   1.23468   0.02929   0.00343
  12   45809.5    218.3   0.166435832   1.19610   0.02468   1.08853   0.08865
  13   46940.1    213.0   0.194833726   1.36646   1.14791   0.04199   0.21124
  14   42403.4    235.8   0.002449638   0.01902   0.03273   0.02233   0.12405
  15   48105.7    207.9   0.002357474   0.01613   0.10322   0.01128   0.06034
  16   46450.1    215.3   0.041557132   0.29453   0.01832   0.54231   0.00731
  17   49884.6    200.5   0.021632554   0.14276   0.37220   0.01276   0.06132
  18   51177.5    195.4   0.734319857   4.72369   2.17291   0.01960   0.02231
  19   48929.8    204.4   0.025449557   0.17123   0.12870   0.38788   0.03057
  20   51793.4    193.1   0.164101936   1.04307   0.01309   0.99448   0.23138
  21   53797.3    185.9   1.145506606   7.00991   2.63263   0.08015   0.26846
  22   56630.9    176.6   0.219725910   1.27733   0.24267   0.06742   1.10176

FINAL SINGLE POINT ENERGY     -1453.949278120548

DIPOLE MOMENT
-------------
                                X             Y             Z
Electronic contribution:     44.58083      -0.12086      -1.86986
Nuclear contribution   :    -59.85722       0.20415       2.26466
                        -----------------------------------------
Total Dipole Moment    :    -15.27639       0.08329       0.39479
                        -----------------------------------------
Magnitude (a.u.)       :     15.28171
Magnitude (Debye)      :     38.84303

Rotational constants in cm-1:     0.012130     0.001892     0.001710
Rotational constants in MHz :   363.659825    56.710211    51.257227

                             ****ORCA TERMINATED NORMALLY****
TOTAL RUN TIME: 3 days 9 hours 40 minutes 30 seconds 228 msec
