                         Program Version 5.0.2 -  RELEASE  -
|  1> %maxcore 20000
|  2> %pal
|  3>  nprocs= 4
|  4> end
|  5> ! RI-wPBEPP86   def2-TZVP def2/J def2-TZVP/C RIJCOSX CPCM TightSCF
|  6> %TDDFT
|  7>    NROOTS   30
|  8>    dcorr 1
|  9>    TDA      FALSE
| 10> END
| 11>
| 12> %CPCM
| 13>    SMD          TRUE
| 14>    SMDsolvent   "ACETONITRILE"
| 15> END
| 16>
| 17>
| 18> * xyz 0 1
| 19> C                  -1.33517900    3.59951500    0.01496600
| 20> C                  -1.99941600    2.40569100   -0.06161400
| 21> C                  -1.27852900    1.19839100   -0.05656400
| 22> C                   0.14681400    1.22248100   -0.00378800
| 23> C                   0.78287200    2.48471500    0.11273800
| 24> C                   0.06482600    3.64387900    0.11890300
| 25> C                   0.87039300    0.01271300   -0.03377000
| 26> C                   0.16140500   -1.20443600   -0.09601700
| 27> C                  -1.26500900   -1.19505800   -0.10071500
| 28> C                  -1.97286100   -2.40970700   -0.12793000
| 29> H                  -3.05211800   -2.40114300   -0.11061500
| 30> C                  -1.29378600   -3.59640200   -0.18090600
| 31> C                   0.10968600   -3.62619400   -0.22761800
| 32> C                   0.81490700   -2.45972300   -0.18912700
| 33> H                  -1.90341100    4.52055100    0.01020300
| 34> H                  -3.07689300    2.38605600   -0.12303900
| 35> H                   1.85800200    2.51440200    0.20994300
| 36> H                   0.56938500    4.59585900    0.21170600
| 37> H                  -1.85221400   -4.52318100   -0.20235400
| 38> H                   0.62740400   -4.57268200   -0.30223200
| 39> H                   1.89343600   -2.47802700   -0.24240000
| 40> N                  -1.93575900   -0.00191000   -0.08975100
| 41> C                   2.34016300    0.01909200   -0.00022100
| 42> C                   3.03378200   -0.63478900    1.02206500
| 43> C                   3.07600300    0.67822300   -0.98770700
| 44> C                   4.41729100   -0.61163300    1.05294000
| 45> C                   4.46058100    0.66574600   -0.95363000
| 46> C                   5.17266500    0.02959800    0.06609100
| 47> H                   5.00464300    1.17230600   -1.74368700
| 48> H                   2.55250900    1.18188800   -1.79213400
| 49> C                  -3.38215200   -0.00910800   -0.11245000
| 50> C                  -4.08300000    0.01602500    1.07835000
| 51> C                  -4.04762200   -0.03955400   -1.33022100
| 52> C                  -5.46937200    0.01138600    1.06517500
| 53> H                  -3.54605200    0.03998200    2.01828600
| 54> C                  -5.42627000   -0.04411500   -1.35017500
| 55> H                  -3.48259400   -0.05934600   -2.25346900
| 56> C                  -6.14715000   -0.01833900   -0.15319800
| 57> H                  -6.01021200    0.03110300    2.00014500
| 58> H                  -5.96618700   -0.06701500   -2.28747400
| 59> O                  -7.48941500   -0.02427900   -0.27426500
| 60> C                  -8.25978000    0.00391500    0.91824300
| 61> H                  -9.30015500   -0.00518900    0.60609500
| 62> H                  -8.06384600   -0.87126300    1.54134300
| 63> H                  -8.06624400    0.90924100    1.49749300
| 64> H                   4.92649100   -1.10906800    1.87219600
| 65> B                   6.78084300   -0.00531600    0.09357000
| 66> F                   7.34166600    1.03029900   -0.69206700
| 67> F                   7.26987200   -1.24050000   -0.41765900
| 68> F                   7.28020500    0.12750000    1.41408500
| 69> H                   2.47622100   -1.13985700    1.80237700
| 70> *
| 71>
| 72>
| 73>                          ****END OF INPUT****

CARTESIAN COORDINATES (ANGSTROEM)
---------------------------------
  C     -1.335179    3.599515    0.014966
  C     -1.999416    2.405691   -0.061614
  C     -1.278529    1.198391   -0.056564
  C      0.146814    1.222481   -0.003788
  C      0.782872    2.484715    0.112738
  C      0.064826    3.643879    0.118903
  C      0.870393    0.012713   -0.033770
  C      0.161405   -1.204436   -0.096017
  C     -1.265009   -1.195058   -0.100715
  C     -1.972861   -2.409707   -0.127930
  H     -3.052118   -2.401143   -0.110615
  C     -1.293786   -3.596402   -0.180906
  C      0.109686   -3.626194   -0.227618
  C      0.814907   -2.459723   -0.189127
  H     -1.903411    4.520551    0.010203
  H     -3.076893    2.386056   -0.123039
  H      1.858002    2.514402    0.209943
  H      0.569385    4.595859    0.211706
  H     -1.852214   -4.523181   -0.202354
  H      0.627404   -4.572682   -0.302232
  H      1.893436   -2.478027   -0.242400
  N     -1.935759   -0.001910   -0.089751
  C      2.340163    0.019092   -0.000221
  C      3.033782   -0.634789    1.022065
  C      3.076003    0.678223   -0.987707
  C      4.417291   -0.611633    1.052940
  C      4.460581    0.665746   -0.953630
  C      5.172665    0.029598    0.066091
  H      5.004643    1.172306   -1.743687
  H      2.552509    1.181888   -1.792134
  C     -3.382152   -0.009108   -0.112450
  C     -4.083000    0.016025    1.078350
  C     -4.047622   -0.039554   -1.330221
  C     -5.469372    0.011386    1.065175
  H     -3.546052    0.039982    2.018286
  C     -5.426270   -0.044115   -1.350175
  H     -3.482594   -0.059346   -2.253469
  C     -6.147150   -0.018339   -0.153198
  H     -6.010212    0.031103    2.000145
  H     -5.966187   -0.067015   -2.287474
  O     -7.489415   -0.024279   -0.274265
  C     -8.259780    0.003915    0.918243
  H     -9.300155   -0.005189    0.606095
  H     -8.063846   -0.871263    1.541343
  H     -8.066244    0.909241    1.497493
  H      4.926491   -1.109068    1.872196
  B      6.780843   -0.005316    0.093570
  F      7.341666    1.030299   -0.692067
  F      7.269872   -1.240500   -0.417659
  F      7.280205    0.127500    1.414085
  H      2.476221   -1.139857    1.802377

 Total Charge           Charge          ....    0
 Multiplicity           Mult            ....    1
 Number of Electrons    NEL             ....  222
 Basis Dimension        Dim             .... 1106

ORBITAL ENERGIES
----------------

  NO   OCC          E(Eh)            E(eV)
   0   2.0000     -25.663621      -698.3426
   1   2.0000     -25.662889      -698.3227
   2   2.0000     -25.661427      -698.2829
   3   2.0000     -20.093494      -546.7718
   4   2.0000     -15.233666      -414.5291
   5   2.0000     -10.961687      -298.2827
   6   2.0000     -10.961643      -298.2815
   7   2.0000     -10.949779      -297.9586
   8   2.0000     -10.944221      -297.8074
   9   2.0000     -10.917106      -297.0696
  10   2.0000     -10.910901      -296.9007
  11   2.0000     -10.910868      -296.8998
  12   2.0000     -10.902892      -296.6828
  13   2.0000     -10.895873      -296.4918
  14   2.0000     -10.895865      -296.4916
  15   2.0000     -10.891476      -296.3721
  16   2.0000     -10.891451      -296.3714
  17   2.0000     -10.888117      -296.2807
  18   2.0000     -10.885818      -296.2182
  19   2.0000     -10.884857      -296.1920
  20   2.0000     -10.882961      -296.1404
  21   2.0000     -10.882953      -296.1402
  22   2.0000     -10.878212      -296.0112
  23   2.0000     -10.878195      -296.0107
  24   2.0000     -10.873635      -295.8867
  25   2.0000     -10.873227      -295.8755
  26   2.0000     -10.873181      -295.8743
  27   2.0000     -10.872206      -295.8478
  28   2.0000     -10.861589      -295.5589
  29   2.0000     -10.861201      -295.5483
  30   2.0000     -10.842762      -295.0466
  31   2.0000      -7.352662      -200.0761
  32   2.0000      -1.463056       -39.8118
  33   2.0000      -1.418068       -38.5876
  34   2.0000      -1.415538       -38.5188
  35   2.0000      -1.340094       -36.4658
  36   2.0000      -1.282139       -34.8888
  37   2.0000      -1.139428       -31.0054
  38   2.0000      -1.123589       -30.5744
  39   2.0000      -1.104098       -30.0440
  40   2.0000      -1.090912       -29.6852
  41   2.0000      -1.057205       -28.7680
  42   2.0000      -1.008742       -27.4493
  43   2.0000      -0.993042       -27.0221
  44   2.0000      -0.990886       -26.9634
  45   2.0000      -0.983198       -26.7542
  46   2.0000      -0.969794       -26.3894
  47   2.0000      -0.962349       -26.1868
  48   2.0000      -0.954197       -25.9650
  49   2.0000      -0.903741       -24.5920
  50   2.0000      -0.882731       -24.0203
  51   2.0000      -0.856273       -23.3004
  52   2.0000      -0.841964       -22.9110
  53   2.0000      -0.815927       -22.2025
  54   2.0000      -0.802426       -21.8351
  55   2.0000      -0.791394       -21.5349
  56   2.0000      -0.790334       -21.5061
  57   2.0000      -0.764008       -20.7897
  58   2.0000      -0.743144       -20.2220
  59   2.0000      -0.742665       -20.2089
  60   2.0000      -0.722112       -19.6497
  61   2.0000      -0.719673       -19.5833
  62   2.0000      -0.695898       -18.9364
  63   2.0000      -0.683656       -18.6032
  64   2.0000      -0.670995       -18.2587
  65   2.0000      -0.659672       -17.9506
  66   2.0000      -0.651449       -17.7268
  67   2.0000      -0.649132       -17.6638
  68   2.0000      -0.648501       -17.6466
  69   2.0000      -0.641674       -17.4608
  70   2.0000      -0.636625       -17.3234
  71   2.0000      -0.630995       -17.1702
  72   2.0000      -0.613512       -16.6945
  73   2.0000      -0.607760       -16.5380
  74   2.0000      -0.606574       -16.5057
  75   2.0000      -0.600176       -16.3316
  76   2.0000      -0.599704       -16.3188
  77   2.0000      -0.599077       -16.3017
  78   2.0000      -0.591826       -16.1044
  79   2.0000      -0.590275       -16.0622
  80   2.0000      -0.582629       -15.8541
  81   2.0000      -0.571419       -15.5491
  82   2.0000      -0.569365       -15.4932
  83   2.0000      -0.562957       -15.3188
  84   2.0000      -0.558801       -15.2058
  85   2.0000      -0.549000       -14.9391
  86   2.0000      -0.539954       -14.6929
  87   2.0000      -0.538590       -14.6558
  88   2.0000      -0.535835       -14.5808
  89   2.0000      -0.534495       -14.5443
  90   2.0000      -0.526722       -14.3328
  91   2.0000      -0.524563       -14.2741
  92   2.0000      -0.522157       -14.2086
  93   2.0000      -0.512876       -13.9561
  94   2.0000      -0.510020       -13.8784
  95   2.0000      -0.503297       -13.6954
  96   2.0000      -0.493568       -13.4307
  97   2.0000      -0.485018       -13.1980
  98   2.0000      -0.483651       -13.1608
  99   2.0000      -0.469484       -12.7753
 100   2.0000      -0.468019       -12.7354
 101   2.0000      -0.465140       -12.6571
 102   2.0000      -0.435569       -11.8524
 103   2.0000      -0.426526       -11.6064
 104   2.0000      -0.386344       -10.5130
 105   2.0000      -0.366199        -9.9648
 106   2.0000      -0.359779        -9.7901
 107   2.0000      -0.351196        -9.5565
 108   2.0000      -0.349407        -9.5079
 109   2.0000      -0.336570        -9.1585
 110   2.0000      -0.322619        -8.7789
 111   0.0000      -0.041098        -1.1183
 112   0.0000       0.037408         1.0179
 113   0.0000       0.058239         1.5848
 114   0.0000       0.063996         1.7414
 115   0.0000       0.076965         2.0943

MULLIKEN ATOMIC CHARGES
-----------------------
   0 C :   -0.108497
   1 C :   -0.282888
   2 C :    0.213891
   3 C :    0.076755
   4 C :   -0.272010
   5 C :   -0.188415
   6 C :    0.335219
   7 C :    0.076293
   8 C :    0.214000
   9 C :   -0.283996
  10 H :    0.214186
  11 C :   -0.107474
  12 C :   -0.188016
  13 C :   -0.271224
  14 H :    0.200579
  15 H :    0.214425
  16 H :    0.227271
  17 H :    0.196238
  18 H :    0.200588
  19 H :    0.196140
  20 H :    0.226735
  21 N :    0.153645
  22 C :   -0.011442
  23 C :   -0.318128
  24 C :   -0.311847
  25 C :   -0.255443
  26 C :   -0.263374
  27 C :    0.007099
  28 H :    0.176384
  29 H :    0.203711
  30 C :   -0.050576
  31 C :   -0.253795
  32 C :   -0.223920
  33 C :   -0.250531
  34 H :    0.198351
  35 C :   -0.220049
  36 H :    0.195282
  37 C :    0.379974
  38 H :    0.204742
  39 H :    0.185480
  40 O :   -0.321207
  41 C :   -0.269501
  42 H :    0.174677
  43 H :    0.161741
  44 H :    0.161709
  45 H :    0.177139
  46 B :    0.659647
  47 F :   -0.460247
  48 F :   -0.459883
  49 F :   -0.463059
  50 H :    0.203620
Sum of atomic charges:    0.0000000

LOEWDIN ATOMIC CHARGES
----------------------
   0 C :   -0.081630
   1 C :   -0.106508
   2 C :   -0.059474
   3 C :   -0.058686
   4 C :   -0.062071
   5 C :   -0.133807
   6 C :    0.066931
   7 C :   -0.058779
   8 C :   -0.059644
   9 C :   -0.106552
  10 H :    0.174679
  11 C :   -0.081656
  12 C :   -0.133701
  13 C :   -0.062074
  14 H :    0.169076
  15 H :    0.174688
  16 H :    0.175292
  17 H :    0.164164
  18 H :    0.169081
  19 H :    0.164176
  20 H :    0.175341
  21 N :    0.353092
  22 C :   -0.119086
  23 C :   -0.099608
  24 C :   -0.099297
  25 C :   -0.110140
  26 C :   -0.111896
  27 C :   -0.057973
  28 H :    0.160370
  29 H :    0.166266
  30 C :   -0.183822
  31 C :   -0.089051
  32 C :   -0.092212
  33 C :   -0.129932
  34 H :    0.172384
  35 C :   -0.113063
  36 H :    0.171957
  37 C :   -0.240197
  38 H :    0.166991
  39 H :    0.164297
  40 O :    0.208948
  41 C :   -0.306745
  42 H :    0.120904
  43 H :    0.117115
  44 H :    0.117122
  45 H :    0.161619
  46 B :   -1.237701
  47 F :    0.111604
  48 F :    0.096143
  49 F :    0.106768
  50 H :    0.166296

  Mayer bond orders larger than 0.100000
B(  0-C ,  1-C ) :   1.5387 B(  0-C ,  5-C ) :   1.2196 B(  0-C , 14-H ) :   0.9635
B(  1-C ,  2-C ) :   1.2301 B(  1-C , 15-H ) :   0.9610 B(  2-C ,  3-C ) :   1.2836
B(  2-C , 21-N ) :   1.2336 B(  3-C ,  4-C ) :   1.1846 B(  3-C ,  6-C ) :   1.2057
B(  4-C ,  5-C ) :   1.5986 B(  4-C , 16-H ) :   0.9419 B(  5-C , 17-H ) :   0.9735
B(  6-C ,  7-C ) :   1.2048 B(  6-C , 22-C ) :   0.8448 B(  7-C ,  8-C ) :   1.2828
B(  7-C , 13-C ) :   1.1838 B(  8-C ,  9-C ) :   1.2294 B(  8-C , 21-N ) :   1.2333
B(  9-C , 10-H ) :   0.9613 B(  9-C , 11-C ) :   1.5387 B( 11-C , 12-C ) :   1.2194
B( 11-C , 18-H ) :   0.9634 B( 12-C , 13-C ) :   1.5980 B( 12-C , 19-H ) :   0.9737
B( 13-C , 20-H ) :   0.9423 B( 21-N , 30-C ) :   0.7270 B( 22-C , 23-C ) :   1.3389
B( 22-C , 24-C ) :   1.3458 B( 23-C , 25-C ) :   1.4421 B( 23-C , 50-H ) :   0.9832
B( 24-C , 26-C ) :   1.4359 B( 24-C , 29-H ) :   0.9849 B( 25-C , 27-C ) :   1.3716
B( 25-C , 45-H ) :   0.9753 B( 26-C , 27-C ) :   1.3809 B( 26-C , 28-H ) :   0.9721
B( 27-C , 46-B ) :   0.9238 B( 30-C , 31-C ) :   1.5329 B( 30-C , 32-C ) :   1.4733
B( 31-C , 33-C ) :   1.3961 B( 31-C , 34-H ) :   0.9632 B( 32-C , 35-C ) :   1.4581
B( 32-C , 36-H ) :   0.9784 B( 33-C , 37-C ) :   1.3176 B( 33-C , 38-H ) :   0.9537
B( 35-C , 37-C ) :   1.3247 B( 35-C , 39-H ) :   0.9822 B( 37-C , 40-O ) :   1.1237
B( 40-O , 41-C ) :   0.8873 B( 41-C , 42-H ) :   0.9683 B( 41-C , 43-H ) :   0.9678
B( 41-C , 44-H ) :   0.9678 B( 46-B , 47-F ) :   0.8703 B( 46-B , 48-F ) :   0.8807
B( 46-B , 49-F ) :   0.8686

MP2 TOTAL ENERGY:    -1456.199655919 Eh

-----------------------------------------------------------------------------
         ABSORPTION SPECTRUM VIA TRANSITION ELECTRIC DIPOLE MOMENTS
-----------------------------------------------------------------------------
State   Energy    Wavelength  fosc         T2        TX        TY        TZ
        (cm-1)      (nm)                 (au**2)    (au)      (au)      (au)
-----------------------------------------------------------------------------
   1   24252.7    412.3   0.315908368   4.28822   2.07060   0.00975   0.02755
   2   30260.8    330.5   0.343771705   3.73995   0.01203  -1.93277  -0.06477
   3   30435.8    328.6   0.105657291   1.14285  -1.06885  -0.00456  -0.01986
   4   33013.0    302.9   0.069842499   0.69648  -0.01013   0.83443  -0.00994
   5   30228.4    330.8   0.004962908   0.05405   0.13498   0.14906   0.11667
   6   32931.4    303.7   0.032547922   0.32538   0.04769  -0.49142  -0.28567
   7   39559.8    252.8   0.035212341   0.29303  -0.06810   0.03620   0.53580
   8   40567.3    246.5   1.227431064   9.96085  -0.01192   3.15426   0.10659
   9   41977.0    238.2   0.011818748   0.09269  -0.03549   0.26570   0.14435
  10   47587.2    210.1   0.121666969   0.84170   0.90033   0.01140  -0.17600
  11   48480.4    206.3   0.003620515   0.02459   0.15285   0.00699   0.03424
  12   38968.0    256.6   0.061228433   0.51727  -0.03583   0.71487  -0.07034
  13   48322.8    206.9   0.093630600   0.63788   0.79601  -0.00270   0.06515
  14   45792.5    218.4   0.027059842   0.19454  -0.01608   0.36643  -0.24496
  15   45316.9    220.7   0.073117448   0.53117   0.72778   0.00436   0.03865
  16   48577.0    205.9   0.001077110   0.00730  -0.08342  -0.00712   0.01706
  17   44531.7    224.6   0.006804357   0.05030   0.02660   0.10797  -0.19478
  18   50482.9    198.1   0.935751196   6.10227  -2.47008  -0.02911  -0.01026
  19   52335.7    191.1   1.763558330  11.09347   3.32890   0.01437   0.10809
  20   52327.3    191.1   0.365216631   2.29772  -0.02621   0.91186  -1.21060
  21   51154.4    195.5   0.354795678   2.28334  -0.34851   0.01284   1.47028
  22   52237.0    191.4   0.075935978   0.47857   0.68984  -0.03949   0.03365
  23   50058.4    199.8   0.020342887   0.13379  -0.23282  -0.14167  -0.24395
  24   49644.6    201.4   0.037762178   0.25041  -0.07817  -0.02270   0.49375
  25   49165.7    203.4   0.125254150   0.83870  -0.03436   0.02503  -0.91482
  26   50846.6    196.7   0.000527622   0.00342  -0.05673   0.00201  -0.01392
  27   51326.2    194.8   0.025569361   0.16400   0.05503   0.40115   0.00730
  28   52284.9    191.3   0.207588401   1.30708  -0.02828   1.14147  -0.05766
  29   51991.7    192.3   0.000533263   0.00338  -0.05552   0.01103  -0.01314
  30   52894.2    189.1   0.006418651   0.03995  -0.03702  -0.18999   0.04984

FINAL SINGLE POINT ENERGY     -1453.336342544371

DIPOLE MOMENT
-------------
                                X             Y             Z
Electronic contribution:     44.76655      -0.11984      -1.84060
Nuclear contribution   :    -59.85722       0.20415       2.26466
                        -----------------------------------------
Total Dipole Moment    :    -15.09067       0.08432       0.42405
                        -----------------------------------------
Magnitude (a.u.)       :     15.09686
Magnitude (Debye)      :     38.37317

Rotational constants in cm-1:     0.012130     0.001892     0.001710
Rotational constants in MHz :   363.659825    56.710211    51.257227

                             ****ORCA TERMINATED NORMALLY****
TOTAL RUN TIME: 0 days 15 hours 35 minutes 32 seconds 829 msec
