                         Program Version 5.0.2 -  RELEASE  -
|  1> %maxcore 20000
|  2> %pal
|  3>  nprocs= 4
|  4> end
|  5> ! RI-B2GP-PLYP   def2-TZVP def2/J def2-TZVP/C RIJCOSX CPCM TightSCF
|  6> %TDDFT
|  7>    NROOTS   30
|  8>    dcorr 4
|  9>    TDA      FALSE
| 10> END
| 11>
| 12> %CPCM
| 13>    SMD          TRUE
| 14>    SMDsolvent   "ACETONITRILE"
| 15> END
| 16>
| 17>
| 18> * xyz 0 1
| 19> C                  -1.33517900    3.59951500    0.01496600
| 20> C                  -1.99941600    2.40569100   -0.06161400
| 21> C                  -1.27852900    1.19839100   -0.05656400
| 22> C                   0.14681400    1.22248100   -0.00378800
| 23> C                   0.78287200    2.48471500    0.11273800
| 24> C                   0.06482600    3.64387900    0.11890300
| 25> C                   0.87039300    0.01271300   -0.03377000
| 26> C                   0.16140500   -1.20443600   -0.09601700
| 27> C                  -1.26500900   -1.19505800   -0.10071500
| 28> C                  -1.97286100   -2.40970700   -0.12793000
| 29> H                  -3.05211800   -2.40114300   -0.11061500
| 30> C                  -1.29378600   -3.59640200   -0.18090600
| 31> C                   0.10968600   -3.62619400   -0.22761800
| 32> C                   0.81490700   -2.45972300   -0.18912700
| 33> H                  -1.90341100    4.52055100    0.01020300
| 34> H                  -3.07689300    2.38605600   -0.12303900
| 35> H                   1.85800200    2.51440200    0.20994300
| 36> H                   0.56938500    4.59585900    0.21170600
| 37> H                  -1.85221400   -4.52318100   -0.20235400
| 38> H                   0.62740400   -4.57268200   -0.30223200
| 39> H                   1.89343600   -2.47802700   -0.24240000
| 40> N                  -1.93575900   -0.00191000   -0.08975100
| 41> C                   2.34016300    0.01909200   -0.00022100
| 42> C                   3.03378200   -0.63478900    1.02206500
| 43> C                   3.07600300    0.67822300   -0.98770700
| 44> C                   4.41729100   -0.61163300    1.05294000
| 45> C                   4.46058100    0.66574600   -0.95363000
| 46> C                   5.17266500    0.02959800    0.06609100
| 47> H                   5.00464300    1.17230600   -1.74368700
| 48> H                   2.55250900    1.18188800   -1.79213400
| 49> C                  -3.38215200   -0.00910800   -0.11245000
| 50> C                  -4.08300000    0.01602500    1.07835000
| 51> C                  -4.04762200   -0.03955400   -1.33022100
| 52> C                  -5.46937200    0.01138600    1.06517500
| 53> H                  -3.54605200    0.03998200    2.01828600
| 54> C                  -5.42627000   -0.04411500   -1.35017500
| 55> H                  -3.48259400   -0.05934600   -2.25346900
| 56> C                  -6.14715000   -0.01833900   -0.15319800
| 57> H                  -6.01021200    0.03110300    2.00014500
| 58> H                  -5.96618700   -0.06701500   -2.28747400
| 59> O                  -7.48941500   -0.02427900   -0.27426500
| 60> C                  -8.25978000    0.00391500    0.91824300
| 61> H                  -9.30015500   -0.00518900    0.60609500
| 62> H                  -8.06384600   -0.87126300    1.54134300
| 63> H                  -8.06624400    0.90924100    1.49749300
| 64> H                   4.92649100   -1.10906800    1.87219600
| 65> B                   6.78084300   -0.00531600    0.09357000
| 66> F                   7.34166600    1.03029900   -0.69206700
| 67> F                   7.26987200   -1.24050000   -0.41765900
| 68> F                   7.28020500    0.12750000    1.41408500
| 69> H                   2.47622100   -1.13985700    1.80237700
| 70> *
| 71>
| 72>
| 73>                          ****END OF INPUT****

CARTESIAN COORDINATES (ANGSTROEM)
---------------------------------
  C     -1.335179    3.599515    0.014966
  C     -1.999416    2.405691   -0.061614
  C     -1.278529    1.198391   -0.056564
  C      0.146814    1.222481   -0.003788
  C      0.782872    2.484715    0.112738
  C      0.064826    3.643879    0.118903
  C      0.870393    0.012713   -0.033770
  C      0.161405   -1.204436   -0.096017
  C     -1.265009   -1.195058   -0.100715
  C     -1.972861   -2.409707   -0.127930
  H     -3.052118   -2.401143   -0.110615
  C     -1.293786   -3.596402   -0.180906
  C      0.109686   -3.626194   -0.227618
  C      0.814907   -2.459723   -0.189127
  H     -1.903411    4.520551    0.010203
  H     -3.076893    2.386056   -0.123039
  H      1.858002    2.514402    0.209943
  H      0.569385    4.595859    0.211706
  H     -1.852214   -4.523181   -0.202354
  H      0.627404   -4.572682   -0.302232
  H      1.893436   -2.478027   -0.242400
  N     -1.935759   -0.001910   -0.089751
  C      2.340163    0.019092   -0.000221
  C      3.033782   -0.634789    1.022065
  C      3.076003    0.678223   -0.987707
  C      4.417291   -0.611633    1.052940
  C      4.460581    0.665746   -0.953630
  C      5.172665    0.029598    0.066091
  H      5.004643    1.172306   -1.743687
  H      2.552509    1.181888   -1.792134
  C     -3.382152   -0.009108   -0.112450
  C     -4.083000    0.016025    1.078350
  C     -4.047622   -0.039554   -1.330221
  C     -5.469372    0.011386    1.065175
  H     -3.546052    0.039982    2.018286
  C     -5.426270   -0.044115   -1.350175
  H     -3.482594   -0.059346   -2.253469
  C     -6.147150   -0.018339   -0.153198
  H     -6.010212    0.031103    2.000145
  H     -5.966187   -0.067015   -2.287474
  O     -7.489415   -0.024279   -0.274265
  C     -8.259780    0.003915    0.918243
  H     -9.300155   -0.005189    0.606095
  H     -8.063846   -0.871263    1.541343
  H     -8.066244    0.909241    1.497493
  H      4.926491   -1.109068    1.872196
  B      6.780843   -0.005316    0.093570
  F      7.341666    1.030299   -0.692067
  F      7.269872   -1.240500   -0.417659
  F      7.280205    0.127500    1.414085
  H      2.476221   -1.139857    1.802377

 Total Charge           Charge          ....    0
 Multiplicity           Mult            ....    1
 Number of Electrons    NEL             ....  222
 Basis Dimension        Dim             .... 1106

ORBITAL ENERGIES
----------------

  NO   OCC          E(Eh)            E(eV)
   0   2.0000     -25.534866      -694.8390
   1   2.0000     -25.534209      -694.8211
   2   2.0000     -25.532964      -694.7873
   3   2.0000     -19.973823      -543.5154
   4   2.0000     -15.124194      -411.5502
   5   2.0000     -10.867755      -295.7266
   6   2.0000     -10.867714      -295.7255
   7   2.0000     -10.853952      -295.3511
   8   2.0000     -10.852160      -295.3023
   9   2.0000     -10.824438      -294.5479
  10   2.0000     -10.818278      -294.3803
  11   2.0000     -10.818246      -294.3794
  12   2.0000     -10.816103      -294.3211
  13   2.0000     -10.803832      -293.9872
  14   2.0000     -10.803826      -293.9871
  15   2.0000     -10.799180      -293.8606
  16   2.0000     -10.799154      -293.8599
  17   2.0000     -10.794739      -293.7398
  18   2.0000     -10.793907      -293.7171
  19   2.0000     -10.793068      -293.6943
  20   2.0000     -10.791752      -293.6585
  21   2.0000     -10.791746      -293.6583
  22   2.0000     -10.787466      -293.5419
  23   2.0000     -10.787448      -293.5414
  24   2.0000     -10.782453      -293.4055
  25   2.0000     -10.781213      -293.3717
  26   2.0000     -10.780975      -293.3652
  27   2.0000     -10.780924      -293.3639
  28   2.0000     -10.769793      -293.0610
  29   2.0000     -10.769406      -293.0504
  30   2.0000     -10.749582      -292.5110
  31   2.0000      -7.280979      -198.1255
  32   2.0000      -1.394178       -37.9375
  33   2.0000      -1.349923       -36.7333
  34   2.0000      -1.347513       -36.6677
  35   2.0000      -1.273167       -34.6446
  36   2.0000      -1.214500       -33.0482
  37   2.0000      -1.073629       -29.2149
  38   2.0000      -1.058525       -28.8039
  39   2.0000      -1.039277       -28.2802
  40   2.0000      -1.026462       -27.9314
  41   2.0000      -0.993431       -27.0326
  42   2.0000      -0.946733       -25.7619
  43   2.0000      -0.931337       -25.3430
  44   2.0000      -0.929326       -25.2883
  45   2.0000      -0.921972       -25.0881
  46   2.0000      -0.908535       -24.7225
  47   2.0000      -0.901024       -24.5181
  48   2.0000      -0.893692       -24.3186
  49   2.0000      -0.845193       -22.9989
  50   2.0000      -0.824049       -22.4235
  51   2.0000      -0.798189       -21.7198
  52   2.0000      -0.783891       -21.3308
  53   2.0000      -0.759332       -20.6625
  54   2.0000      -0.746212       -20.3055
  55   2.0000      -0.734825       -19.9956
  56   2.0000      -0.733760       -19.9666
  57   2.0000      -0.708498       -19.2792
  58   2.0000      -0.687924       -18.7194
  59   2.0000      -0.687532       -18.7087
  60   2.0000      -0.665989       -18.1225
  61   2.0000      -0.664405       -18.0794
  62   2.0000      -0.642200       -17.4752
  63   2.0000      -0.629664       -17.1340
  64   2.0000      -0.617117       -16.7926
  65   2.0000      -0.608084       -16.5468
  66   2.0000      -0.596716       -16.2375
  67   2.0000      -0.595555       -16.2059
  68   2.0000      -0.593588       -16.1523
  69   2.0000      -0.589827       -16.0500
  70   2.0000      -0.584986       -15.9183
  71   2.0000      -0.578189       -15.7333
  72   2.0000      -0.560234       -15.2447
  73   2.0000      -0.558028       -15.1847
  74   2.0000      -0.555965       -15.1286
  75   2.0000      -0.549607       -14.9556
  76   2.0000      -0.549362       -14.9489
  77   2.0000      -0.548295       -14.9199
  78   2.0000      -0.541626       -14.7384
  79   2.0000      -0.539907       -14.6916
  80   2.0000      -0.533908       -14.5284
  81   2.0000      -0.517820       -14.0906
  82   2.0000      -0.516382       -14.0515
  83   2.0000      -0.513849       -13.9826
  84   2.0000      -0.509619       -13.8674
  85   2.0000      -0.501118       -13.6361
  86   2.0000      -0.491155       -13.3650
  87   2.0000      -0.488283       -13.2869
  88   2.0000      -0.486141       -13.2286
  89   2.0000      -0.482186       -13.1209
  90   2.0000      -0.476480       -12.9657
  91   2.0000      -0.472151       -12.8479
  92   2.0000      -0.469368       -12.7722
  93   2.0000      -0.465318       -12.6619
  94   2.0000      -0.462581       -12.5875
  95   2.0000      -0.457128       -12.4391
  96   2.0000      -0.444042       -12.0830
  97   2.0000      -0.439204       -11.9513
  98   2.0000      -0.434080       -11.8119
  99   2.0000      -0.423642       -11.5279
 100   2.0000      -0.421633       -11.4732
 101   2.0000      -0.416799       -11.3417
 102   2.0000      -0.387857       -10.5541
 103   2.0000      -0.379965       -10.3394
 104   2.0000      -0.340476        -9.2648
 105   2.0000      -0.321542        -8.7496
 106   2.0000      -0.317205        -8.6316
 107   2.0000      -0.306811        -8.3488
 108   2.0000      -0.304628        -8.2894
 109   2.0000      -0.292655        -7.9635
 110   2.0000      -0.280592        -7.6353
 111   0.0000      -0.055354        -1.5063
 112   0.0000       0.020901         0.5687
 113   0.0000       0.040066         1.0902
 114   0.0000       0.046380         1.2621
 115   0.0000       0.057841         1.5739

MULLIKEN ATOMIC CHARGES
-----------------------
   0 C :   -0.095753
   1 C :   -0.248451
   2 C :    0.192525
   3 C :    0.099187
   4 C :   -0.266040
   5 C :   -0.162531
   6 C :    0.328087
   7 C :    0.098686
   8 C :    0.192689
   9 C :   -0.249426
  10 H :    0.187330
  11 C :   -0.094842
  12 C :   -0.162307
  13 C :   -0.265019
  14 H :    0.179198
  15 H :    0.187588
  16 H :    0.198410
  17 H :    0.173670
  18 H :    0.179211
  19 H :    0.173602
  20 H :    0.197852
  21 N :    0.127194
  22 C :    0.041123
  23 C :   -0.295812
  24 C :   -0.287157
  25 C :   -0.241893
  26 C :   -0.247108
  27 C :    0.003833
  28 H :    0.149111
  29 H :    0.171373
  30 C :    0.071436
  31 C :   -0.248923
  32 C :   -0.224206
  33 C :   -0.233088
  34 H :    0.173189
  35 C :   -0.197146
  36 H :    0.169697
  37 C :    0.379919
  38 H :    0.174698
  39 H :    0.157730
  40 O :   -0.343139
  41 C :   -0.192576
  42 H :    0.153941
  43 H :    0.140151
  44 H :    0.140100
  45 H :    0.150031
  46 B :    0.734621
  47 F :   -0.479365
  48 F :   -0.479978
  49 F :   -0.482619
  50 H :    0.171198
Sum of atomic charges:    0.0000000

LOEWDIN ATOMIC CHARGES
----------------------
   0 C :   -0.080371
   1 C :   -0.101039
   2 C :   -0.057131
   3 C :   -0.053628
   4 C :   -0.058889
   5 C :   -0.129018
   6 C :    0.066864
   7 C :   -0.053720
   8 C :   -0.057303
   9 C :   -0.101083
  10 H :    0.169462
  11 C :   -0.080403
  12 C :   -0.128920
  13 C :   -0.058894
  14 H :    0.162933
  15 H :    0.169474
  16 H :    0.169990
  17 H :    0.158238
  18 H :    0.162939
  19 H :    0.158251
  20 H :    0.170036
  21 N :    0.352524
  22 C :   -0.111881
  23 C :   -0.095771
  24 C :   -0.095485
  25 C :   -0.107039
  26 C :   -0.108912
  27 C :   -0.053831
  28 H :    0.154182
  29 H :    0.159737
  30 C :   -0.173495
  31 C :   -0.085493
  32 C :   -0.088413
  33 C :   -0.125740
  34 H :    0.165808
  35 C :   -0.109831
  36 H :    0.165433
  37 C :   -0.234934
  38 H :    0.161398
  39 H :    0.157978
  40 O :    0.206635
  41 C :   -0.293525
  42 H :    0.115852
  43 H :    0.112231
  44 H :    0.112235
  45 H :    0.155312
  46 B :   -1.229235
  47 F :    0.108997
  48 F :    0.093593
  49 F :    0.104114
  50 H :    0.159770

  Mayer bond orders larger than 0.100000
B(  0-C ,  1-C ) :   1.5310 B(  0-C ,  5-C ) :   1.2263 B(  0-C , 14-H ) :   0.9700
B(  1-C ,  2-C ) :   1.2514 B(  1-C , 15-H ) :   0.9704 B(  2-C ,  3-C ) :   1.2613
B(  2-C , 21-N ) :   1.2292 B(  3-C ,  4-C ) :   1.1936 B(  3-C ,  6-C ) :   1.1814
B(  3-C , 22-C ) :  -0.1073 B(  4-C ,  5-C ) :   1.5925 B(  4-C , 16-H ) :   0.9592
B(  5-C , 17-H ) :   0.9809 B(  6-C ,  7-C ) :   1.1808 B(  6-C , 22-C ) :   0.8428
B(  7-C ,  8-C ) :   1.2607 B(  7-C , 13-C ) :   1.1929 B(  7-C , 22-C ) :  -0.1097
B(  8-C ,  9-C ) :   1.2508 B(  8-C , 21-N ) :   1.2289 B(  9-C , 10-H ) :   0.9708
B(  9-C , 11-C ) :   1.5312 B( 11-C , 12-C ) :   1.2261 B( 11-C , 18-H ) :   0.9699
B( 12-C , 13-C ) :   1.5919 B( 12-C , 19-H ) :   0.9810 B( 13-C , 20-H ) :   0.9596
B( 21-N , 30-C ) :   0.6988 B( 22-C , 23-C ) :   1.3390 B( 22-C , 24-C ) :   1.3461
B( 23-C , 25-C ) :   1.4326 B( 23-C , 50-H ) :   0.9971 B( 24-C , 26-C ) :   1.4236
B( 24-C , 29-H ) :   0.9985 B( 25-C , 27-C ) :   1.3694 B( 25-C , 45-H ) :   0.9881
B( 26-C , 27-C ) :   1.3790 B( 26-C , 28-H ) :   0.9856 B( 27-C , 46-B ) :   0.9104
B( 30-C , 31-C ) :   1.5129 B( 30-C , 32-C ) :   1.4580 B( 31-C , 33-C ) :   1.3763
B( 31-C , 34-H ) :   0.9736 B( 32-C , 35-C ) :   1.4560 B( 32-C , 36-H ) :   0.9890
B( 33-C , 37-C ) :   1.3188 B( 33-C , 38-H ) :   0.9724 B( 35-C , 37-C ) :   1.3274
B( 35-C , 39-H ) :   0.9932 B( 37-C , 40-O ) :   1.1167 B( 40-O , 41-C ) :   0.8802
B( 41-C , 42-H ) :   0.9744 B( 41-C , 43-H ) :   0.9728 B( 41-C , 44-H ) :   0.9728
B( 46-B , 47-F ) :   0.8461 B( 46-B , 48-F ) :   0.8573 B( 46-B , 49-F ) :   0.8442

MP2 TOTAL ENERGY:    -1455.904759127 Eh

-----------------------------------------------------------------------------
         ABSORPTION SPECTRUM VIA TRANSITION ELECTRIC DIPOLE MOMENTS
-----------------------------------------------------------------------------
State   Energy    Wavelength  fosc         T2        TX        TY        TZ
        (cm-1)      (nm)                 (au**2)    (au)      (au)      (au)
-----------------------------------------------------------------------------
   1   23538.4    424.8   0.299418405   4.18771  -2.04618  -0.00966  -0.02766
   2   29954.3    333.8   0.334678958   3.67828  -0.00029   1.91708   0.05543
   3   28279.3    353.6   0.079521178   0.92574  -0.96164   0.02596  -0.01787
   4   26967.0    370.8   0.002851740   0.03481   0.11731   0.14195  -0.03002
   5   29759.6    336.0   0.007521713   0.08321   0.05958  -0.25738   0.11581
   6   32471.2    308.0   0.050302968   0.51000  -0.00478   0.67574   0.23099
   7   36282.8    275.6   0.306140705   2.77776  -0.01021  -1.66662  -0.00486
   8   39194.0    255.1   0.092638101   0.77812  -0.07033   0.67982   0.55769
   9   38680.8    258.5   0.840474617   7.15326   0.00552  -2.67455  -0.00645
  10   41651.1    240.1   0.014924430   0.11796  -0.03831   0.33169   0.08050
  11   46311.5    215.9   0.159147090   1.13132  -1.05444  -0.00713   0.13935
  12   47093.1    212.3   0.002324011   0.01625   0.04616  -0.03763  -0.11269
  13   46753.8    213.9   0.066922892   0.47123   0.68294  -0.02682   0.06401
  14   44248.9    226.0   0.055641115   0.41397  -0.00034   0.61473  -0.18995
  15   44811.3    223.2   0.026715359   0.19627  -0.44020   0.00255  -0.04984
  16   46996.4    212.8   0.004169392   0.02921   0.16838  -0.00539   0.02876
  17   41965.2    238.3   0.003745106   0.02938   0.02369   0.05810  -0.15951
  18   43454.3    230.1   0.010041121   0.07607  -0.11519  -0.00736  -0.25050
  19   48455.5    206.4   0.854491590   5.80550   2.40912   0.03043   0.02700
  20   45293.0    220.8   0.012935232   0.09402  -0.03963  -0.17565  -0.24819
  21   51312.6    194.9   1.712385299  10.98634   3.31367  -0.03603   0.06821
  22   50987.4    196.1   0.343597575   2.21852   0.17734   0.92707  -1.15222
  23   48953.9    204.3   0.018324968   0.12323   0.13164  -0.02968   0.32408
  24   51001.8    196.1   0.129010924   0.83275  -0.91228  -0.00816  -0.02067
  25   47572.0    210.2   0.012830771   0.08879   0.05699   0.07804  -0.28188
  26   52184.1    191.6   0.415832135   2.62335  -0.12640   0.22303   1.59926
  27   49929.6    200.3   0.055195462   0.36393   0.05509  -0.53853   0.26624
  28   48519.2    206.1   0.055292839   0.37517   0.60737  -0.05474   0.05729
  29   49374.9    202.5   0.001582991   0.01055   0.10079   0.00773   0.01833
  30   51635.5    193.7   0.148895409   0.94931   0.06090   0.95293  -0.19373

FINAL SINGLE POINT ENERGY     -1453.600238747036

DIPOLE MOMENT
-------------
                                X             Y             Z
Electronic contribution:     44.78261      -0.11977      -1.84532
Nuclear contribution   :    -59.85722       0.20415       2.26466
                        -----------------------------------------
Total Dipole Moment    :    -15.07461       0.08438       0.41933
                        -----------------------------------------
Magnitude (a.u.)       :     15.08067
Magnitude (Debye)      :     38.33202

Rotational constants in cm-1:     0.012130     0.001892     0.001710
Rotational constants in MHz :   363.659825    56.710211    51.257227

                             ****ORCA TERMINATED NORMALLY****
TOTAL RUN TIME: 0 days 15 hours 0 minutes 16 seconds 261 msec
