                         Program Version 5.0.2 -  RELEASE  -
|  1> %maxcore 24000
|  2> %pal
|  3>  nprocs= 8
|  4> end
|  5> ! RI-DSD-BLYP D3BJ def2-TZVP def2/J def2-TZVP/C RIJCOSX CPCM TightSCF
|  6> %TDDFT
|  7>    NROOTS   30
|  8>    dcorr 4
|  9>    doscs true
| 10>    scspar 0.333, 1.2, 0.43, 1.24
| 11>    TDA      FALSE
| 12> END
| 13>
| 14> %CPCM
| 15>    SMD          TRUE
| 16>    SMDsolvent   "ACETONITRILE"
| 17> END
| 18>
| 19>
| 20> * xyz 0 1
| 21> C                  -1.33517900    3.59951500    0.01496600
| 22> C                  -1.99941600    2.40569100   -0.06161400
| 23> C                  -1.27852900    1.19839100   -0.05656400
| 24> C                   0.14681400    1.22248100   -0.00378800
| 25> C                   0.78287200    2.48471500    0.11273800
| 26> C                   0.06482600    3.64387900    0.11890300
| 27> C                   0.87039300    0.01271300   -0.03377000
| 28> C                   0.16140500   -1.20443600   -0.09601700
| 29> C                  -1.26500900   -1.19505800   -0.10071500
| 30> C                  -1.97286100   -2.40970700   -0.12793000
| 31> H                  -3.05211800   -2.40114300   -0.11061500
| 32> C                  -1.29378600   -3.59640200   -0.18090600
| 33> C                   0.10968600   -3.62619400   -0.22761800
| 34> C                   0.81490700   -2.45972300   -0.18912700
| 35> H                  -1.90341100    4.52055100    0.01020300
| 36> H                  -3.07689300    2.38605600   -0.12303900
| 37> H                   1.85800200    2.51440200    0.20994300
| 38> H                   0.56938500    4.59585900    0.21170600
| 39> H                  -1.85221400   -4.52318100   -0.20235400
| 40> H                   0.62740400   -4.57268200   -0.30223200
| 41> H                   1.89343600   -2.47802700   -0.24240000
| 42> N                  -1.93575900   -0.00191000   -0.08975100
| 43> C                   2.34016300    0.01909200   -0.00022100
| 44> C                   3.03378200   -0.63478900    1.02206500
| 45> C                   3.07600300    0.67822300   -0.98770700
| 46> C                   4.41729100   -0.61163300    1.05294000
| 47> C                   4.46058100    0.66574600   -0.95363000
| 48> C                   5.17266500    0.02959800    0.06609100
| 49> H                   5.00464300    1.17230600   -1.74368700
| 50> H                   2.55250900    1.18188800   -1.79213400
| 51> C                  -3.38215200   -0.00910800   -0.11245000
| 52> C                  -4.08300000    0.01602500    1.07835000
| 53> C                  -4.04762200   -0.03955400   -1.33022100
| 54> C                  -5.46937200    0.01138600    1.06517500
| 55> H                  -3.54605200    0.03998200    2.01828600
| 56> C                  -5.42627000   -0.04411500   -1.35017500
| 57> H                  -3.48259400   -0.05934600   -2.25346900
| 58> C                  -6.14715000   -0.01833900   -0.15319800
| 59> H                  -6.01021200    0.03110300    2.00014500
| 60> H                  -5.96618700   -0.06701500   -2.28747400
| 61> O                  -7.48941500   -0.02427900   -0.27426500
| 62> C                  -8.25978000    0.00391500    0.91824300
| 63> H                  -9.30015500   -0.00518900    0.60609500
| 64> H                  -8.06384600   -0.87126300    1.54134300
| 65> H                  -8.06624400    0.90924100    1.49749300
| 66> H                   4.92649100   -1.10906800    1.87219600
| 67> B                   6.78084300   -0.00531600    0.09357000
| 68> F                   7.34166600    1.03029900   -0.69206700
| 69> F                   7.26987200   -1.24050000   -0.41765900
| 70> F                   7.28020500    0.12750000    1.41408500
| 71> H                   2.47622100   -1.13985700    1.80237700
| 72> *
| 73>
| 74>
| 75>                          ****END OF INPUT****

CARTESIAN COORDINATES (ANGSTROEM)
---------------------------------
  C     -1.335179    3.599515    0.014966
  C     -1.999416    2.405691   -0.061614
  C     -1.278529    1.198391   -0.056564
  C      0.146814    1.222481   -0.003788
  C      0.782872    2.484715    0.112738
  C      0.064826    3.643879    0.118903
  C      0.870393    0.012713   -0.033770
  C      0.161405   -1.204436   -0.096017
  C     -1.265009   -1.195058   -0.100715
  C     -1.972861   -2.409707   -0.127930
  H     -3.052118   -2.401143   -0.110615
  C     -1.293786   -3.596402   -0.180906
  C      0.109686   -3.626194   -0.227618
  C      0.814907   -2.459723   -0.189127
  H     -1.903411    4.520551    0.010203
  H     -3.076893    2.386056   -0.123039
  H      1.858002    2.514402    0.209943
  H      0.569385    4.595859    0.211706
  H     -1.852214   -4.523181   -0.202354
  H      0.627404   -4.572682   -0.302232
  H      1.893436   -2.478027   -0.242400
  N     -1.935759   -0.001910   -0.089751
  C      2.340163    0.019092   -0.000221
  C      3.033782   -0.634789    1.022065
  C      3.076003    0.678223   -0.987707
  C      4.417291   -0.611633    1.052940
  C      4.460581    0.665746   -0.953630
  C      5.172665    0.029598    0.066091
  H      5.004643    1.172306   -1.743687
  H      2.552509    1.181888   -1.792134
  C     -3.382152   -0.009108   -0.112450
  C     -4.083000    0.016025    1.078350
  C     -4.047622   -0.039554   -1.330221
  C     -5.469372    0.011386    1.065175
  H     -3.546052    0.039982    2.018286
  C     -5.426270   -0.044115   -1.350175
  H     -3.482594   -0.059346   -2.253469
  C     -6.147150   -0.018339   -0.153198
  H     -6.010212    0.031103    2.000145
  H     -5.966187   -0.067015   -2.287474
  O     -7.489415   -0.024279   -0.274265
  C     -8.259780    0.003915    0.918243
  H     -9.300155   -0.005189    0.606095
  H     -8.063846   -0.871263    1.541343
  H     -8.066244    0.909241    1.497493
  H      4.926491   -1.109068    1.872196
  B      6.780843   -0.005316    0.093570
  F      7.341666    1.030299   -0.692067
  F      7.269872   -1.240500   -0.417659
  F      7.280205    0.127500    1.414085
  H      2.476221   -1.139857    1.802377

 Total Charge           Charge          ....    0
 Multiplicity           Mult            ....    1
 Number of Electrons    NEL             ....  222
 Basis Dimension        Dim             .... 1106

ORBITAL ENERGIES
----------------

  NO   OCC          E(Eh)            E(eV)
   0   2.0000     -25.613182      -696.9701
   1   2.0000     -25.612523      -696.9522
   2   2.0000     -25.611271      -696.9181
   3   2.0000     -20.042896      -545.3949
   4   2.0000     -15.184115      -413.1808
   5   2.0000     -10.919220      -297.1271
   6   2.0000     -10.919178      -297.1259
   7   2.0000     -10.905806      -296.7621
   8   2.0000     -10.903357      -296.6954
   9   2.0000     -10.875113      -295.9269
  10   2.0000     -10.868829      -295.7559
  11   2.0000     -10.868796      -295.7550
  12   2.0000     -10.867112      -295.7092
  13   2.0000     -10.855098      -295.3822
  14   2.0000     -10.855091      -295.3821
  15   2.0000     -10.850340      -295.2528
  16   2.0000     -10.850314      -295.2520
  17   2.0000     -10.845578      -295.1232
  18   2.0000     -10.844901      -295.1047
  19   2.0000     -10.844053      -295.0817
  20   2.0000     -10.842316      -295.0344
  21   2.0000     -10.842310      -295.0343
  22   2.0000     -10.838087      -294.9193
  23   2.0000     -10.838068      -294.9188
  24   2.0000     -10.833155      -294.7851
  25   2.0000     -10.832035      -294.7547
  26   2.0000     -10.831982      -294.7532
  27   2.0000     -10.831916      -294.7514
  28   2.0000     -10.820656      -294.4450
  29   2.0000     -10.820267      -294.4344
  30   2.0000     -10.800357      -293.8927
  31   2.0000      -7.321971      -199.2410
  32   2.0000      -1.412652       -38.4402
  33   2.0000      -1.368231       -37.2315
  34   2.0000      -1.365807       -37.1655
  35   2.0000      -1.288777       -35.0694
  36   2.0000      -1.228993       -33.4426
  37   2.0000      -1.087211       -29.5845
  38   2.0000      -1.071860       -29.1668
  39   2.0000      -1.052550       -28.6413
  40   2.0000      -1.039607       -28.2891
  41   2.0000      -1.006193       -27.3799
  42   2.0000      -0.958723       -26.0882
  43   2.0000      -0.943132       -25.6639
  44   2.0000      -0.941323       -25.6147
  45   2.0000      -0.933958       -25.4143
  46   2.0000      -0.920499       -25.0481
  47   2.0000      -0.913024       -24.8446
  48   2.0000      -0.905213       -24.6321
  49   2.0000      -0.855824       -23.2882
  50   2.0000      -0.834597       -22.7105
  51   2.0000      -0.808040       -21.9879
  52   2.0000      -0.793733       -21.5986
  53   2.0000      -0.768984       -20.9251
  54   2.0000      -0.755750       -20.5650
  55   2.0000      -0.744390       -20.2559
  56   2.0000      -0.743299       -20.2262
  57   2.0000      -0.717561       -19.5258
  58   2.0000      -0.696791       -18.9607
  59   2.0000      -0.695622       -18.9288
  60   2.0000      -0.674995       -18.3676
  61   2.0000      -0.672984       -18.3128
  62   2.0000      -0.649966       -17.6865
  63   2.0000      -0.637627       -17.3507
  64   2.0000      -0.624655       -16.9977
  65   2.0000      -0.615834       -16.7577
  66   2.0000      -0.605832       -16.4855
  67   2.0000      -0.603943       -16.4341
  68   2.0000      -0.602946       -16.4070
  69   2.0000      -0.597399       -16.2561
  70   2.0000      -0.592247       -16.1159
  71   2.0000      -0.585981       -15.9453
  72   2.0000      -0.567405       -15.4399
  73   2.0000      -0.565362       -15.3843
  74   2.0000      -0.562974       -15.3193
  75   2.0000      -0.556896       -15.1539
  76   2.0000      -0.556590       -15.1456
  77   2.0000      -0.555246       -15.1090
  78   2.0000      -0.549215       -14.9449
  79   2.0000      -0.546874       -14.8812
  80   2.0000      -0.540718       -14.7137
  81   2.0000      -0.527236       -14.3468
  82   2.0000      -0.525449       -14.2982
  83   2.0000      -0.520868       -14.1736
  84   2.0000      -0.516265       -14.0483
  85   2.0000      -0.507442       -13.8082
  86   2.0000      -0.498096       -13.5539
  87   2.0000      -0.495473       -13.4825
  88   2.0000      -0.494598       -13.4587
  89   2.0000      -0.491305       -13.3691
  90   2.0000      -0.482313       -13.1244
  91   2.0000      -0.478777       -13.0282
  92   2.0000      -0.477181       -12.9847
  93   2.0000      -0.471431       -12.8283
  94   2.0000      -0.468619       -12.7518
  95   2.0000      -0.463238       -12.6053
  96   2.0000      -0.449600       -12.2342
  97   2.0000      -0.445122       -12.1124
  98   2.0000      -0.439527       -11.9601
  99   2.0000      -0.429549       -11.6886
 100   2.0000      -0.427247       -11.6260
 101   2.0000      -0.422565       -11.4986
 102   2.0000      -0.391468       -10.6524
 103   2.0000      -0.386235       -10.5100
 104   2.0000      -0.343316        -9.3421
 105   2.0000      -0.324221        -8.8225
 106   2.0000      -0.319220        -8.6864
 107   2.0000      -0.309413        -8.4196
 108   2.0000      -0.307236        -8.3603
 109   2.0000      -0.295636        -8.0447
 110   2.0000      -0.282733        -7.6936
 111   0.0000      -0.047986        -1.3058
 112   0.0000       0.028789         0.7834
 113   0.0000       0.048211         1.3119
 114   0.0000       0.054496         1.4829
 115   0.0000       0.066180         1.8008

MULLIKEN ATOMIC CHARGES
-----------------------
   0 C :   -0.091645
   1 C :   -0.256600
   2 C :    0.201600
   3 C :    0.097679
   4 C :   -0.269218
   5 C :   -0.164367
   6 C :    0.336181
   7 C :    0.097281
   8 C :    0.201796
   9 C :   -0.257600
  10 H :    0.186636
  11 C :   -0.090693
  12 C :   -0.164145
  13 C :   -0.268262
  14 H :    0.179182
  15 H :    0.186897
  16 H :    0.197713
  17 H :    0.173575
  18 H :    0.179198
  19 H :    0.173506
  20 H :    0.197167
  21 N :    0.125576
  22 C :    0.045125
  23 C :   -0.298223
  24 C :   -0.289006
  25 C :   -0.243507
  26 C :   -0.248808
  27 C :    0.001937
  28 H :    0.149275
  29 H :    0.171093
  30 C :    0.081939
  31 C :   -0.251924
  32 C :   -0.227218
  33 C :   -0.234819
  34 H :    0.173194
  35 C :   -0.199018
  36 H :    0.169728
  37 C :    0.384441
  38 H :    0.174261
  39 H :    0.157495
  40 O :   -0.347990
  41 C :   -0.186729
  42 H :    0.152849
  43 H :    0.138664
  44 H :    0.138608
  45 H :    0.150057
  46 B :    0.749714
  47 F :   -0.483186
  48 F :   -0.483809
  49 F :   -0.486510
  50 H :    0.170909
Sum of atomic charges:    0.0000000

LOEWDIN ATOMIC CHARGES
----------------------
   0 C :   -0.078976
   1 C :   -0.101841
   2 C :   -0.055676
   3 C :   -0.054463
   4 C :   -0.058015
   5 C :   -0.129723
   6 C :    0.069094
   7 C :   -0.054554
   8 C :   -0.055851
   9 C :   -0.101886
  10 H :    0.169019
  11 C :   -0.079009
  12 C :   -0.129625
  13 C :   -0.058021
  14 H :    0.162628
  15 H :    0.169032
  16 H :    0.169680
  17 H :    0.157759
  18 H :    0.162634
  19 H :    0.157772
  20 H :    0.169725
  21 N :    0.350862
  22 C :   -0.111806
  23 C :   -0.095149
  24 C :   -0.094845
  25 C :   -0.106959
  26 C :   -0.108859
  27 C :   -0.053472
  28 H :    0.153836
  29 H :    0.159388
  30 C :   -0.173140
  31 C :   -0.084634
  32 C :   -0.087570
  33 C :   -0.125919
  34 H :    0.165433
  35 C :   -0.110035
  36 H :    0.165048
  37 C :   -0.233350
  38 H :    0.160984
  39 H :    0.157533
  40 O :    0.204017
  41 C :   -0.291069
  42 H :    0.115210
  43 H :    0.111640
  44 H :    0.111644
  45 H :    0.154938
  46 B :   -1.222272
  47 F :    0.106593
  48 F :    0.091138
  49 F :    0.101691
  50 H :    0.159420

  Mayer bond orders larger than 0.100000
B(  0-C ,  1-C ) :   1.5329 B(  0-C ,  5-C ) :   1.2248 B(  0-C , 14-H ) :   0.9708
B(  1-C ,  2-C ) :   1.2521 B(  1-C , 15-H ) :   0.9727 B(  2-C ,  3-C ) :   1.2599
B(  2-C , 21-N ) :   1.2296 B(  3-C ,  4-C ) :   1.1922 B(  3-C ,  6-C ) :   1.1810
B(  3-C , 22-C ) :  -0.1130 B(  4-C ,  5-C ) :   1.5957 B(  4-C , 16-H ) :   0.9615
B(  5-C , 17-H ) :   0.9820 B(  6-C ,  7-C ) :   1.1805 B(  6-C , 22-C ) :   0.8378
B(  7-C ,  8-C ) :   1.2592 B(  7-C , 13-C ) :   1.1914 B(  7-C , 22-C ) :  -0.1155
B(  8-C ,  9-C ) :   1.2515 B(  8-C , 21-N ) :   1.2293 B(  9-C , 10-H ) :   0.9730
B(  9-C , 11-C ) :   1.5330 B( 11-C , 12-C ) :   1.2246 B( 11-C , 18-H ) :   0.9707
B( 12-C , 13-C ) :   1.5952 B( 12-C , 19-H ) :   0.9822 B( 13-C , 20-H ) :   0.9619
B( 21-N , 30-C ) :   0.6991 B( 22-C , 23-C ) :   1.3413 B( 22-C , 24-C ) :   1.3485
B( 23-C , 25-C ) :   1.4342 B( 23-C , 50-H ) :   0.9979 B( 24-C , 26-C ) :   1.4244
B( 24-C , 29-H ) :   0.9992 B( 25-C , 27-C ) :   1.3721 B( 25-C , 45-H ) :   0.9894
B( 26-C , 27-C ) :   1.3810 B( 26-C , 28-H ) :   0.9870 B( 27-C , 46-B ) :   0.9092
B( 30-C , 31-C ) :   1.5167 B( 30-C , 32-C ) :   1.4606 B( 31-C , 33-C ) :   1.3781
B( 31-C , 34-H ) :   0.9744 B( 32-C , 35-C ) :   1.4580 B( 32-C , 36-H ) :   0.9894
B( 33-C , 37-C ) :   1.3227 B( 33-C , 38-H ) :   0.9743 B( 35-C , 37-C ) :   1.3286
B( 35-C , 39-H ) :   0.9945 B( 37-C , 40-O ) :   1.1137 B( 40-O , 41-C ) :   0.8783
B( 41-C , 42-H ) :   0.9753 B( 41-C , 43-H ) :   0.9740 B( 41-C , 44-H ) :   0.9739
B( 46-B , 47-F ) :   0.8407 B( 46-B , 48-F ) :   0.8520 B( 46-B , 49-F ) :   0.8387

MP2 TOTAL ENERGY:    -1455.540321212 Eh

-----------------------------------------------------------------------------
         ABSORPTION SPECTRUM VIA TRANSITION ELECTRIC DIPOLE MOMENTS
-----------------------------------------------------------------------------
State   Energy    Wavelength  fosc         T2        TX        TY        TZ
        (cm-1)      (nm)                 (au**2)    (au)      (au)      (au)
-----------------------------------------------------------------------------
   1   15773.3    634.0   0.202623879   4.22906  -2.05626  -0.00977  -0.02770
   2   21300.1    469.5   0.240644412   3.71937   0.00885  -1.92762  -0.05984
   3   19335.4    517.2   0.057582434   0.98042   0.98997  -0.00597   0.01873
   4   19413.0    515.1   0.012358319   0.20958   0.02661   0.44981  -0.08087
   5   13941.5    717.3   0.001321358   0.03120  -0.12611   0.11620  -0.04238
   6   22074.2    453.0   0.032826404   0.48957   0.00363  -0.65095  -0.25657
   7   27950.7    357.8   0.025729342   0.30305   0.07152   0.17748  -0.51617
   8   27457.3    364.2   0.565169607   6.77637  -0.01884   2.59521   0.20228
   9   25536.4    391.6   0.283255913   3.65170  -0.00222   1.91069  -0.03086
  10   30152.9    331.6   0.015070313   0.16454  -0.03877   0.39293   0.09297
  11   43185.6    231.6   0.125941868   0.96008   0.96830  -0.00256  -0.14986
  12   44367.7    225.4   0.001358186   0.01008  -0.04205  -0.03952  -0.08215
  13   42220.1    236.9   0.074685107   0.58236   0.76024  -0.01215   0.06512
  14   35304.2    283.3   0.036631266   0.34159  -0.00839   0.54834  -0.20209
  15   32767.1    305.2   0.021526613   0.21628   0.46330  -0.00144   0.04033
  16   38211.5    261.7   0.003095961   0.02667   0.16081  -0.00632   0.02781
  17   29784.9    335.7   0.005948507   0.06575  -0.02839  -0.11006   0.22985
  18   40605.0    246.3   0.728114309   5.90331   2.42948   0.03039   0.00173
  19   29251.1    341.9   0.064993643   0.73148  -0.75890  -0.01387  -0.39416
  20   33170.8    301.5   0.016975491   0.16848  -0.10847  -0.07397   0.38890
  21   44829.9    223.1   1.465676968  10.76332   3.28068  -0.01805  -0.01166
  22   43531.0    229.7   0.293257239   2.21781  -0.07553  -0.90158   1.18290
  23   43043.0    232.3   0.086658782   0.66280   0.81231  -0.02346  -0.04906
  24   38344.4    260.8   0.015069814   0.12938   0.29098   0.15736   0.14125
  25   44614.1    224.1   0.365875980   2.69983  -0.08326   0.11488   1.63698
  26   35715.1    280.0   0.011524220   0.10623   0.04356   0.15897  -0.28118
  27   39237.5    254.9   0.091824215   0.77043   0.05572  -0.87453   0.05024
  28   39330.1    254.3   0.011933691   0.09989  -0.19975   0.24034  -0.04717
  29   40756.2    245.4   0.065068238   0.52559  -0.08451  -0.70933   0.12371
  30   33439.4    299.0   0.017341180   0.17072   0.41120   0.02812   0.02910

Dispersion correction           -0.049873213
FINAL SINGLE POINT ENERGY     -1452.903558939283

DIPOLE MOMENT
-------------
                                X             Y             Z
Electronic contribution:     44.80024      -0.11945      -1.84357
Nuclear contribution   :    -59.85722       0.20415       2.26466
                        -----------------------------------------
Total Dipole Moment    :    -15.05698       0.08470       0.42108
                        -----------------------------------------
Magnitude (a.u.)       :     15.06310
Magnitude (Debye)      :     38.28736

Rotational constants in cm-1:     0.012130     0.001892     0.001710
Rotational constants in MHz :   363.659825    56.710211    51.257227

                             ****ORCA TERMINATED NORMALLY****
TOTAL RUN TIME: 0 days 3 hours 2 minutes 45 seconds 220 msec
