                         Program Version 5.0.2 -  RELEASE  -
|  1> %maxcore 20000
|  2> %pal
|  3>  nprocs= 6
|  4> end
|  5> ! RI-SCS-PBE-QIDH   def2-TZVP def2/J def2-TZVP/C RIJCOSX CPCM TightSCF
|  6> %TDDFT
|  7>    NROOTS   30
|  8>    dcorr 4
|  9>    doscs true
| 10>    TDA      FALSE
| 11> END
| 12>
| 13> %CPCM
| 14>    SMD          TRUE
| 15>    SMDsolvent   "ACETONITRILE"
| 16> END
| 17>
| 18>
| 19> * xyz 0 1
| 20> C                  -1.33517900    3.59951500    0.01496600
| 21> C                  -1.99941600    2.40569100   -0.06161400
| 22> C                  -1.27852900    1.19839100   -0.05656400
| 23> C                   0.14681400    1.22248100   -0.00378800
| 24> C                   0.78287200    2.48471500    0.11273800
| 25> C                   0.06482600    3.64387900    0.11890300
| 26> C                   0.87039300    0.01271300   -0.03377000
| 27> C                   0.16140500   -1.20443600   -0.09601700
| 28> C                  -1.26500900   -1.19505800   -0.10071500
| 29> C                  -1.97286100   -2.40970700   -0.12793000
| 30> H                  -3.05211800   -2.40114300   -0.11061500
| 31> C                  -1.29378600   -3.59640200   -0.18090600
| 32> C                   0.10968600   -3.62619400   -0.22761800
| 33> C                   0.81490700   -2.45972300   -0.18912700
| 34> H                  -1.90341100    4.52055100    0.01020300
| 35> H                  -3.07689300    2.38605600   -0.12303900
| 36> H                   1.85800200    2.51440200    0.20994300
| 37> H                   0.56938500    4.59585900    0.21170600
| 38> H                  -1.85221400   -4.52318100   -0.20235400
| 39> H                   0.62740400   -4.57268200   -0.30223200
| 40> H                   1.89343600   -2.47802700   -0.24240000
| 41> N                  -1.93575900   -0.00191000   -0.08975100
| 42> C                   2.34016300    0.01909200   -0.00022100
| 43> C                   3.03378200   -0.63478900    1.02206500
| 44> C                   3.07600300    0.67822300   -0.98770700
| 45> C                   4.41729100   -0.61163300    1.05294000
| 46> C                   4.46058100    0.66574600   -0.95363000
| 47> C                   5.17266500    0.02959800    0.06609100
| 48> H                   5.00464300    1.17230600   -1.74368700
| 49> H                   2.55250900    1.18188800   -1.79213400
| 50> C                  -3.38215200   -0.00910800   -0.11245000
| 51> C                  -4.08300000    0.01602500    1.07835000
| 52> C                  -4.04762200   -0.03955400   -1.33022100
| 53> C                  -5.46937200    0.01138600    1.06517500
| 54> H                  -3.54605200    0.03998200    2.01828600
| 55> C                  -5.42627000   -0.04411500   -1.35017500
| 56> H                  -3.48259400   -0.05934600   -2.25346900
| 57> C                  -6.14715000   -0.01833900   -0.15319800
| 58> H                  -6.01021200    0.03110300    2.00014500
| 59> H                  -5.96618700   -0.06701500   -2.28747400
| 60> O                  -7.48941500   -0.02427900   -0.27426500
| 61> C                  -8.25978000    0.00391500    0.91824300
| 62> H                  -9.30015500   -0.00518900    0.60609500
| 63> H                  -8.06384600   -0.87126300    1.54134300
| 64> H                  -8.06624400    0.90924100    1.49749300
| 65> H                   4.92649100   -1.10906800    1.87219600
| 66> B                   6.78084300   -0.00531600    0.09357000
| 67> F                   7.34166600    1.03029900   -0.69206700
| 68> F                   7.26987200   -1.24050000   -0.41765900
| 69> F                   7.28020500    0.12750000    1.41408500
| 70> H                   2.47622100   -1.13985700    1.80237700
| 71> *
| 72>
| 73>
| 74>                          ****END OF INPUT****

CARTESIAN COORDINATES (ANGSTROEM)
---------------------------------
  C     -1.335179    3.599515    0.014966
  C     -1.999416    2.405691   -0.061614
  C     -1.278529    1.198391   -0.056564
  C      0.146814    1.222481   -0.003788
  C      0.782872    2.484715    0.112738
  C      0.064826    3.643879    0.118903
  C      0.870393    0.012713   -0.033770
  C      0.161405   -1.204436   -0.096017
  C     -1.265009   -1.195058   -0.100715
  C     -1.972861   -2.409707   -0.127930
  H     -3.052118   -2.401143   -0.110615
  C     -1.293786   -3.596402   -0.180906
  C      0.109686   -3.626194   -0.227618
  C      0.814907   -2.459723   -0.189127
  H     -1.903411    4.520551    0.010203
  H     -3.076893    2.386056   -0.123039
  H      1.858002    2.514402    0.209943
  H      0.569385    4.595859    0.211706
  H     -1.852214   -4.523181   -0.202354
  H      0.627404   -4.572682   -0.302232
  H      1.893436   -2.478027   -0.242400
  N     -1.935759   -0.001910   -0.089751
  C      2.340163    0.019092   -0.000221
  C      3.033782   -0.634789    1.022065
  C      3.076003    0.678223   -0.987707
  C      4.417291   -0.611633    1.052940
  C      4.460581    0.665746   -0.953630
  C      5.172665    0.029598    0.066091
  H      5.004643    1.172306   -1.743687
  H      2.552509    1.181888   -1.792134
  C     -3.382152   -0.009108   -0.112450
  C     -4.083000    0.016025    1.078350
  C     -4.047622   -0.039554   -1.330221
  C     -5.469372    0.011386    1.065175
  H     -3.546052    0.039982    2.018286
  C     -5.426270   -0.044115   -1.350175
  H     -3.482594   -0.059346   -2.253469
  C     -6.147150   -0.018339   -0.153198
  H     -6.010212    0.031103    2.000145
  H     -5.966187   -0.067015   -2.287474
  O     -7.489415   -0.024279   -0.274265
  C     -8.259780    0.003915    0.918243
  H     -9.300155   -0.005189    0.606095
  H     -8.063846   -0.871263    1.541343
  H     -8.066244    0.909241    1.497493
  H      4.926491   -1.109068    1.872196
  B      6.780843   -0.005316    0.093570
  F      7.341666    1.030299   -0.692067
  F      7.269872   -1.240500   -0.417659
  F      7.280205    0.127500    1.414085
  H      2.476221   -1.139857    1.802377

 Total Charge           Charge          ....    0
 Multiplicity           Mult            ....    1
 Number of Electrons    NEL             ....  222
 Basis Dimension        Dim             .... 1106

ORBITAL ENERGIES
----------------

  NO   OCC          E(Eh)            E(eV)
   0   2.0000     -25.604216      -696.7262
   1   2.0000     -25.603534      -696.7076
   2   2.0000     -25.602213      -696.6716
   3   2.0000     -20.039867      -545.3125
   4   2.0000     -15.184089      -413.1801
   5   2.0000     -10.914595      -297.0012
   6   2.0000     -10.914553      -297.0001
   7   2.0000     -10.901841      -296.6542
   8   2.0000     -10.897562      -296.5377
   9   2.0000     -10.871039      -295.8160
  10   2.0000     -10.864928      -295.6497
  11   2.0000     -10.864895      -295.6488
  12   2.0000     -10.857941      -295.4596
  13   2.0000     -10.849546      -295.2312
  14   2.0000     -10.849539      -295.2310
  15   2.0000     -10.845032      -295.1083
  16   2.0000     -10.845007      -295.1076
  17   2.0000     -10.841703      -295.0177
  18   2.0000     -10.839548      -294.9591
  19   2.0000     -10.838650      -294.9347
  20   2.0000     -10.837176      -294.8946
  21   2.0000     -10.837168      -294.8943
  22   2.0000     -10.832653      -294.7715
  23   2.0000     -10.832637      -294.7710
  24   2.0000     -10.827588      -294.6336
  25   2.0000     -10.826828      -294.6130
  26   2.0000     -10.826781      -294.6117
  27   2.0000     -10.826274      -294.5979
  28   2.0000     -10.815383      -294.3015
  29   2.0000     -10.814990      -294.2908
  30   2.0000     -10.796333      -293.7831
  31   2.0000      -7.310735      -198.9352
  32   2.0000      -1.422171       -38.6992
  33   2.0000      -1.377571       -37.4856
  34   2.0000      -1.375127       -37.4191
  35   2.0000      -1.300622       -35.3917
  36   2.0000      -1.242241       -33.8031
  37   2.0000      -1.099586       -29.9213
  38   2.0000      -1.084084       -29.4994
  39   2.0000      -1.064601       -28.9693
  40   2.0000      -1.051564       -28.6145
  41   2.0000      -1.017954       -27.6999
  42   2.0000      -0.970117       -26.3982
  43   2.0000      -0.954474       -25.9726
  44   2.0000      -0.952386       -25.9157
  45   2.0000      -0.944752       -25.7080
  46   2.0000      -0.931371       -25.3439
  47   2.0000      -0.923835       -25.1388
  48   2.0000      -0.915992       -24.9254
  49   2.0000      -0.866171       -23.5697
  50   2.0000      -0.845060       -22.9953
  51   2.0000      -0.818815       -22.2811
  52   2.0000      -0.804366       -21.8879
  53   2.0000      -0.778829       -21.1930
  54   2.0000      -0.765528       -20.8311
  55   2.0000      -0.754335       -20.5265
  56   2.0000      -0.753234       -20.4965
  57   2.0000      -0.727281       -19.7903
  58   2.0000      -0.706222       -19.2173
  59   2.0000      -0.706131       -19.2148
  60   2.0000      -0.684348       -18.6221
  61   2.0000      -0.682845       -18.5812
  62   2.0000      -0.659690       -17.9511
  63   2.0000      -0.647133       -17.6094
  64   2.0000      -0.634379       -17.2623
  65   2.0000      -0.624462       -16.9925
  66   2.0000      -0.613704       -16.6997
  67   2.0000      -0.612314       -16.6619
  68   2.0000      -0.610562       -16.6142
  69   2.0000      -0.605903       -16.4875
  70   2.0000      -0.601006       -16.3542
  71   2.0000      -0.594780       -16.1848
  72   2.0000      -0.577092       -15.7035
  73   2.0000      -0.573028       -15.5929
  74   2.0000      -0.571193       -15.5430
  75   2.0000      -0.564850       -15.3703
  76   2.0000      -0.564479       -15.3603
  77   2.0000      -0.564021       -15.3478
  78   2.0000      -0.556740       -15.1497
  79   2.0000      -0.555011       -15.1026
  80   2.0000      -0.548066       -14.9136
  81   2.0000      -0.534071       -14.5328
  82   2.0000      -0.532302       -14.4847
  83   2.0000      -0.528135       -14.3713
  84   2.0000      -0.524301       -14.2669
  85   2.0000      -0.514969       -14.0130
  86   2.0000      -0.505161       -13.7461
  87   2.0000      -0.502247       -13.6668
  88   2.0000      -0.501614       -13.6496
  89   2.0000      -0.498004       -13.5514
  90   2.0000      -0.491645       -13.3783
  91   2.0000      -0.488816       -13.3014
  92   2.0000      -0.485551       -13.2125
  93   2.0000      -0.478923       -13.0322
  94   2.0000      -0.476119       -12.9559
  95   2.0000      -0.469820       -12.7845
  96   2.0000      -0.459229       -12.4963
  97   2.0000      -0.451647       -12.2899
  98   2.0000      -0.449375       -12.2281
  99   2.0000      -0.436288       -11.8720
 100   2.0000      -0.434606       -11.8262
 101   2.0000      -0.431288       -11.7359
 102   2.0000      -0.402567       -10.9544
 103   2.0000      -0.392425       -10.6784
 104   2.0000      -0.354297        -9.6409
 105   2.0000      -0.335131        -9.1194
 106   2.0000      -0.330357        -8.9895
 107   2.0000      -0.320294        -8.7156
 108   2.0000      -0.318374        -8.6634
 109   2.0000      -0.305676        -8.3179
 110   2.0000      -0.293372        -7.9831
 111   0.0000      -0.058748        -1.5986
 112   0.0000       0.018766         0.5107
 113   0.0000       0.039213         1.0670
 114   0.0000       0.044848         1.2204
 115   0.0000       0.057105         1.5539

MULLIKEN ATOMIC CHARGES
-----------------------
   0 C :   -0.093898
   1 C :   -0.281859
   2 C :    0.208623
   3 C :    0.090754
   4 C :   -0.283121
   5 C :   -0.171728
   6 C :    0.340730
   7 C :    0.090308
   8 C :    0.208767
   9 C :   -0.282885
  10 H :    0.194670
  11 C :   -0.092989
  12 C :   -0.171461
  13 C :   -0.282088
  14 H :    0.186415
  15 H :    0.194877
  16 H :    0.205788
  17 H :    0.182539
  18 H :    0.186436
  19 H :    0.182461
  20 H :    0.205329
  21 N :    0.205615
  22 C :    0.031790
  23 C :   -0.312777
  24 C :   -0.304168
  25 C :   -0.254694
  26 C :   -0.262389
  27 C :    0.014837
  28 H :    0.160029
  29 H :    0.182662
  30 C :    0.025882
  31 C :   -0.252586
  32 C :   -0.223376
  33 C :   -0.253173
  34 H :    0.181465
  35 C :   -0.223076
  36 H :    0.178058
  37 C :    0.388237
  38 H :    0.185231
  39 H :    0.166536
  40 O :   -0.316871
  41 C :   -0.233159
  42 H :    0.164879
  43 H :    0.150446
  44 H :    0.150401
  45 H :    0.160668
  46 B :    0.701080
  47 F :   -0.469587
  48 F :   -0.469572
  49 F :   -0.472602
  50 H :    0.182548
Sum of atomic charges:    0.0000000

LOEWDIN ATOMIC CHARGES
----------------------
   0 C :   -0.081241
   1 C :   -0.103243
   2 C :   -0.059556
   3 C :   -0.056765
   4 C :   -0.060548
   5 C :   -0.131003
   6 C :    0.065183
   7 C :   -0.056854
   8 C :   -0.059722
   9 C :   -0.103286
  10 H :    0.172528
  11 C :   -0.081264
  12 C :   -0.130900
  13 C :   -0.060549
  14 H :    0.166167
  15 H :    0.172540
  16 H :    0.172976
  17 H :    0.161507
  18 H :    0.166173
  19 H :    0.161519
  20 H :    0.173024
  21 N :    0.353921
  22 C :   -0.116705
  23 C :   -0.097865
  24 C :   -0.097556
  25 C :   -0.108504
  26 C :   -0.110334
  27 C :   -0.056903
  28 H :    0.157715
  29 H :    0.163370
  30 C :   -0.180164
  31 C :   -0.087310
  32 C :   -0.090259
  33 C :   -0.127506
  34 H :    0.169344
  35 C :   -0.111294
  36 H :    0.168945
  37 C :   -0.238749
  38 H :    0.164573
  39 H :    0.161459
  40 O :    0.209281
  41 C :   -0.301210
  42 H :    0.118471
  43 H :    0.115053
  44 H :    0.115060
  45 H :    0.158836
  46 B :   -1.226957
  47 F :    0.108473
  48 F :    0.093092
  49 F :    0.103637
  50 H :    0.163403

  Mayer bond orders larger than 0.100000
B(  0-C ,  1-C ) :   1.5292 B(  0-C ,  5-C ) :   1.2236 B(  0-C , 14-H ) :   0.9675
B(  1-C ,  2-C ) :   1.2517 B(  1-C , 15-H ) :   0.9702 B(  2-C ,  3-C ) :   1.2601
B(  2-C , 21-N ) :   1.2335 B(  3-C ,  4-C ) :   1.1809 B(  3-C ,  6-C ) :   1.1848
B(  3-C , 22-C ) :  -0.1163 B(  4-C ,  5-C ) :   1.5946 B(  4-C , 16-H ) :   0.9591
B(  5-C , 17-H ) :   0.9775 B(  6-C ,  7-C ) :   1.1840 B(  6-C , 22-C ) :   0.8341
B(  7-C ,  8-C ) :   1.2594 B(  7-C , 13-C ) :   1.1801 B(  7-C , 22-C ) :  -0.1188
B(  8-C ,  9-C ) :   1.2511 B(  8-C , 21-N ) :   1.2332 B(  9-C , 10-H ) :   0.9705
B(  9-C , 11-C ) :   1.5294 B( 11-C , 12-C ) :   1.2233 B( 11-C , 18-H ) :   0.9674
B( 12-C , 13-C ) :   1.5941 B( 12-C , 19-H ) :   0.9777 B( 13-C , 20-H ) :   0.9595
B( 21-N , 30-C ) :   0.7250 B( 22-C , 23-C ) :   1.3462 B( 22-C , 24-C ) :   1.3528
B( 23-C , 25-C ) :   1.4336 B( 23-C , 50-H ) :   0.9936 B( 24-C , 26-C ) :   1.4246
B( 24-C , 29-H ) :   0.9950 B( 25-C , 27-C ) :   1.3705 B( 25-C , 45-H ) :   0.9861
B( 26-C , 27-C ) :   1.3800 B( 26-C , 28-H ) :   0.9835 B( 27-C , 46-B ) :   0.9058
B( 30-C , 31-C ) :   1.5360 B( 30-C , 32-C ) :   1.4763 B( 31-C , 33-C ) :   1.3949
B( 31-C , 34-H ) :   0.9697 B( 32-C , 35-C ) :   1.4595 B( 32-C , 36-H ) :   0.9850
B( 33-C , 37-C ) :   1.3225 B( 33-C , 38-H ) :   0.9653 B( 35-C , 37-C ) :   1.3243
B( 35-C , 39-H ) :   0.9932 B( 37-C , 40-O ) :   1.1260 B( 40-O , 41-C ) :   0.8930
B( 41-C , 42-H ) :   0.9703 B( 41-C , 43-H ) :   0.9700 B( 41-C , 44-H ) :   0.9700
B( 46-B , 47-F ) :   0.8604 B( 46-B , 48-F ) :   0.8714 B( 46-B , 49-F ) :   0.8585

MP2 TOTAL ENERGY:    -1455.454046014 Eh

-----------------------------------------------------------------------------
         ABSORPTION SPECTRUM VIA TRANSITION ELECTRIC DIPOLE MOMENTS
-----------------------------------------------------------------------------
State   Energy    Wavelength  fosc         T2        TX        TY        TZ
        (cm-1)      (nm)                 (au**2)    (au)      (au)      (au)
-----------------------------------------------------------------------------
   1   23400.9    427.3   0.298190806   4.19506   2.04798   0.00965   0.02760
   2   28867.2    346.4   0.325560209   3.71280   0.00842  -1.92595  -0.05863
   3   28869.8    346.4   0.086573581   0.98723  -0.99339   0.00742  -0.01879
   4   29551.5    338.4   0.012938961   0.14414   0.07148   0.36609  -0.07078
   5   29181.9    342.7   0.006774423   0.07642   0.11659  -0.24037   0.07108
   6   32478.4    307.9   0.049567338   0.50243  -0.00363   0.66227   0.25261
   7   37984.3    263.3   0.073492340   0.63696   0.06125   0.64831  -0.46141
   8   38135.9    262.2   0.678073902   5.85355  -0.03118   2.39958   0.30757
   9   38387.5    260.5   0.491863834   4.21824  -0.00466   2.05369  -0.02417
  10   40471.2    247.1   0.015216457   0.12378  -0.03599   0.34176   0.07539
  11   46266.1    216.1   0.158372681   1.12692   1.05061   0.00078  -0.15215
  12   47011.9    212.7   0.001845965   0.01293  -0.05640  -0.03716  -0.09146
  13   46693.3    214.2   0.075028584   0.52899  -0.72430   0.01591  -0.06425
  14   44864.2    222.9   0.050922916   0.37367   0.00786  -0.57516   0.20688
  15   44309.8    225.7   0.031817682   0.23640  -0.48414   0.00109  -0.04478
  16   46753.0    213.9   0.002312933   0.01629   0.12390  -0.00675   0.02981
  17   43483.4    230.0   0.002448213   0.01854  -0.02668  -0.03961   0.12749
  18   49164.9    203.4   0.837818487   5.61010  -2.36833  -0.03122   0.01094
  19   44843.8    223.0   0.074838896   0.54942   0.65192   0.00614   0.35266
  20   46829.1    213.5   0.024563140   0.17268   0.05012   0.05902  -0.40827
  21   51662.9    193.6   1.711716146  10.90758  -3.30262   0.01115  -0.01211
  22   51410.1    194.5   0.331259861   2.12127  -0.06351  -0.89146   1.15002
  23   51514.1    194.1   0.115125554   0.73573  -0.85474   0.04970  -0.05176
  24   48848.9    204.7   0.037606303   0.25344  -0.21224  -0.12317   0.43957
  25   50256.0    199.0   0.017895825   0.11723   0.28038   0.16057   0.11329
  26   52630.5    190.0   0.430483174   2.69274   0.09358  -0.11488  -1.63425
  27   50793.8    196.9   0.008755242   0.05675   0.23715   0.00102   0.02244
  28   51053.8    195.9   0.114896859   0.74089   0.05025  -0.85505   0.08524
  29   52200.3    191.6   0.103030714   0.64978   0.00174  -0.79228   0.14860
  30   49391.6    202.5   0.028733677   0.19152  -0.43287  -0.06074  -0.02125

FINAL SINGLE POINT ENERGY     -1453.371433998309

DIPOLE MOMENT
-------------
                                X             Y             Z
Electronic contribution:     44.76756      -0.12024      -1.84687
Nuclear contribution   :    -59.85722       0.20415       2.26466
                        -----------------------------------------
Total Dipole Moment    :    -15.08966       0.08391       0.41779
                        -----------------------------------------
Magnitude (a.u.)       :     15.09567
Magnitude (Debye)      :     38.37015

Rotational constants in cm-1:     0.012130     0.001892     0.001710
Rotational constants in MHz :   363.659825    56.710211    51.257227

                             ****ORCA TERMINATED NORMALLY****
TOTAL RUN TIME: 0 days 9 hours 44 minutes 13 seconds 235 msec
