                         Program Version 5.0.2 -  RELEASE  -
|  1> %maxcore 3200
|  2> %pal
|  3>  nprocs= 8
|  4> end
|  5> ! RI-wB2PLYP def2-TZVP def2/J def2-TZVP/C RIJCOSX CPCM TightSCF
|  6> %TDDFT DCORR 1
|  7>    NROOTS   30
|  8>
|  9>    TDA      FALSE
| 10> END
| 11>
| 12> %CPCM
| 13>    SMD          TRUE
| 14>    SMDsolvent   "ACETONITRILE"
| 15> END
| 16>
| 17>
| 18> * xyz 0 1
| 19> C                  -9.00401300   -3.45972300   -0.95086600
| 20> C                  -7.63854400   -3.40735100   -0.97340000
| 21> C                  -6.95389500   -2.21556700   -0.64148600
| 22> C                  -7.70513900   -1.05535000   -0.28362600
| 23> C                  -9.11792300   -1.15104000   -0.26657500
| 24> C                  -9.74916800   -2.32061600   -0.59211100
| 25> C                  -5.55570300   -2.15492800   -0.64922400
| 26> C                  -7.01965200    0.14399700    0.04387500
| 27> C                  -5.62670900    0.17139900    0.01531000
| 28> C                  -4.87926900   -0.99966300   -0.32608000
| 29> C                  -3.43028800   -0.93425200   -0.31586000
| 30> C                  -2.81588900    0.27267600    0.01639600
| 31> C                  -4.91696300    1.41973000    0.32027700
| 32> H                  -5.01294700   -3.05174000   -0.91711200
| 33> H                  -9.51776700   -4.37785300   -1.20633100
| 34> H                  -7.05396000   -4.27837900   -1.24399600
| 35> H                  -9.70304400   -0.28369000    0.00875100
| 36> H                 -10.83022900   -2.37250100   -0.57316100
| 37> C                  -7.84321600    1.32148000    0.42166800
| 38> C                  -8.38948100    2.14727900   -0.55716900
| 39> C                  -8.14010300    1.57038100    1.75912000
| 40> C                  -9.19175300    3.22134600   -0.20252800
| 41> H                  -8.17503100    1.94984300   -1.60101800
| 42> C                  -8.94472400    2.64251400    2.11256800
| 43> H                  -7.72762800    0.92387800    2.52492700
| 44> C                  -9.46957000    3.47480000    1.13340700
| 45> H                  -9.60365900    3.86060600   -0.97368900
| 46> H                  -9.16347200    2.82748400    3.15704900
| 47> H                 -10.09701500    4.31279200    1.40975300
| 48> O                  -5.40871200    2.49020500    0.57314400
| 49> O                  -3.54524600    1.38704900    0.31393300
| 50> C                  -2.58393500   -2.01262300   -0.60955500
| 51> C                  -1.44256000    0.42432200    0.06252500
| 52> C                  -0.61704600   -0.66201200   -0.23175200
| 53> C                  -1.21572600   -1.88930600   -0.57136500
| 54> H                  -0.58751800   -2.73888200   -0.80183500
| 55> H                  -3.01173700   -2.97047400   -0.87121700
| 56> H                  -1.02387000    1.38546400    0.32733300
| 57> C                   0.78795100   -0.53255300   -0.18824000
| 58> C                   1.99485100   -0.42870200   -0.15181500
| 59> C                   3.40088500   -0.30477700   -0.10835300
| 60> C                   4.22813300   -1.40394500   -0.38212200
| 61> C                   4.00369500    0.92121100    0.20958800
| 62> C                   5.60160600   -1.28010300   -0.34635600
| 63> H                   3.77994100   -2.35487600   -0.63826100
| 64> C                   5.37705100    1.04135200    0.25641400
| 65> H                   3.38056600    1.77679800    0.43406600
| 66> C                   6.18823500   -0.05717800   -0.02432500
| 67> H                   6.22870100   -2.12889600   -0.58459500
| 68> H                   5.82923800    1.98597700    0.52769800
| 69> C                   8.33542200    1.07760200   -0.58644300
| 70> C                   8.46761900   -0.79231100    0.66957800
| 71> C                   7.91100400    2.13350700   -1.38413300
| 72> C                   9.70363400    0.85995300   -0.31755900
| 73> C                   8.19385500   -1.91247800    1.44530000
| 74> C                   9.78748000   -0.32788100    0.48471100
| 75> C                   8.87793600    2.98718500   -1.88994000
| 76> H                   6.86458600    2.28489900   -1.61243800
| 77> C                  10.65501700    1.73353200   -0.83791600
| 78> C                   9.26662900   -2.57791800    2.01623200
| 79> H                   7.18052000   -2.25367000    1.60895300
| 80> C                  10.84763600   -1.01612300    1.06899600
| 81> C                  10.23547800    2.79720300   -1.61748300
| 82> H                   8.57118400    3.81803900   -2.51274700
| 83> H                  11.70778900    1.57538200   -0.63724800
| 84> C                  10.58109700   -2.14214400    1.82802900
| 85> H                   9.07782700   -3.45405700    2.62371400
| 86> H                  11.86443400   -0.66773200    0.93358800
| 87> H                  10.96298100    3.48587300   -2.02740000
| 88> H                  11.39482600   -2.68834900    2.28742000
| 89> N                   7.59046600    0.06835900    0.01641700
| 90> *
| 91>
| 92>
| 93>                          ****END OF INPUT****

CARTESIAN COORDINATES (ANGSTROEM)
---------------------------------
  C     -9.004013   -3.459723   -0.950866
  C     -7.638544   -3.407351   -0.973400
  C     -6.953895   -2.215567   -0.641486
  C     -7.705139   -1.055350   -0.283626
  C     -9.117923   -1.151040   -0.266575
  C     -9.749168   -2.320616   -0.592111
  C     -5.555703   -2.154928   -0.649224
  C     -7.019652    0.143997    0.043875
  C     -5.626709    0.171399    0.015310
  C     -4.879269   -0.999663   -0.326080
  C     -3.430288   -0.934252   -0.315860
  C     -2.815889    0.272676    0.016396
  C     -4.916963    1.419730    0.320277
  H     -5.012947   -3.051740   -0.917112
  H     -9.517767   -4.377853   -1.206331
  H     -7.053960   -4.278379   -1.243996
  H     -9.703044   -0.283690    0.008751
  H    -10.830229   -2.372501   -0.573161
  C     -7.843216    1.321480    0.421668
  C     -8.389481    2.147279   -0.557169
  C     -8.140103    1.570381    1.759120
  C     -9.191753    3.221346   -0.202528
  H     -8.175031    1.949843   -1.601018
  C     -8.944724    2.642514    2.112568
  H     -7.727628    0.923878    2.524927
  C     -9.469570    3.474800    1.133407
  H     -9.603659    3.860606   -0.973689
  H     -9.163472    2.827484    3.157049
  H    -10.097015    4.312792    1.409753
  O     -5.408712    2.490205    0.573144
  O     -3.545246    1.387049    0.313933
  C     -2.583935   -2.012623   -0.609555
  C     -1.442560    0.424322    0.062525
  C     -0.617046   -0.662012   -0.231752
  C     -1.215726   -1.889306   -0.571365
  H     -0.587518   -2.738882   -0.801835
  H     -3.011737   -2.970474   -0.871217
  H     -1.023870    1.385464    0.327333
  C      0.787951   -0.532553   -0.188240
  C      1.994851   -0.428702   -0.151815
  C      3.400885   -0.304777   -0.108353
  C      4.228133   -1.403945   -0.382122
  C      4.003695    0.921211    0.209588
  C      5.601606   -1.280103   -0.346356
  H      3.779941   -2.354876   -0.638261
  C      5.377051    1.041352    0.256414
  H      3.380566    1.776798    0.434066
  C      6.188235   -0.057178   -0.024325
  H      6.228701   -2.128896   -0.584595
  H      5.829238    1.985977    0.527698
  C      8.335422    1.077602   -0.586443
  C      8.467619   -0.792311    0.669578
  C      7.911004    2.133507   -1.384133
  C      9.703634    0.859953   -0.317559
  C      8.193855   -1.912478    1.445300
  C      9.787480   -0.327881    0.484711
  C      8.877936    2.987185   -1.889940
  H      6.864586    2.284899   -1.612438
  C     10.655017    1.733532   -0.837916
  C      9.266629   -2.577918    2.016232
  H      7.180520   -2.253670    1.608953
  C     10.847636   -1.016123    1.068996
  C     10.235478    2.797203   -1.617483
  H      8.571184    3.818039   -2.512747
  H     11.707789    1.575382   -0.637248
  C     10.581097   -2.142144    1.828029
  H      9.077827   -3.454057    2.623714
  H     11.864434   -0.667732    0.933588
  H     10.962981    3.485873   -2.027400
  H     11.394826   -2.688349    2.287420
  N      7.590466    0.068359    0.016417

 Total Charge           Charge          ....    0
 Multiplicity           Mult            ....    1
 Number of Electrons    NEL             ....  306
 Basis Dimension        Dim             .... 1576

ORBITAL ENERGIES
----------------

  NO   OCC          E(Eh)            E(eV)
   0   2.0000     -19.865394      -540.5649
   1   2.0000     -19.788772      -538.4799
   2   2.0000     -14.959233      -407.0614
   3   2.0000     -10.844638      -295.0976
   4   2.0000     -10.771389      -293.1044
   5   2.0000     -10.745577      -292.4020
   6   2.0000     -10.732562      -292.0479
   7   2.0000     -10.732524      -292.0468
   8   2.0000     -10.730026      -291.9788
   9   2.0000     -10.729129      -291.9544
  10   2.0000     -10.723629      -291.8048
  11   2.0000     -10.721426      -291.7448
  12   2.0000     -10.720794      -291.7276
  13   2.0000     -10.715530      -291.5844
  14   2.0000     -10.712326      -291.4972
  15   2.0000     -10.710302      -291.4421
  16   2.0000     -10.702249      -291.2230
  17   2.0000     -10.702237      -291.2227
  18   2.0000     -10.702177      -291.2211
  19   2.0000     -10.701934      -291.2144
  20   2.0000     -10.701852      -291.2122
  21   2.0000     -10.701128      -291.1925
  22   2.0000     -10.698623      -291.1243
  23   2.0000     -10.697658      -291.0981
  24   2.0000     -10.697147      -291.0842
  25   2.0000     -10.696187      -291.0581
  26   2.0000     -10.696123      -291.0563
  27   2.0000     -10.695360      -291.0355
  28   2.0000     -10.694402      -291.0095
  29   2.0000     -10.692486      -290.9573
  30   2.0000     -10.692472      -290.9570
  31   2.0000     -10.691904      -290.9415
  32   2.0000     -10.691526      -290.9312
  33   2.0000     -10.690669      -290.9079
  34   2.0000     -10.690601      -290.9060
  35   2.0000     -10.688764      -290.8560
  36   2.0000     -10.688731      -290.8552
  37   2.0000     -10.687759      -290.8287
  38   2.0000     -10.687724      -290.8278
  39   2.0000     -10.686005      -290.7810
  40   2.0000     -10.685857      -290.7769
  41   2.0000     -10.684989      -290.7533
  42   2.0000     -10.684840      -290.7493
  43   2.0000     -10.683916      -290.7241
  44   2.0000     -10.680674      -290.6359
  45   2.0000     -10.680614      -290.6343
  46   2.0000      -1.359293       -36.9883
  47   2.0000      -1.263613       -34.3847
  48   2.0000      -1.219241       -33.1772
  49   2.0000      -1.113530       -30.3007
  50   2.0000      -1.093223       -29.7481
  51   2.0000      -1.090335       -29.6695
  52   2.0000      -1.070034       -29.1171
  53   2.0000      -1.061053       -28.8727
  54   2.0000      -1.060404       -28.8551
  55   2.0000      -1.052992       -28.6534
  56   2.0000      -1.014785       -27.6137
  57   2.0000      -1.002610       -27.2824
  58   2.0000      -0.989058       -26.9136
  59   2.0000      -0.974393       -26.5146
  60   2.0000      -0.965291       -26.2669
  61   2.0000      -0.959194       -26.1010
  62   2.0000      -0.956445       -26.0262
  63   2.0000      -0.946785       -25.7633
  64   2.0000      -0.944168       -25.6921
  65   2.0000      -0.939555       -25.5666
  66   2.0000      -0.934772       -25.4364
  67   2.0000      -0.915374       -24.9086
  68   2.0000      -0.911048       -24.7909
  69   2.0000      -0.899157       -24.4673
  70   2.0000      -0.858878       -23.3713
  71   2.0000      -0.838759       -22.8238
  72   2.0000      -0.826579       -22.4924
  73   2.0000      -0.817935       -22.2571
  74   2.0000      -0.799583       -21.7578
  75   2.0000      -0.799511       -21.7558
  76   2.0000      -0.791867       -21.5478
  77   2.0000      -0.783394       -21.3172
  78   2.0000      -0.773829       -21.0570
  79   2.0000      -0.771143       -20.9839
  80   2.0000      -0.756707       -20.5910
  81   2.0000      -0.745854       -20.2957
  82   2.0000      -0.742270       -20.1982
  83   2.0000      -0.740110       -20.1394
  84   2.0000      -0.723627       -19.6909
  85   2.0000      -0.700891       -19.0722
  86   2.0000      -0.689294       -18.7566
  87   2.0000      -0.683840       -18.6082
  88   2.0000      -0.681700       -18.5500
  89   2.0000      -0.670803       -18.2535
  90   2.0000      -0.659731       -17.9522
  91   2.0000      -0.655709       -17.8428
  92   2.0000      -0.642858       -17.4930
  93   2.0000      -0.639707       -17.4073
  94   2.0000      -0.639020       -17.3886
  95   2.0000      -0.631493       -17.1838
  96   2.0000      -0.618541       -16.8314
  97   2.0000      -0.612557       -16.6685
  98   2.0000      -0.610694       -16.6178
  99   2.0000      -0.606560       -16.5053
 100   2.0000      -0.600763       -16.3476
 101   2.0000      -0.599468       -16.3124
 102   2.0000      -0.598573       -16.2880
 103   2.0000      -0.591310       -16.0904
 104   2.0000      -0.584594       -15.9076
 105   2.0000      -0.580886       -15.8067
 106   2.0000      -0.576975       -15.7003
 107   2.0000      -0.573964       -15.6184
 108   2.0000      -0.572585       -15.5808
 109   2.0000      -0.569134       -15.4869
 110   2.0000      -0.567265       -15.4361
 111   2.0000      -0.561983       -15.2923
 112   2.0000      -0.558125       -15.1873
 113   2.0000      -0.557795       -15.1784
 114   2.0000      -0.555906       -15.1270
 115   2.0000      -0.544529       -14.8174
 116   2.0000      -0.543164       -14.7802
 117   2.0000      -0.539892       -14.6912
 118   2.0000      -0.533309       -14.5121
 119   2.0000      -0.528746       -14.3879
 120   2.0000      -0.526540       -14.3279
 121   2.0000      -0.513434       -13.9713
 122   2.0000      -0.501862       -13.6564
 123   2.0000      -0.497855       -13.5473
 124   2.0000      -0.495407       -13.4807
 125   2.0000      -0.494112       -13.4455
 126   2.0000      -0.492532       -13.4025
 127   2.0000      -0.492009       -13.3882
 128   2.0000      -0.488928       -13.3044
 129   2.0000      -0.483293       -13.1511
 130   2.0000      -0.478102       -13.0098
 131   2.0000      -0.475690       -12.9442
 132   2.0000      -0.469279       -12.7697
 133   2.0000      -0.467983       -12.7345
 134   2.0000      -0.463739       -12.6190
 135   2.0000      -0.460013       -12.5176
 136   2.0000      -0.454752       -12.3744
 137   2.0000      -0.434037       -11.8107
 138   2.0000      -0.433206       -11.7881
 139   2.0000      -0.406124       -11.0512
 140   2.0000      -0.397239       -10.8094
 141   2.0000      -0.394963       -10.7475
 142   2.0000      -0.383985       -10.4488
 143   2.0000      -0.364216        -9.9108
 144   2.0000      -0.358169        -9.7463
 145   2.0000      -0.353123        -9.6090
 146   2.0000      -0.348978        -9.4962
 147   2.0000      -0.346409        -9.4263
 148   2.0000      -0.340172        -9.2566
 149   2.0000      -0.325437        -8.8556
 150   2.0000      -0.305065        -8.3012
 151   2.0000      -0.297947        -8.1076
 152   2.0000      -0.280892        -7.6434
 153   0.0000       0.004155         0.1131
 154   0.0000       0.016279         0.4430
 155   0.0000       0.048502         1.3198
 156   0.0000       0.051837         1.4105
 157   0.0000       0.076639         2.0855

MULLIKEN ATOMIC CHARGES
-----------------------
   0 C :   -0.141238
   1 C :   -0.262907
   2 C :    0.095093
   3 C :    0.088050
   4 C :   -0.243855
   5 C :   -0.193138
   6 C :   -0.341600
   7 C :    0.251343
   8 C :   -0.123578
   9 C :    0.107793
  10 C :    0.128834
  11 C :    0.227311
  12 C :    0.379096
  13 H :    0.180476
  14 H :    0.184652
  15 H :    0.181834
  16 H :    0.203326
  17 H :    0.183087
  18 C :   -0.016677
  19 C :   -0.219862
  20 C :   -0.218277
  21 C :   -0.208943
  22 H :    0.178458
  23 C :   -0.207857
  24 H :    0.177962
  25 C :   -0.158606
  26 H :    0.177317
  27 H :    0.177284
  28 H :    0.178875
  29 O :   -0.375275
  30 O :   -0.242761
  31 C :   -0.246054
  32 C :   -0.332852
  33 C :    0.012144
  34 C :   -0.216147
  35 H :    0.189200
  36 H :    0.191069
  37 H :    0.188611
  38 C :    0.016312
  39 C :    0.104120
  40 C :   -0.050804
  41 C :   -0.152394
  42 C :   -0.148684
  43 C :   -0.354306
  44 H :    0.191862
  45 C :   -0.357433
  46 H :    0.191725
  47 C :    0.263493
  48 H :    0.213835
  49 H :    0.213759
  50 C :    0.150663
  51 C :    0.152404
  52 C :   -0.310890
  53 C :   -0.021427
  54 C :   -0.314714
  55 C :   -0.020781
  56 C :   -0.148786
  57 H :    0.201061
  58 C :   -0.222739
  59 C :   -0.150024
  60 H :    0.201306
  61 C :   -0.224365
  62 C :   -0.212636
  63 H :    0.180317
  64 H :    0.182633
  65 C :   -0.209372
  66 H :    0.179875
  67 H :    0.182694
  68 H :    0.175819
  69 H :    0.175628
  70 N :   -0.010341
Sum of atomic charges:   -0.0000000

LOEWDIN ATOMIC CHARGES
----------------------
   0 C :   -0.129318
   1 C :   -0.100706
   2 C :   -0.085066
   3 C :   -0.054223
   4 C :   -0.091367
   5 C :   -0.139544
   6 C :   -0.048511
   7 C :    0.012016
   8 C :   -0.051475
   9 C :   -0.063093
  10 C :   -0.081476
  11 C :   -0.178750
  12 C :   -0.358766
  13 H :    0.168564
  14 H :    0.158748
  15 H :    0.162280
  16 H :    0.166556
  17 H :    0.157840
  18 C :   -0.104219
  19 C :   -0.105551
  20 C :   -0.104751
  21 C :   -0.148907
  22 H :    0.160299
  23 C :   -0.148765
  24 H :    0.160284
  25 C :   -0.153131
  26 H :    0.154968
  27 H :    0.154936
  28 H :    0.153739
  29 O :    0.090633
  30 O :    0.326351
  31 C :   -0.080288
  32 C :   -0.057225
  33 C :   -0.140857
  34 C :   -0.094988
  35 H :    0.164340
  36 H :    0.165736
  37 H :    0.170029
  38 C :   -0.024242
  39 C :   -0.020243
  40 C :   -0.152958
  41 C :   -0.079893
  42 C :   -0.079710
  43 C :   -0.101850
  44 H :    0.165262
  45 C :   -0.101721
  46 H :    0.165324
  47 C :   -0.152102
  48 H :    0.167429
  49 H :    0.167552
  50 C :   -0.114116
  51 C :   -0.113860
  52 C :   -0.130800
  53 C :   -0.092933
  54 C :   -0.130990
  55 C :   -0.092842
  56 C :   -0.148617
  57 H :    0.160511
  58 C :   -0.105846
  59 C :   -0.148383
  60 H :    0.160364
  61 C :   -0.105722
  62 C :   -0.170696
  63 H :    0.155695
  64 H :    0.159066
  65 C :   -0.170569
  66 H :    0.155640
  67 H :    0.159059
  68 H :    0.152785
  69 H :    0.152719
  70 N :    0.310342

  Mayer bond orders larger than 0.100000
B(  0-C ,  1-C ) :   1.5690 B(  0-C ,  5-C ) :   1.2245 B(  0-C , 14-H ) :   0.9748
B(  1-C ,  2-C ) :   1.2133 B(  1-C , 15-H ) :   0.9713 B(  2-C ,  3-C ) :   1.2760
B(  2-C ,  6-C ) :   1.2956 B(  3-C ,  4-C ) :   1.1960 B(  3-C ,  7-C ) :   1.1896
B(  4-C ,  5-C ) :   1.6159 B(  4-C , 16-H ) :   0.9471 B(  5-C , 17-H ) :   0.9747
B(  6-C ,  9-C ) :   1.5288 B(  6-C , 13-H ) :   0.9330 B(  7-C ,  8-C ) :   1.4127
B(  7-C , 18-C ) :   0.7715 B(  8-C ,  9-C ) :   1.2369 B(  8-C , 12-C ) :   0.9897
B(  9-C , 10-C ) :   0.9998 B( 10-C , 11-C ) :   1.3555 B( 10-C , 31-C ) :   1.2987
B( 11-C , 30-O ) :   0.9925 B( 11-C , 32-C ) :   1.4243 B( 12-C , 29-O ) :   2.1029
B( 12-C , 30-O ) :   1.1751 B( 18-C , 19-C ) :   1.3793 B( 18-C , 20-C ) :   1.3864
B( 19-C , 21-C ) :   1.4404 B( 19-C , 22-H ) :   0.9769 B( 20-C , 23-C ) :   1.4450
B( 20-C , 24-H ) :   0.9773 B( 21-C , 25-C ) :   1.3955 B( 21-C , 26-H ) :   0.9764
B( 23-C , 25-C ) :   1.3936 B( 23-C , 27-H ) :   0.9760 B( 25-C , 28-H ) :   0.9729
B( 31-C , 34-C ) :   1.5182 B( 31-C , 36-H ) :   0.9396 B( 32-C , 33-C ) :   1.3556
B( 32-C , 37-H ) :   0.9784 B( 33-C , 34-C ) :   1.2953 B( 33-C , 38-C ) :   1.0984
B( 34-C , 35-H ) :   0.9755 B( 38-C , 39-C ) :   2.8962 B( 39-C , 40-C ) :   1.0199
B( 40-C , 41-C ) :   1.3334 B( 40-C , 42-C ) :   1.3333 B( 41-C , 43-C ) :   1.4588
B( 41-C , 44-H ) :   0.9694 B( 42-C , 45-C ) :   1.4571 B( 42-C , 46-H ) :   0.9698
B( 43-C , 47-C ) :   1.3470 B( 43-C , 48-H ) :   0.9699 B( 45-C , 47-C ) :   1.3475
B( 45-C , 49-H ) :   0.9700 B( 47-C , 70-N ) :   0.9574 B( 50-C , 52-C ) :   1.3272
B( 50-C , 53-C ) :   1.3165 B( 50-C , 70-N ) :   1.1232 B( 51-C , 54-C ) :   1.3265
B( 51-C , 55-C ) :   1.3166 B( 51-C , 70-N ) :   1.1222 B( 52-C , 56-C ) :   1.4685
B( 52-C , 57-H ) :   0.9550 B( 53-C , 55-C ) :   1.0562 B( 53-C , 58-C ) :   1.3290
B( 54-C , 59-C ) :   1.4711 B( 54-C , 60-H ) :   0.9548 B( 55-C , 61-C ) :   1.3284
B( 56-C , 62-C ) :   1.3537 B( 56-C , 63-H ) :   0.9720 B( 58-C , 62-C ) :   1.4838
B( 58-C , 64-H ) :   0.9645 B( 59-C , 65-C ) :   1.3545 B( 59-C , 66-H ) :   0.9718
B( 61-C , 65-C ) :   1.4836 B( 61-C , 67-H ) :   0.9648 B( 62-C , 68-H ) :   0.9806
B( 65-C , 69-H ) :   0.9802

MP2 TOTAL ENERGY:    -1855.874405864 Eh

-----------------------------------------------------------------------------
         ABSORPTION SPECTRUM VIA TRANSITION ELECTRIC DIPOLE MOMENTS
-----------------------------------------------------------------------------
State   Energy    Wavelength  fosc         T2        TX        TY        TZ
        (cm-1)      (nm)                 (au**2)    (au)      (au)      (au)
-----------------------------------------------------------------------------
   1   30563.4    327.2   1.895944977  20.42209  -4.44467  -0.78509  -0.22513
   2   30956.3    323.0   0.324782081   3.45397  -1.75052   0.59261   0.19610
   3   34712.6    288.1   0.476623647   4.52027   2.11988  -0.15345  -0.05336
   4   34665.7    288.5   0.036437477   0.34604  -0.58333  -0.07188  -0.02443
   5   38768.9    257.9   0.318207883   2.70211  -0.09776   1.32848  -0.96318
   6   37245.3    268.5   0.119316404   1.05464   0.90316   0.48070   0.08874
   7   38480.6    259.9   0.122189179   1.04536  -0.99583  -0.22986  -0.02914
   8   38204.4    261.8   0.002057101   0.01773  -0.04726  -0.11392  -0.05014
   9   39035.3    256.2   0.001218380   0.01028  -0.01817   0.05142   0.08545
  10   43146.5    231.8   0.107832133   0.82277   0.49100   0.73667   0.19752
  11   41692.8    239.8   0.492486980   3.88874  -1.02321  -1.62706  -0.44096
  12   42653.7    234.4   0.173818464   1.34158   0.05082  -0.87932   0.75219
  13   42704.3    234.2   0.000725723   0.00559   0.00123   0.01468  -0.07333
  14   43275.8    231.1   0.246098002   1.87214   1.18186  -0.65318  -0.22070
  15   46641.6    214.4   0.420297898   2.96660   1.64334   0.50038   0.12515
  16   47461.9    210.7   0.074878127   0.51938  -0.69879   0.17592   0.01122
  17   46570.1    214.7   0.367573388   2.59844  -0.24363  -1.52067  -0.47606
  18   45765.4    218.5   0.746854925   5.37248   0.11261  -1.69569   1.57621
  19   50316.8    198.7   0.006076624   0.03976  -0.15923   0.10766   0.05304
  20   46407.2    215.5   0.033923940   0.24066  -0.42303  -0.19971  -0.14770
  21   47737.0    209.5   0.404838593   2.79192  -1.66916   0.04461   0.06195
  22   47502.9    210.5   0.693827066   4.80847   0.19992  -2.15251   0.36773
  23   47666.5    209.8   0.021622894   0.14934  -0.33952  -0.17880  -0.04575
  24   46943.5    213.0   0.084245929   0.59081  -0.61566  -0.44608  -0.11309
  25   47756.0    209.4   0.028335838   0.19534  -0.02711   0.34455   0.27548
  26   47467.9    210.7   0.154471271   1.07133  -0.76781  -0.61818  -0.31569
  27   49769.6    200.9   0.334936963   2.21551  -1.39423   0.51662   0.06886
  28   49858.2    200.6   0.524815197   3.46534   1.80586   0.44968  -0.04468
  29   50743.4    197.1   0.544326532   3.53147   1.60213  -0.96170  -0.19945
  30   49614.9    201.6   0.095330634   0.63255  -0.12688   0.72531  -0.30064

FINAL SINGLE POINT ENERGY     -1853.583497960121

DIPOLE MOMENT
-------------
                                X             Y             Z
Electronic contribution:     -5.89078       0.71630      -0.29829
Nuclear contribution   :      5.12236      -3.29801      -0.33612
                        -----------------------------------------
Total Dipole Moment    :     -0.76843      -2.58171      -0.63441
                        -----------------------------------------
Magnitude (a.u.)       :      2.76734
Magnitude (Debye)      :      7.03403

Rotational constants in cm-1:     0.006763     0.000541     0.000516
Rotational constants in MHz :   202.744715    16.225406    15.465508

                             ****ORCA TERMINATED NORMALLY****
TOTAL RUN TIME: 0 days 10 hours 7 minutes 16 seconds 570 msec
