                         Program Version 5.0.2 -  RELEASE  -
|  1> %maxcore 3200
|  2> %pal
|  3>  nprocs= 8
|  4> end
|  5> ! RI-B2PLYP D3BJ def2-TZVP def2/J def2-TZVP/C RIJCOSX CPCM TightSCF
|  6> %TDDFT DCORR 4
|  7>    NROOTS   30
|  8>
|  9>    TDA      FALSE
| 10> END
| 11>
| 12> %CPCM
| 13>    SMD          TRUE
| 14>    SMDsolvent   "ACETONITRILE"
| 15> END
| 16>
| 17>
| 18> * xyz 0 1
| 19> C                  -9.00401300   -3.45972300   -0.95086600
| 20> C                  -7.63854400   -3.40735100   -0.97340000
| 21> C                  -6.95389500   -2.21556700   -0.64148600
| 22> C                  -7.70513900   -1.05535000   -0.28362600
| 23> C                  -9.11792300   -1.15104000   -0.26657500
| 24> C                  -9.74916800   -2.32061600   -0.59211100
| 25> C                  -5.55570300   -2.15492800   -0.64922400
| 26> C                  -7.01965200    0.14399700    0.04387500
| 27> C                  -5.62670900    0.17139900    0.01531000
| 28> C                  -4.87926900   -0.99966300   -0.32608000
| 29> C                  -3.43028800   -0.93425200   -0.31586000
| 30> C                  -2.81588900    0.27267600    0.01639600
| 31> C                  -4.91696300    1.41973000    0.32027700
| 32> H                  -5.01294700   -3.05174000   -0.91711200
| 33> H                  -9.51776700   -4.37785300   -1.20633100
| 34> H                  -7.05396000   -4.27837900   -1.24399600
| 35> H                  -9.70304400   -0.28369000    0.00875100
| 36> H                 -10.83022900   -2.37250100   -0.57316100
| 37> C                  -7.84321600    1.32148000    0.42166800
| 38> C                  -8.38948100    2.14727900   -0.55716900
| 39> C                  -8.14010300    1.57038100    1.75912000
| 40> C                  -9.19175300    3.22134600   -0.20252800
| 41> H                  -8.17503100    1.94984300   -1.60101800
| 42> C                  -8.94472400    2.64251400    2.11256800
| 43> H                  -7.72762800    0.92387800    2.52492700
| 44> C                  -9.46957000    3.47480000    1.13340700
| 45> H                  -9.60365900    3.86060600   -0.97368900
| 46> H                  -9.16347200    2.82748400    3.15704900
| 47> H                 -10.09701500    4.31279200    1.40975300
| 48> O                  -5.40871200    2.49020500    0.57314400
| 49> O                  -3.54524600    1.38704900    0.31393300
| 50> C                  -2.58393500   -2.01262300   -0.60955500
| 51> C                  -1.44256000    0.42432200    0.06252500
| 52> C                  -0.61704600   -0.66201200   -0.23175200
| 53> C                  -1.21572600   -1.88930600   -0.57136500
| 54> H                  -0.58751800   -2.73888200   -0.80183500
| 55> H                  -3.01173700   -2.97047400   -0.87121700
| 56> H                  -1.02387000    1.38546400    0.32733300
| 57> C                   0.78795100   -0.53255300   -0.18824000
| 58> C                   1.99485100   -0.42870200   -0.15181500
| 59> C                   3.40088500   -0.30477700   -0.10835300
| 60> C                   4.22813300   -1.40394500   -0.38212200
| 61> C                   4.00369500    0.92121100    0.20958800
| 62> C                   5.60160600   -1.28010300   -0.34635600
| 63> H                   3.77994100   -2.35487600   -0.63826100
| 64> C                   5.37705100    1.04135200    0.25641400
| 65> H                   3.38056600    1.77679800    0.43406600
| 66> C                   6.18823500   -0.05717800   -0.02432500
| 67> H                   6.22870100   -2.12889600   -0.58459500
| 68> H                   5.82923800    1.98597700    0.52769800
| 69> C                   8.33542200    1.07760200   -0.58644300
| 70> C                   8.46761900   -0.79231100    0.66957800
| 71> C                   7.91100400    2.13350700   -1.38413300
| 72> C                   9.70363400    0.85995300   -0.31755900
| 73> C                   8.19385500   -1.91247800    1.44530000
| 74> C                   9.78748000   -0.32788100    0.48471100
| 75> C                   8.87793600    2.98718500   -1.88994000
| 76> H                   6.86458600    2.28489900   -1.61243800
| 77> C                  10.65501700    1.73353200   -0.83791600
| 78> C                   9.26662900   -2.57791800    2.01623200
| 79> H                   7.18052000   -2.25367000    1.60895300
| 80> C                  10.84763600   -1.01612300    1.06899600
| 81> C                  10.23547800    2.79720300   -1.61748300
| 82> H                   8.57118400    3.81803900   -2.51274700
| 83> H                  11.70778900    1.57538200   -0.63724800
| 84> C                  10.58109700   -2.14214400    1.82802900
| 85> H                   9.07782700   -3.45405700    2.62371400
| 86> H                  11.86443400   -0.66773200    0.93358800
| 87> H                  10.96298100    3.48587300   -2.02740000
| 88> H                  11.39482600   -2.68834900    2.28742000
| 89> N                   7.59046600    0.06835900    0.01641700
| 90> *
| 91>
| 92>
| 93>                          ****END OF INPUT****

CARTESIAN COORDINATES (ANGSTROEM)
---------------------------------
  C     -9.004013   -3.459723   -0.950866
  C     -7.638544   -3.407351   -0.973400
  C     -6.953895   -2.215567   -0.641486
  C     -7.705139   -1.055350   -0.283626
  C     -9.117923   -1.151040   -0.266575
  C     -9.749168   -2.320616   -0.592111
  C     -5.555703   -2.154928   -0.649224
  C     -7.019652    0.143997    0.043875
  C     -5.626709    0.171399    0.015310
  C     -4.879269   -0.999663   -0.326080
  C     -3.430288   -0.934252   -0.315860
  C     -2.815889    0.272676    0.016396
  C     -4.916963    1.419730    0.320277
  H     -5.012947   -3.051740   -0.917112
  H     -9.517767   -4.377853   -1.206331
  H     -7.053960   -4.278379   -1.243996
  H     -9.703044   -0.283690    0.008751
  H    -10.830229   -2.372501   -0.573161
  C     -7.843216    1.321480    0.421668
  C     -8.389481    2.147279   -0.557169
  C     -8.140103    1.570381    1.759120
  C     -9.191753    3.221346   -0.202528
  H     -8.175031    1.949843   -1.601018
  C     -8.944724    2.642514    2.112568
  H     -7.727628    0.923878    2.524927
  C     -9.469570    3.474800    1.133407
  H     -9.603659    3.860606   -0.973689
  H     -9.163472    2.827484    3.157049
  H    -10.097015    4.312792    1.409753
  O     -5.408712    2.490205    0.573144
  O     -3.545246    1.387049    0.313933
  C     -2.583935   -2.012623   -0.609555
  C     -1.442560    0.424322    0.062525
  C     -0.617046   -0.662012   -0.231752
  C     -1.215726   -1.889306   -0.571365
  H     -0.587518   -2.738882   -0.801835
  H     -3.011737   -2.970474   -0.871217
  H     -1.023870    1.385464    0.327333
  C      0.787951   -0.532553   -0.188240
  C      1.994851   -0.428702   -0.151815
  C      3.400885   -0.304777   -0.108353
  C      4.228133   -1.403945   -0.382122
  C      4.003695    0.921211    0.209588
  C      5.601606   -1.280103   -0.346356
  H      3.779941   -2.354876   -0.638261
  C      5.377051    1.041352    0.256414
  H      3.380566    1.776798    0.434066
  C      6.188235   -0.057178   -0.024325
  H      6.228701   -2.128896   -0.584595
  H      5.829238    1.985977    0.527698
  C      8.335422    1.077602   -0.586443
  C      8.467619   -0.792311    0.669578
  C      7.911004    2.133507   -1.384133
  C      9.703634    0.859953   -0.317559
  C      8.193855   -1.912478    1.445300
  C      9.787480   -0.327881    0.484711
  C      8.877936    2.987185   -1.889940
  H      6.864586    2.284899   -1.612438
  C     10.655017    1.733532   -0.837916
  C      9.266629   -2.577918    2.016232
  H      7.180520   -2.253670    1.608953
  C     10.847636   -1.016123    1.068996
  C     10.235478    2.797203   -1.617483
  H      8.571184    3.818039   -2.512747
  H     11.707789    1.575382   -0.637248
  C     10.581097   -2.142144    1.828029
  H      9.077827   -3.454057    2.623714
  H     11.864434   -0.667732    0.933588
  H     10.962981    3.485873   -2.027400
  H     11.394826   -2.688349    2.287420
  N      7.590466    0.068359    0.016417

 Total Charge           Charge          ....    0
 Multiplicity           Mult            ....    1
 Number of Electrons    NEL             ....  306
 Basis Dimension        Dim             .... 1576

ORBITAL ENERGIES
----------------

  NO   OCC          E(Eh)            E(eV)
   0   2.0000     -19.791242      -538.5471
   1   2.0000     -19.713787      -536.4394
   2   2.0000     -14.888275      -405.1306
   3   2.0000     -10.768124      -293.0155
   4   2.0000     -10.697718      -291.0997
   5   2.0000     -10.672696      -290.4188
   6   2.0000     -10.659454      -290.0585
   7   2.0000     -10.659422      -290.0576
   8   2.0000     -10.656105      -289.9674
   9   2.0000     -10.655736      -289.9573
  10   2.0000     -10.650167      -289.8058
  11   2.0000     -10.648792      -289.7684
  12   2.0000     -10.648488      -289.7601
  13   2.0000     -10.642727      -289.6033
  14   2.0000     -10.639372      -289.5120
  15   2.0000     -10.637961      -289.4736
  16   2.0000     -10.629868      -289.2534
  17   2.0000     -10.629747      -289.2501
  18   2.0000     -10.629668      -289.2480
  19   2.0000     -10.629625      -289.2468
  20   2.0000     -10.628840      -289.2254
  21   2.0000     -10.628669      -289.2208
  22   2.0000     -10.625738      -289.1410
  23   2.0000     -10.625420      -289.1324
  24   2.0000     -10.625172      -289.1256
  25   2.0000     -10.624681      -289.1123
  26   2.0000     -10.624619      -289.1106
  27   2.0000     -10.623665      -289.0846
  28   2.0000     -10.622538      -289.0539
  29   2.0000     -10.621120      -289.0154
  30   2.0000     -10.620535      -288.9995
  31   2.0000     -10.620225      -288.9910
  32   2.0000     -10.619930      -288.9830
  33   2.0000     -10.618381      -288.9408
  34   2.0000     -10.618331      -288.9395
  35   2.0000     -10.616893      -288.9003
  36   2.0000     -10.616866      -288.8996
  37   2.0000     -10.615991      -288.8758
  38   2.0000     -10.615965      -288.8751
  39   2.0000     -10.614325      -288.8305
  40   2.0000     -10.614160      -288.8260
  41   2.0000     -10.613269      -288.8017
  42   2.0000     -10.613124      -288.7978
  43   2.0000     -10.612333      -288.7763
  44   2.0000     -10.609460      -288.6981
  45   2.0000     -10.609411      -288.6967
  46   2.0000      -1.274962       -34.6935
  47   2.0000      -1.180999       -32.1366
  48   2.0000      -1.135120       -30.8882
  49   2.0000      -1.027802       -27.9679
  50   2.0000      -1.008468       -27.4418
  51   2.0000      -1.005496       -27.3609
  52   2.0000      -0.985566       -26.8186
  53   2.0000      -0.976753       -26.5788
  54   2.0000      -0.976617       -26.5751
  55   2.0000      -0.968803       -26.3625
  56   2.0000      -0.931523       -25.3480
  57   2.0000      -0.919875       -25.0311
  58   2.0000      -0.906697       -24.6725
  59   2.0000      -0.892523       -24.2868
  60   2.0000      -0.883959       -24.0537
  61   2.0000      -0.877821       -23.8867
  62   2.0000      -0.875043       -23.8111
  63   2.0000      -0.865954       -23.5638
  64   2.0000      -0.863317       -23.4921
  65   2.0000      -0.858704       -23.3665
  66   2.0000      -0.854330       -23.2475
  67   2.0000      -0.835410       -22.7327
  68   2.0000      -0.831096       -22.6153
  69   2.0000      -0.820181       -22.3183
  70   2.0000      -0.780300       -21.2330
  71   2.0000      -0.760949       -20.7065
  72   2.0000      -0.749054       -20.3828
  73   2.0000      -0.740795       -20.1581
  74   2.0000      -0.723144       -19.6778
  75   2.0000      -0.722722       -19.6663
  76   2.0000      -0.715012       -19.4565
  77   2.0000      -0.707259       -19.2455
  78   2.0000      -0.697892       -18.9906
  79   2.0000      -0.695898       -18.9363
  80   2.0000      -0.681528       -18.5453
  81   2.0000      -0.670907       -18.2563
  82   2.0000      -0.667257       -18.1570
  83   2.0000      -0.665055       -18.0971
  84   2.0000      -0.648803       -17.6548
  85   2.0000      -0.626900       -17.0588
  86   2.0000      -0.616003       -16.7623
  87   2.0000      -0.610398       -16.6098
  88   2.0000      -0.607415       -16.5286
  89   2.0000      -0.598703       -16.2915
  90   2.0000      -0.586692       -15.9647
  91   2.0000      -0.583993       -15.8912
  92   2.0000      -0.571087       -15.5401
  93   2.0000      -0.567888       -15.4530
  94   2.0000      -0.562089       -15.2952
  95   2.0000      -0.558641       -15.2014
  96   2.0000      -0.547065       -14.8864
  97   2.0000      -0.541884       -14.7454
  98   2.0000      -0.540617       -14.7109
  99   2.0000      -0.535294       -14.5661
 100   2.0000      -0.529623       -14.4118
 101   2.0000      -0.529581       -14.4106
 102   2.0000      -0.528587       -14.3836
 103   2.0000      -0.522372       -14.2145
 104   2.0000      -0.512949       -13.9581
 105   2.0000      -0.512071       -13.9342
 106   2.0000      -0.507988       -13.8231
 107   2.0000      -0.504569       -13.7300
 108   2.0000      -0.504510       -13.7284
 109   2.0000      -0.500625       -13.6227
 110   2.0000      -0.498575       -13.5669
 111   2.0000      -0.492793       -13.4096
 112   2.0000      -0.490136       -13.3373
 113   2.0000      -0.489778       -13.3276
 114   2.0000      -0.487894       -13.2763
 115   2.0000      -0.476302       -12.9608
 116   2.0000      -0.469506       -12.7759
 117   2.0000      -0.466753       -12.7010
 118   2.0000      -0.465581       -12.6691
 119   2.0000      -0.462527       -12.5860
 120   2.0000      -0.454098       -12.3566
 121   2.0000      -0.447607       -12.1800
 122   2.0000      -0.433160       -11.7869
 123   2.0000      -0.431775       -11.7492
 124   2.0000      -0.429733       -11.6936
 125   2.0000      -0.426371       -11.6021
 126   2.0000      -0.425411       -11.5760
 127   2.0000      -0.421924       -11.4811
 128   2.0000      -0.421386       -11.4665
 129   2.0000      -0.418611       -11.3910
 130   2.0000      -0.410952       -11.1826
 131   2.0000      -0.409738       -11.1495
 132   2.0000      -0.405378       -11.0309
 133   2.0000      -0.403613       -10.9829
 134   2.0000      -0.400255       -10.8915
 135   2.0000      -0.393541       -10.7088
 136   2.0000      -0.391357       -10.6494
 137   2.0000      -0.368133       -10.0174
 138   2.0000      -0.364931        -9.9303
 139   2.0000      -0.343942        -9.3591
 140   2.0000      -0.334336        -9.0977
 141   2.0000      -0.332491        -9.0475
 142   2.0000      -0.325265        -8.8509
 143   2.0000      -0.306582        -8.3425
 144   2.0000      -0.299717        -8.1557
 145   2.0000      -0.296687        -8.0733
 146   2.0000      -0.292278        -7.9533
 147   2.0000      -0.290545        -7.9061
 148   2.0000      -0.283068        -7.7027
 149   2.0000      -0.271695        -7.3932
 150   2.0000      -0.252884        -6.8813
 151   2.0000      -0.246573        -6.7096
 152   2.0000      -0.230505        -6.2724
 153   0.0000      -0.032780        -0.8920
 154   0.0000      -0.023170        -0.6305
 155   0.0000       0.009138         0.2486
 156   0.0000       0.011747         0.3197
 157   0.0000       0.033817         0.9202

MULLIKEN ATOMIC CHARGES
-----------------------
   0 C :   -0.115915
   1 C :   -0.265342
   2 C :    0.139727
   3 C :    0.081305
   4 C :   -0.235726
   5 C :   -0.168419
   6 C :   -0.391028
   7 C :    0.314235
   8 C :   -0.151939
   9 C :    0.121364
  10 C :    0.173752
  11 C :    0.243999
  12 C :    0.404344
  13 H :    0.159670
  14 H :    0.162632
  15 H :    0.159032
  16 H :    0.177720
  17 H :    0.161058
  18 C :    0.098758
  19 C :   -0.237034
  20 C :   -0.238474
  21 C :   -0.190751
  22 H :    0.154427
  23 C :   -0.188709
  24 H :    0.154107
  25 C :   -0.138765
  26 H :    0.154547
  27 H :    0.154465
  28 H :    0.156662
  29 O :   -0.398535
  30 O :   -0.259960
  31 C :   -0.244238
  32 C :   -0.353089
  33 C :    0.001535
  34 C :   -0.208685
  35 H :    0.165296
  36 H :    0.166793
  37 H :    0.160464
  38 C :    0.071521
  39 C :    0.160712
  40 C :   -0.070868
  41 C :   -0.145851
  42 C :   -0.142215
  43 C :   -0.331573
  44 H :    0.167149
  45 C :   -0.333974
  46 H :    0.166902
  47 C :    0.266968
  48 H :    0.183850
  49 H :    0.183887
  50 C :    0.169784
  51 C :    0.171982
  52 C :   -0.318404
  53 C :    0.002744
  54 C :   -0.322449
  55 C :    0.003538
  56 C :   -0.122613
  57 H :    0.173835
  58 C :   -0.226716
  59 C :   -0.123754
  60 H :    0.174049
  61 C :   -0.228380
  62 C :   -0.185601
  63 H :    0.159032
  64 H :    0.159072
  65 C :   -0.182433
  66 H :    0.158607
  67 H :    0.159261
  68 H :    0.153973
  69 H :    0.153763
  70 N :    0.014919
Sum of atomic charges:   -0.0000000

LOEWDIN ATOMIC CHARGES
----------------------
   0 C :   -0.126644
   1 C :   -0.096478
   2 C :   -0.083828
   3 C :   -0.051658
   4 C :   -0.087888
   5 C :   -0.135547
   6 C :   -0.044738
   7 C :    0.012124
   8 C :   -0.049257
   9 C :   -0.062127
  10 C :   -0.079603
  11 C :   -0.176191
  12 C :   -0.360389
  13 H :    0.164720
  14 H :    0.154550
  15 H :    0.158179
  16 H :    0.162806
  17 H :    0.153795
  18 C :   -0.099296
  19 C :   -0.102050
  20 C :   -0.101247
  21 C :   -0.146252
  22 H :    0.155868
  23 C :   -0.146071
  24 H :    0.155864
  25 C :   -0.150291
  26 H :    0.150761
  27 H :    0.150729
  28 H :    0.149596
  29 O :    0.088294
  30 O :    0.326224
  31 C :   -0.078664
  32 C :   -0.055330
  33 C :   -0.140636
  34 C :   -0.091888
  35 H :    0.160045
  36 H :    0.161651
  37 H :    0.165430
  38 C :   -0.023034
  39 C :   -0.019523
  40 C :   -0.151056
  41 C :   -0.077936
  42 C :   -0.077743
  43 C :   -0.097771
  44 H :    0.160902
  45 C :   -0.097652
  46 H :    0.160960
  47 C :   -0.149505
  48 H :    0.163407
  49 H :    0.163534
  50 C :   -0.112597
  51 C :   -0.112343
  52 C :   -0.127153
  53 C :   -0.089989
  54 C :   -0.127362
  55 C :   -0.089886
  56 C :   -0.147034
  57 H :    0.156598
  58 C :   -0.104788
  59 C :   -0.146801
  60 H :    0.156461
  61 C :   -0.104705
  62 C :   -0.166516
  63 H :    0.151398
  64 H :    0.154688
  65 C :   -0.166365
  66 H :    0.151345
  67 H :    0.154686
  68 H :    0.148745
  69 H :    0.148679
  70 N :    0.313794

  Mayer bond orders larger than 0.100000
B(  0-C ,  1-C ) :   1.5439 B(  0-C ,  5-C ) :   1.2276 B(  0-C , 14-H ) :   0.9811
B(  1-C ,  2-C ) :   1.2176 B(  1-C , 15-H ) :   0.9885 B(  2-C ,  3-C ) :   1.2718
B(  2-C ,  6-C ) :   1.2640 B(  3-C ,  4-C ) :   1.2042 B(  3-C ,  7-C ) :   1.1949
B(  4-C ,  5-C ) :   1.5866 B(  4-C , 16-H ) :   0.9622 B(  5-C , 17-H ) :   0.9831
B(  6-C ,  9-C ) :   1.4882 B(  6-C , 13-H ) :   0.9747 B(  7-C ,  8-C ) :   1.3755
B(  7-C , 18-C ) :   0.7266 B(  8-C ,  9-C ) :   1.2425 B(  8-C , 12-C ) :   0.9965
B(  9-C , 10-C ) :   0.9968 B( 10-C , 11-C ) :   1.3450 B( 10-C , 31-C ) :   1.2802
B( 11-C , 30-O ) :   0.9855 B( 11-C , 32-C ) :   1.3949 B( 12-C , 29-O ) :   2.0685
B( 12-C , 30-O ) :   1.1643 B( 18-C , 19-C ) :   1.3870 B( 18-C , 20-C ) :   1.3984
B( 19-C , 21-C ) :   1.4366 B( 19-C , 22-H ) :   0.9843 B( 20-C , 23-C ) :   1.4417
B( 20-C , 24-H ) :   0.9851 B( 21-C , 25-C ) :   1.3910 B( 21-C , 26-H ) :   0.9833
B( 23-C , 25-C ) :   1.3890 B( 23-C , 27-H ) :   0.9829 B( 25-C , 28-H ) :   0.9784
B( 31-C , 34-C ) :   1.4949 B( 31-C , 36-H ) :   0.9608 B( 32-C , 33-C ) :   1.3370
B( 32-C , 37-H ) :   1.0152 B( 33-C , 34-C ) :   1.2927 B( 33-C , 38-C ) :   1.1366
B( 33-C , 39-C ) :  -0.1474 B( 34-C , 35-H ) :   0.9916 B( 38-C , 39-C ) :   2.8400
B( 38-C , 40-C ) :  -0.1353 B( 39-C , 40-C ) :   1.0584 B( 40-C , 41-C ) :   1.3291
B( 40-C , 42-C ) :   1.3295 B( 41-C , 43-C ) :   1.4458 B( 41-C , 44-H ) :   0.9822
B( 42-C , 45-C ) :   1.4442 B( 42-C , 46-H ) :   0.9826 B( 43-C , 47-C ) :   1.3468
B( 43-C , 48-H ) :   0.9859 B( 45-C , 47-C ) :   1.3474 B( 45-C , 49-H ) :   0.9859
B( 47-C , 70-N ) :   0.9574 B( 50-C , 52-C ) :   1.3299 B( 50-C , 53-C ) :   1.2939
B( 50-C , 70-N ) :   1.1184 B( 51-C , 54-C ) :   1.3290 B( 51-C , 55-C ) :   1.2947
B( 51-C , 70-N ) :   1.1172 B( 52-C , 56-C ) :   1.4461 B( 52-C , 57-H ) :   0.9761
B( 53-C , 55-C ) :   1.0543 B( 53-C , 58-C ) :   1.3129 B( 54-C , 59-C ) :   1.4482
B( 54-C , 60-H ) :   0.9761 B( 55-C , 61-C ) :   1.3123 B( 56-C , 62-C ) :   1.3488
B( 56-C , 63-H ) :   0.9767 B( 58-C , 62-C ) :   1.4733 B( 58-C , 64-H ) :   0.9817
B( 59-C , 65-C ) :   1.3498 B( 59-C , 66-H ) :   0.9766 B( 61-C , 65-C ) :   1.4733
B( 61-C , 67-H ) :   0.9818 B( 62-C , 68-H ) :   0.9866 B( 65-C , 69-H ) :   0.9861

MP2 TOTAL ENERGY:    -1857.983131376 Eh

-----------------------------------------------------------------------------
         ABSORPTION SPECTRUM VIA TRANSITION ELECTRIC DIPOLE MOMENTS
-----------------------------------------------------------------------------
State   Energy    Wavelength  fosc         T2        TX        TY        TZ
        (cm-1)      (nm)                 (au**2)    (au)      (au)      (au)
-----------------------------------------------------------------------------
   1   27189.5    367.8   1.993396534  24.13619   4.84858   0.76194   0.21664
   2   27328.4    365.9   0.263458816   3.17376   1.65435  -0.62930  -0.20219
   3   30553.8    327.3   0.189946265   2.04664  -1.40610   0.25315   0.07373
   4   31253.6    320.0   0.047154748   0.49671   0.70013   0.07679   0.02507
   5   32745.1    305.4   0.229937854   2.31174   1.50142   0.23874   0.02189
   6   32717.2    305.6   0.004156455   0.04182  -0.17938  -0.08819  -0.04322
   7   36823.2    271.6   0.295095399   2.63825  -0.09224   1.31145  -0.95386
   8   33967.3    294.4   0.048065999   0.46586   0.67228  -0.11311  -0.03317
   9   33903.9    295.0   0.127841364   1.24136  -0.37056  -1.01759  -0.26181
  10   35416.9    282.4   0.003323306   0.03089   0.01668  -0.13257  -0.11419
  11   34075.0    293.5   0.001911870   0.01847   0.00687  -0.11303   0.07516
  12   35367.4    282.7   0.044506590   0.41428  -0.04751  -0.61350  -0.18880
  13   40641.4    246.1   0.000282477   0.00229  -0.04762  -0.00231  -0.00395
  14   36309.0    275.4   0.232920760   2.11188   1.24970   0.72245   0.16795
  15   37263.6    268.4   0.019550816   0.17273   0.13171  -0.36151  -0.15712
  16   37354.2    267.7   0.031457347   0.27724   0.28080  -0.42793  -0.12357
  17   37191.1    268.9   0.011648769   0.10311   0.15864  -0.26790   0.07859
  18   40139.1    249.1   0.354689744   2.90909  -0.08640   1.26922  -1.13609
  19   37524.5    266.5   0.072142734   0.63293   0.73496  -0.27536  -0.13016
  20   38894.1    257.1   0.114491191   0.96909  -0.94556  -0.26586  -0.06573
  21   40826.7    244.9   0.019994592   0.16123   0.21041   0.32668   0.10116
  22   41241.7    242.5   0.493695113   3.94092   1.10704   1.57984   0.46849
  23   39486.2    253.3   0.044693091   0.37262   0.01321   0.49274   0.36007
  24   39302.1    254.4   0.204304172   1.71134   0.04130  -1.27770   0.27768
  25   41012.3    243.8   0.162600213   1.30522   1.13849   0.08785   0.03677
  26   40303.7    248.1   0.034764725   0.28397  -0.07412   0.50475   0.15394
  27   41275.9    242.3   0.024588870   0.19612   0.09235   0.42763   0.06870
  28   42507.8    235.3   0.580431124   4.49529   0.11889  -1.76481   1.16902
  29   44148.8    226.5   0.011766023   0.08774   0.01265  -0.29004  -0.05876
  30   42536.1    235.1   0.091541604   0.70849   0.61386  -0.55331  -0.15974

Dispersion correction           -0.088959405
FINAL SINGLE POINT ENERGY     -1855.556255353348

DIPOLE MOMENT
-------------
                                X             Y             Z
Electronic contribution:     -5.89493       0.71650      -0.29953
Nuclear contribution   :      5.12236      -3.29801      -0.33612
                        -----------------------------------------
Total Dipole Moment    :     -0.77258      -2.58151      -0.63565
                        -----------------------------------------
Magnitude (a.u.)       :      2.76859
Magnitude (Debye)      :      7.03720

Rotational constants in cm-1:     0.006763     0.000541     0.000516
Rotational constants in MHz :   202.744715    16.225406    15.465508

                             ****ORCA TERMINATED NORMALLY****
TOTAL RUN TIME: 0 days 9 hours 21 minutes 15 seconds 603 msec
