                         Program Version 5.0.2 -  RELEASE  -
|  1> %maxcore 20000
|  2> %pal
|  3>  nprocs= 4
|  4> end
|  5> ! RI-B2GP-PLYP   def2-TZVP def2/J def2-TZVP/C RIJCOSX CPCM TightSCF
|  6> %TDDFT
|  7>    NROOTS   30
|  8>    dcorr 4
|  9>    TDA      FALSE
| 10> END
| 11>
| 12> %CPCM
| 13>    SMD          TRUE
| 14>    SMDsolvent   "ACETONITRILE"
| 15> END
| 16>
| 17>
| 18> * xyz 0 1
| 19> C                  -9.00401300   -3.45972300   -0.95086600
| 20> C                  -7.63854400   -3.40735100   -0.97340000
| 21> C                  -6.95389500   -2.21556700   -0.64148600
| 22> C                  -7.70513900   -1.05535000   -0.28362600
| 23> C                  -9.11792300   -1.15104000   -0.26657500
| 24> C                  -9.74916800   -2.32061600   -0.59211100
| 25> C                  -5.55570300   -2.15492800   -0.64922400
| 26> C                  -7.01965200    0.14399700    0.04387500
| 27> C                  -5.62670900    0.17139900    0.01531000
| 28> C                  -4.87926900   -0.99966300   -0.32608000
| 29> C                  -3.43028800   -0.93425200   -0.31586000
| 30> C                  -2.81588900    0.27267600    0.01639600
| 31> C                  -4.91696300    1.41973000    0.32027700
| 32> H                  -5.01294700   -3.05174000   -0.91711200
| 33> H                  -9.51776700   -4.37785300   -1.20633100
| 34> H                  -7.05396000   -4.27837900   -1.24399600
| 35> H                  -9.70304400   -0.28369000    0.00875100
| 36> H                 -10.83022900   -2.37250100   -0.57316100
| 37> C                  -7.84321600    1.32148000    0.42166800
| 38> C                  -8.38948100    2.14727900   -0.55716900
| 39> C                  -8.14010300    1.57038100    1.75912000
| 40> C                  -9.19175300    3.22134600   -0.20252800
| 41> H                  -8.17503100    1.94984300   -1.60101800
| 42> C                  -8.94472400    2.64251400    2.11256800
| 43> H                  -7.72762800    0.92387800    2.52492700
| 44> C                  -9.46957000    3.47480000    1.13340700
| 45> H                  -9.60365900    3.86060600   -0.97368900
| 46> H                  -9.16347200    2.82748400    3.15704900
| 47> H                 -10.09701500    4.31279200    1.40975300
| 48> O                  -5.40871200    2.49020500    0.57314400
| 49> O                  -3.54524600    1.38704900    0.31393300
| 50> C                  -2.58393500   -2.01262300   -0.60955500
| 51> C                  -1.44256000    0.42432200    0.06252500
| 52> C                  -0.61704600   -0.66201200   -0.23175200
| 53> C                  -1.21572600   -1.88930600   -0.57136500
| 54> H                  -0.58751800   -2.73888200   -0.80183500
| 55> H                  -3.01173700   -2.97047400   -0.87121700
| 56> H                  -1.02387000    1.38546400    0.32733300
| 57> C                   0.78795100   -0.53255300   -0.18824000
| 58> C                   1.99485100   -0.42870200   -0.15181500
| 59> C                   3.40088500   -0.30477700   -0.10835300
| 60> C                   4.22813300   -1.40394500   -0.38212200
| 61> C                   4.00369500    0.92121100    0.20958800
| 62> C                   5.60160600   -1.28010300   -0.34635600
| 63> H                   3.77994100   -2.35487600   -0.63826100
| 64> C                   5.37705100    1.04135200    0.25641400
| 65> H                   3.38056600    1.77679800    0.43406600
| 66> C                   6.18823500   -0.05717800   -0.02432500
| 67> H                   6.22870100   -2.12889600   -0.58459500
| 68> H                   5.82923800    1.98597700    0.52769800
| 69> C                   8.33542200    1.07760200   -0.58644300
| 70> C                   8.46761900   -0.79231100    0.66957800
| 71> C                   7.91100400    2.13350700   -1.38413300
| 72> C                   9.70363400    0.85995300   -0.31755900
| 73> C                   8.19385500   -1.91247800    1.44530000
| 74> C                   9.78748000   -0.32788100    0.48471100
| 75> C                   8.87793600    2.98718500   -1.88994000
| 76> H                   6.86458600    2.28489900   -1.61243800
| 77> C                  10.65501700    1.73353200   -0.83791600
| 78> C                   9.26662900   -2.57791800    2.01623200
| 79> H                   7.18052000   -2.25367000    1.60895300
| 80> C                  10.84763600   -1.01612300    1.06899600
| 81> C                  10.23547800    2.79720300   -1.61748300
| 82> H                   8.57118400    3.81803900   -2.51274700
| 83> H                  11.70778900    1.57538200   -0.63724800
| 84> C                  10.58109700   -2.14214400    1.82802900
| 85> H                   9.07782700   -3.45405700    2.62371400
| 86> H                  11.86443400   -0.66773200    0.93358800
| 87> H                  10.96298100    3.48587300   -2.02740000
| 88> H                  11.39482600   -2.68834900    2.28742000
| 89> N                   7.59046600    0.06835900    0.01641700
| 90> *
| 91>
| 92>
| 93>                          ****END OF INPUT****

CARTESIAN COORDINATES (ANGSTROEM)
---------------------------------
  C     -9.004013   -3.459723   -0.950866
  C     -7.638544   -3.407351   -0.973400
  C     -6.953895   -2.215567   -0.641486
  C     -7.705139   -1.055350   -0.283626
  C     -9.117923   -1.151040   -0.266575
  C     -9.749168   -2.320616   -0.592111
  C     -5.555703   -2.154928   -0.649224
  C     -7.019652    0.143997    0.043875
  C     -5.626709    0.171399    0.015310
  C     -4.879269   -0.999663   -0.326080
  C     -3.430288   -0.934252   -0.315860
  C     -2.815889    0.272676    0.016396
  C     -4.916963    1.419730    0.320277
  H     -5.012947   -3.051740   -0.917112
  H     -9.517767   -4.377853   -1.206331
  H     -7.053960   -4.278379   -1.243996
  H     -9.703044   -0.283690    0.008751
  H    -10.830229   -2.372501   -0.573161
  C     -7.843216    1.321480    0.421668
  C     -8.389481    2.147279   -0.557169
  C     -8.140103    1.570381    1.759120
  C     -9.191753    3.221346   -0.202528
  H     -8.175031    1.949843   -1.601018
  C     -8.944724    2.642514    2.112568
  H     -7.727628    0.923878    2.524927
  C     -9.469570    3.474800    1.133407
  H     -9.603659    3.860606   -0.973689
  H     -9.163472    2.827484    3.157049
  H    -10.097015    4.312792    1.409753
  O     -5.408712    2.490205    0.573144
  O     -3.545246    1.387049    0.313933
  C     -2.583935   -2.012623   -0.609555
  C     -1.442560    0.424322    0.062525
  C     -0.617046   -0.662012   -0.231752
  C     -1.215726   -1.889306   -0.571365
  H     -0.587518   -2.738882   -0.801835
  H     -3.011737   -2.970474   -0.871217
  H     -1.023870    1.385464    0.327333
  C      0.787951   -0.532553   -0.188240
  C      1.994851   -0.428702   -0.151815
  C      3.400885   -0.304777   -0.108353
  C      4.228133   -1.403945   -0.382122
  C      4.003695    0.921211    0.209588
  C      5.601606   -1.280103   -0.346356
  H      3.779941   -2.354876   -0.638261
  C      5.377051    1.041352    0.256414
  H      3.380566    1.776798    0.434066
  C      6.188235   -0.057178   -0.024325
  H      6.228701   -2.128896   -0.584595
  H      5.829238    1.985977    0.527698
  C      8.335422    1.077602   -0.586443
  C      8.467619   -0.792311    0.669578
  C      7.911004    2.133507   -1.384133
  C      9.703634    0.859953   -0.317559
  C      8.193855   -1.912478    1.445300
  C      9.787480   -0.327881    0.484711
  C      8.877936    2.987185   -1.889940
  H      6.864586    2.284899   -1.612438
  C     10.655017    1.733532   -0.837916
  C      9.266629   -2.577918    2.016232
  H      7.180520   -2.253670    1.608953
  C     10.847636   -1.016123    1.068996
  C     10.235478    2.797203   -1.617483
  H      8.571184    3.818039   -2.512747
  H     11.707789    1.575382   -0.637248
  C     10.581097   -2.142144    1.828029
  H      9.077827   -3.454057    2.623714
  H     11.864434   -0.667732    0.933588
  H     10.962981    3.485873   -2.027400
  H     11.394826   -2.688349    2.287420
  N      7.590466    0.068359    0.016417

 Total Charge           Charge          ....    0
 Multiplicity           Mult            ....    1
 Number of Electrons    NEL             ....  306
 Basis Dimension        Dim             .... 1576

ORBITAL ENERGIES
----------------

  NO   OCC          E(Eh)            E(eV)
   0   2.0000     -20.007258      -544.4252
   1   2.0000     -19.929344      -542.3050
   2   2.0000     -15.075844      -410.2346
   3   2.0000     -10.932548      -297.4898
   4   2.0000     -10.859520      -295.5026
   5   2.0000     -10.833982      -294.8076
   6   2.0000     -10.820901      -294.4517
   7   2.0000     -10.820870      -294.4508
   8   2.0000     -10.817829      -294.3681
   9   2.0000     -10.817245      -294.3522
  10   2.0000     -10.811437      -294.1942
  11   2.0000     -10.809244      -294.1345
  12   2.0000     -10.809068      -294.1297
  13   2.0000     -10.803393      -293.9753
  14   2.0000     -10.800397      -293.8937
  15   2.0000     -10.798438      -293.8404
  16   2.0000     -10.790582      -293.6267
  17   2.0000     -10.790555      -293.6259
  18   2.0000     -10.790512      -293.6247
  19   2.0000     -10.790497      -293.6243
  20   2.0000     -10.789899      -293.6081
  21   2.0000     -10.789278      -293.5912
  22   2.0000     -10.786246      -293.5087
  23   2.0000     -10.786188      -293.5071
  24   2.0000     -10.785561      -293.4900
  25   2.0000     -10.784852      -293.4707
  26   2.0000     -10.784789      -293.4690
  27   2.0000     -10.784382      -293.4580
  28   2.0000     -10.783201      -293.4258
  29   2.0000     -10.781364      -293.3758
  30   2.0000     -10.780901      -293.3632
  31   2.0000     -10.780443      -293.3508
  32   2.0000     -10.780281      -293.3464
  33   2.0000     -10.779217      -293.3174
  34   2.0000     -10.779110      -293.3145
  35   2.0000     -10.777521      -293.2712
  36   2.0000     -10.777493      -293.2705
  37   2.0000     -10.776436      -293.2417
  38   2.0000     -10.776405      -293.2409
  39   2.0000     -10.774817      -293.1977
  40   2.0000     -10.774627      -293.1925
  41   2.0000     -10.773640      -293.1656
  42   2.0000     -10.773483      -293.1614
  43   2.0000     -10.772664      -293.1391
  44   2.0000     -10.769663      -293.0574
  45   2.0000     -10.769611      -293.0560
  46   2.0000      -1.331131       -36.2219
  47   2.0000      -1.234924       -33.6040
  48   2.0000      -1.185859       -32.2689
  49   2.0000      -1.076306       -29.2878
  50   2.0000      -1.056047       -28.7365
  51   2.0000      -1.053043       -28.6548
  52   2.0000      -1.032784       -28.1035
  53   2.0000      -1.023585       -27.8532
  54   2.0000      -1.023227       -27.8434
  55   2.0000      -1.015145       -27.6235
  56   2.0000      -0.976751       -26.5787
  57   2.0000      -0.964376       -26.2420
  58   2.0000      -0.950845       -25.8738
  59   2.0000      -0.936249       -25.4766
  60   2.0000      -0.926988       -25.2246
  61   2.0000      -0.920946       -25.0602
  62   2.0000      -0.918139       -24.9838
  63   2.0000      -0.908890       -24.7322
  64   2.0000      -0.906252       -24.6604
  65   2.0000      -0.901601       -24.5338
  66   2.0000      -0.896795       -24.4030
  67   2.0000      -0.877041       -23.8655
  68   2.0000      -0.872882       -23.7523
  69   2.0000      -0.861464       -23.4416
  70   2.0000      -0.818583       -22.2748
  71   2.0000      -0.798631       -21.7319
  72   2.0000      -0.786130       -21.3917
  73   2.0000      -0.777269       -21.1506
  74   2.0000      -0.759814       -20.6756
  75   2.0000      -0.758706       -20.6454
  76   2.0000      -0.751101       -20.4385
  77   2.0000      -0.743062       -20.2197
  78   2.0000      -0.733642       -19.9634
  79   2.0000      -0.731067       -19.8933
  80   2.0000      -0.716015       -19.4838
  81   2.0000      -0.705073       -19.1860
  82   2.0000      -0.701807       -19.0971
  83   2.0000      -0.699057       -19.0223
  84   2.0000      -0.682546       -18.5730
  85   2.0000      -0.658096       -17.9077
  86   2.0000      -0.647035       -17.6067
  87   2.0000      -0.641724       -17.4622
  88   2.0000      -0.638503       -17.3746
  89   2.0000      -0.629209       -17.1216
  90   2.0000      -0.617505       -16.8032
  91   2.0000      -0.614566       -16.7232
  92   2.0000      -0.601526       -16.3683
  93   2.0000      -0.598102       -16.2752
  94   2.0000      -0.592293       -16.1171
  95   2.0000      -0.587927       -15.9983
  96   2.0000      -0.577277       -15.7085
  97   2.0000      -0.571129       -15.5412
  98   2.0000      -0.570140       -15.5143
  99   2.0000      -0.565624       -15.3914
 100   2.0000      -0.558586       -15.1999
 101   2.0000      -0.558081       -15.1862
 102   2.0000      -0.557941       -15.1823
 103   2.0000      -0.550986       -14.9931
 104   2.0000      -0.540690       -14.7129
 105   2.0000      -0.540142       -14.6980
 106   2.0000      -0.536019       -14.5858
 107   2.0000      -0.532281       -14.4841
 108   2.0000      -0.531925       -14.4744
 109   2.0000      -0.528494       -14.3810
 110   2.0000      -0.526319       -14.3219
 111   2.0000      -0.519746       -14.1430
 112   2.0000      -0.517518       -14.0824
 113   2.0000      -0.517206       -14.0739
 114   2.0000      -0.515112       -14.0169
 115   2.0000      -0.504299       -13.7227
 116   2.0000      -0.494036       -13.4434
 117   2.0000      -0.492993       -13.4150
 118   2.0000      -0.491076       -13.3629
 119   2.0000      -0.488886       -13.3033
 120   2.0000      -0.477819       -13.0021
 121   2.0000      -0.473787       -12.8924
 122   2.0000      -0.458753       -12.4833
 123   2.0000      -0.456583       -12.4243
 124   2.0000      -0.455117       -12.3844
 125   2.0000      -0.450770       -12.2661
 126   2.0000      -0.449960       -12.2440
 127   2.0000      -0.446099       -12.1390
 128   2.0000      -0.444016       -12.0823
 129   2.0000      -0.443640       -12.0721
 130   2.0000      -0.436649       -11.8818
 131   2.0000      -0.432100       -11.7580
 132   2.0000      -0.429929       -11.6990
 133   2.0000      -0.427567       -11.6347
 134   2.0000      -0.424723       -11.5573
 135   2.0000      -0.415792       -11.3143
 136   2.0000      -0.415592       -11.3088
 137   2.0000      -0.392019       -10.6674
 138   2.0000      -0.388355       -10.5677
 139   2.0000      -0.361560        -9.8385
 140   2.0000      -0.353366        -9.6156
 141   2.0000      -0.350807        -9.5460
 142   2.0000      -0.341133        -9.2827
 143   2.0000      -0.321667        -8.7530
 144   2.0000      -0.315212        -8.5774
 145   2.0000      -0.311493        -8.4762
 146   2.0000      -0.306981        -8.3534
 147   2.0000      -0.305691        -8.3183
 148   2.0000      -0.298404        -8.1200
 149   2.0000      -0.285527        -7.7696
 150   2.0000      -0.265463        -7.2236
 151   2.0000      -0.259471        -7.0606
 152   2.0000      -0.243073        -6.6144
 153   0.0000      -0.017683        -0.4812
 154   0.0000      -0.006991        -0.1902
 155   0.0000       0.025159         0.6846
 156   0.0000       0.028478         0.7749
 157   0.0000       0.051653         1.4056

MULLIKEN ATOMIC CHARGES
-----------------------
   0 C :   -0.115682
   1 C :   -0.280151
   2 C :    0.148000
   3 C :    0.093896
   4 C :   -0.251571
   5 C :   -0.172073
   6 C :   -0.411141
   7 C :    0.335864
   8 C :   -0.150468
   9 C :    0.122655
  10 C :    0.181140
  11 C :    0.246213
  12 C :    0.422567
  13 H :    0.164214
  14 H :    0.167218
  15 H :    0.164754
  16 H :    0.181573
  17 H :    0.165306
  18 C :    0.104812
  19 C :   -0.246986
  20 C :   -0.249884
  21 C :   -0.195040
  22 H :    0.159774
  23 C :   -0.192344
  24 H :    0.159392
  25 C :   -0.143025
  26 H :    0.158993
  27 H :    0.159042
  28 H :    0.161020
  29 O :   -0.422504
  30 O :   -0.274119
  31 C :   -0.249548
  32 C :   -0.362563
  33 C :   -0.005353
  34 C :   -0.211555
  35 H :    0.170017
  36 H :    0.170634
  37 H :    0.165482
  38 C :    0.079721
  39 C :    0.177096
  40 C :   -0.086237
  41 C :   -0.142435
  42 C :   -0.138218
  43 C :   -0.345349
  44 H :    0.171788
  45 C :   -0.348483
  46 H :    0.171565
  47 C :    0.273854
  48 H :    0.187256
  49 H :    0.187347
  50 C :    0.179679
  51 C :    0.182020
  52 C :   -0.333879
  53 C :   -0.007019
  54 C :   -0.338602
  55 C :   -0.005976
  56 C :   -0.117607
  57 H :    0.177325
  58 C :   -0.222490
  59 C :   -0.118962
  60 H :    0.177500
  61 C :   -0.224372
  62 C :   -0.194771
  63 H :    0.163424
  64 H :    0.164628
  65 C :   -0.191075
  66 H :    0.162913
  67 H :    0.164772
  68 H :    0.158291
  69 H :    0.158095
  70 N :    0.009639
Sum of atomic charges:   -0.0000000

LOEWDIN ATOMIC CHARGES
----------------------
   0 C :   -0.125701
   1 C :   -0.097379
   2 C :   -0.083368
   3 C :   -0.052777
   4 C :   -0.087818
   5 C :   -0.136149
   6 C :   -0.045735
   7 C :    0.014334
   8 C :   -0.050391
   9 C :   -0.061901
  10 C :   -0.080089
  11 C :   -0.173340
  12 C :   -0.348168
  13 H :    0.164843
  14 H :    0.154791
  15 H :    0.158317
  16 H :    0.162877
  17 H :    0.153901
  18 C :   -0.098960
  19 C :   -0.101936
  20 C :   -0.101149
  21 C :   -0.146015
  22 H :    0.156061
  23 C :   -0.145841
  24 H :    0.156055
  25 C :   -0.150176
  26 H :    0.150929
  27 H :    0.150893
  28 H :    0.149756
  29 O :    0.079056
  30 O :    0.317445
  31 C :   -0.077678
  32 C :   -0.055061
  33 C :   -0.140093
  34 C :   -0.092232
  35 H :    0.160240
  36 H :    0.161883
  37 H :    0.165723
  38 C :   -0.024067
  39 C :   -0.020076
  40 C :   -0.151878
  41 C :   -0.077078
  42 C :   -0.076887
  43 C :   -0.098191
  44 H :    0.161144
  45 C :   -0.098075
  46 H :    0.161204
  47 C :   -0.148324
  48 H :    0.163373
  49 H :    0.163504
  50 C :   -0.111000
  51 C :   -0.110740
  52 C :   -0.127727
  53 C :   -0.090953
  54 C :   -0.127935
  55 C :   -0.090857
  56 C :   -0.145798
  57 H :    0.156614
  58 C :   -0.103534
  59 C :   -0.145550
  60 H :    0.156473
  61 C :   -0.103431
  62 C :   -0.167233
  63 H :    0.151669
  64 H :    0.154992
  65 C :   -0.167101
  66 H :    0.151613
  67 H :    0.154992
  68 H :    0.148868
  69 H :    0.148798
  70 N :    0.308043

  Mayer bond orders larger than 0.100000
B(  0-C ,  1-C ) :   1.5519 B(  0-C ,  5-C ) :   1.2235 B(  0-C , 14-H ) :   0.9811
B(  1-C ,  2-C ) :   1.2223 B(  1-C , 15-H ) :   0.9884 B(  2-C ,  3-C ) :   1.2865
B(  2-C ,  6-C ) :   1.2591 B(  3-C ,  4-C ) :   1.2018 B(  3-C ,  7-C ) :   1.2005
B(  4-C ,  5-C ) :   1.5985 B(  4-C , 16-H ) :   0.9639 B(  5-C , 17-H ) :   0.9830
B(  6-C ,  9-C ) :   1.4943 B(  6-C , 13-H ) :   0.9767 B(  7-C ,  8-C ) :   1.3834
B(  7-C , 18-C ) :   0.7092 B(  8-C ,  9-C ) :   1.2462 B(  8-C , 12-C ) :   1.0008
B(  9-C , 10-C ) :   0.9880 B( 10-C , 11-C ) :   1.3574 B( 10-C , 31-C ) :   1.2880
B( 11-C , 30-O ) :   0.9862 B( 11-C , 32-C ) :   1.3973 B( 12-C , 29-O ) :   2.0551
B( 12-C , 30-O ) :   1.1620 B( 18-C , 19-C ) :   1.3995 B( 18-C , 20-C ) :   1.4116
B( 19-C , 21-C ) :   1.4440 B( 19-C , 22-H ) :   0.9829 B( 20-C , 23-C ) :   1.4492
B( 20-C , 24-H ) :   0.9839 B( 21-C , 25-C ) :   1.3967 B( 21-C , 26-H ) :   0.9833
B( 23-C , 25-C ) :   1.3948 B( 23-C , 27-H ) :   0.9826 B( 25-C , 28-H ) :   0.9787
B( 31-C , 34-C ) :   1.4957 B( 31-C , 36-H ) :   0.9624 B( 32-C , 33-C ) :   1.3418
B( 32-C , 37-H ) :   1.0141 B( 33-C , 34-C ) :   1.2979 B( 33-C , 38-C ) :   1.1322
B( 33-C , 39-C ) :  -0.1775 B( 34-C , 35-H ) :   0.9916 B( 38-C , 39-C ) :   2.8517
B( 38-C , 40-C ) :  -0.1649 B( 39-C , 40-C ) :   1.0464 B( 40-C , 41-C ) :   1.3353
B( 40-C , 42-C ) :   1.3355 B( 41-C , 43-C ) :   1.4501 B( 41-C , 44-H ) :   0.9821
B( 42-C , 45-C ) :   1.4481 B( 42-C , 46-H ) :   0.9825 B( 43-C , 47-C ) :   1.3547
B( 43-C , 48-H ) :   0.9854 B( 45-C , 47-C ) :   1.3554 B( 45-C , 49-H ) :   0.9854
B( 47-C , 70-N ) :   0.9561 B( 50-C , 52-C ) :   1.3400 B( 50-C , 53-C ) :   1.3016
B( 50-C , 70-N ) :   1.1176 B( 51-C , 54-C ) :   1.3390 B( 51-C , 55-C ) :   1.3027
B( 51-C , 70-N ) :   1.1162 B( 52-C , 56-C ) :   1.4521 B( 52-C , 57-H ) :   0.9758
B( 53-C , 55-C ) :   1.0465 B( 53-C , 58-C ) :   1.3176 B( 54-C , 59-C ) :   1.4545
B( 54-C , 60-H ) :   0.9759 B( 55-C , 61-C ) :   1.3168 B( 56-C , 62-C ) :   1.3514
B( 56-C , 63-H ) :   0.9769 B( 58-C , 62-C ) :   1.4803 B( 58-C , 64-H ) :   0.9787
B( 59-C , 65-C ) :   1.3525 B( 59-C , 66-H ) :   0.9768 B( 61-C , 65-C ) :   1.4803
B( 61-C , 67-H ) :   0.9790 B( 62-C , 68-H ) :   0.9873 B( 65-C , 69-H ) :   0.9867

MP2 TOTAL ENERGY:    -1857.604972315 Eh

-----------------------------------------------------------------------------
         ABSORPTION SPECTRUM VIA TRANSITION ELECTRIC DIPOLE MOMENTS
-----------------------------------------------------------------------------
State   Energy    Wavelength  fosc         T2        TX        TY        TZ
        (cm-1)      (nm)                 (au**2)    (au)      (au)      (au)
-----------------------------------------------------------------------------
   1   28567.7    350.0   1.942281838  22.38272   4.66136   0.77787   0.22222
   2   28386.0    352.3   0.319427802   3.70462  -1.81308   0.61402   0.20082
   3   32198.9    310.6   0.305202193   3.12049   1.75667  -0.17757  -0.05533
   4   32055.9    312.0   0.048348976   0.49654  -0.70016  -0.07546  -0.02506
   5   34256.6    291.9   0.165236456   1.58795   1.19878   0.37972   0.08180
   6   37611.4    265.9   0.310385182   2.71680  -0.07481   1.33720  -0.96078
   7   35046.8    285.3   0.050421460   0.47363   0.68720  -0.02702  -0.02555
   8   34278.5    291.7   0.002794060   0.02683   0.13236   0.08624   0.04332
   9   36406.1    274.7   0.001967714   0.01779   0.01426  -0.07495  -0.10942
  10   36863.7    271.3   0.341092511   3.04613   0.82490   1.48660   0.39458
  11   42138.3    237.3   0.000139089   0.00109   0.00654  -0.03025  -0.01136
  12   37730.1    265.0   0.044100167   0.38479   0.02829  -0.47569   0.39714
  13   38924.3    256.9   0.128459900   1.08648  -0.95248   0.39564   0.15078
  14   36806.4    271.7   0.154352115   1.38059   1.00005   0.59276   0.17064
  15   40463.6    247.1   0.002459494   0.02001  -0.08374  -0.08113   0.08010
  16   40226.2    248.6   0.344364607   2.81828  -0.08622   1.23795  -1.13063
  17   40211.1    248.7   0.061832737   0.50623  -0.71088  -0.00343  -0.02953
  18   41651.2    240.1   0.149356639   1.18052  -0.75186  -0.77722  -0.10567
  19   42894.9    233.1   0.426097607   3.27024  -1.30940  -1.18227  -0.39743
  20   40925.0    244.3   0.138217425   1.11186  -0.33203   0.94364   0.33339
  21   40479.3    247.0   0.066367224   0.53975   0.32184  -0.64628  -0.13600
  22   45574.6    219.4   0.012317967   0.08898   0.27608   0.05536   0.09847
  23   41276.1    242.3   0.088177597   0.70329   0.83483   0.07961   0.00238
  24   42915.3    233.0   0.172137075   1.32050  -0.03072  -1.10966  -0.29698
  25   44086.4    226.8   0.171922311   1.28382   1.02897  -0.44296  -0.16978
  26   44001.9    227.3   0.800897092   5.99212   0.14733  -2.10041   1.24848
  27   49189.9    203.3   0.080685846   0.54000   0.71758  -0.15654  -0.02391
  28   42512.2    235.2   0.082715684   0.64055   0.42883   0.67421   0.04576
  29   43885.3    227.9   0.011026782   0.08272   0.18805   0.11520   0.18462
  30   45559.2    219.5   0.008940018   0.06460   0.13782   0.17788   0.11818

FINAL SINGLE POINT ENERGY     -1854.457292593548

DIPOLE MOMENT
-------------
                                X             Y             Z
Electronic contribution:     -5.88426       0.69796      -0.30323
Nuclear contribution   :      5.12236      -3.29801      -0.33612
                        -----------------------------------------
Total Dipole Moment    :     -0.76190      -2.60005      -0.63935
                        -----------------------------------------
Magnitude (a.u.)       :      2.78380
Magnitude (Debye)      :      7.07585

Rotational constants in cm-1:     0.006763     0.000541     0.000516
Rotational constants in MHz :   202.744715    16.225406    15.465508

                             ****ORCA TERMINATED NORMALLY****
TOTAL RUN TIME: 1 days 10 hours 11 minutes 51 seconds 5 msec
