                         Program Version 5.0.2 -  RELEASE  -
|  1> %maxcore 24000
|  2> %pal
|  3>  nprocs= 8
|  4> end
|  5> ! RI-DSD-BLYP D3BJ def2-TZVP def2/J def2-TZVP/C RIJCOSX CPCM TightSCF
|  6> %TDDFT
|  7>    NROOTS   30
|  8>    dcorr 4
|  9>    doscs true
| 10>    scspar 0.333, 1.2, 0.43, 1.24
| 11>    TDA      FALSE
| 12> END
| 13>
| 14> %CPCM
| 15>    SMD          TRUE
| 16>    SMDsolvent   "ACETONITRILE"
| 17> END
| 18>
| 19>
| 20> * xyz 0 1
| 21> C                  -9.00401300   -3.45972300   -0.95086600
| 22> C                  -7.63854400   -3.40735100   -0.97340000
| 23> C                  -6.95389500   -2.21556700   -0.64148600
| 24> C                  -7.70513900   -1.05535000   -0.28362600
| 25> C                  -9.11792300   -1.15104000   -0.26657500
| 26> C                  -9.74916800   -2.32061600   -0.59211100
| 27> C                  -5.55570300   -2.15492800   -0.64922400
| 28> C                  -7.01965200    0.14399700    0.04387500
| 29> C                  -5.62670900    0.17139900    0.01531000
| 30> C                  -4.87926900   -0.99966300   -0.32608000
| 31> C                  -3.43028800   -0.93425200   -0.31586000
| 32> C                  -2.81588900    0.27267600    0.01639600
| 33> C                  -4.91696300    1.41973000    0.32027700
| 34> H                  -5.01294700   -3.05174000   -0.91711200
| 35> H                  -9.51776700   -4.37785300   -1.20633100
| 36> H                  -7.05396000   -4.27837900   -1.24399600
| 37> H                  -9.70304400   -0.28369000    0.00875100
| 38> H                 -10.83022900   -2.37250100   -0.57316100
| 39> C                  -7.84321600    1.32148000    0.42166800
| 40> C                  -8.38948100    2.14727900   -0.55716900
| 41> C                  -8.14010300    1.57038100    1.75912000
| 42> C                  -9.19175300    3.22134600   -0.20252800
| 43> H                  -8.17503100    1.94984300   -1.60101800
| 44> C                  -8.94472400    2.64251400    2.11256800
| 45> H                  -7.72762800    0.92387800    2.52492700
| 46> C                  -9.46957000    3.47480000    1.13340700
| 47> H                  -9.60365900    3.86060600   -0.97368900
| 48> H                  -9.16347200    2.82748400    3.15704900
| 49> H                 -10.09701500    4.31279200    1.40975300
| 50> O                  -5.40871200    2.49020500    0.57314400
| 51> O                  -3.54524600    1.38704900    0.31393300
| 52> C                  -2.58393500   -2.01262300   -0.60955500
| 53> C                  -1.44256000    0.42432200    0.06252500
| 54> C                  -0.61704600   -0.66201200   -0.23175200
| 55> C                  -1.21572600   -1.88930600   -0.57136500
| 56> H                  -0.58751800   -2.73888200   -0.80183500
| 57> H                  -3.01173700   -2.97047400   -0.87121700
| 58> H                  -1.02387000    1.38546400    0.32733300
| 59> C                   0.78795100   -0.53255300   -0.18824000
| 60> C                   1.99485100   -0.42870200   -0.15181500
| 61> C                   3.40088500   -0.30477700   -0.10835300
| 62> C                   4.22813300   -1.40394500   -0.38212200
| 63> C                   4.00369500    0.92121100    0.20958800
| 64> C                   5.60160600   -1.28010300   -0.34635600
| 65> H                   3.77994100   -2.35487600   -0.63826100
| 66> C                   5.37705100    1.04135200    0.25641400
| 67> H                   3.38056600    1.77679800    0.43406600
| 68> C                   6.18823500   -0.05717800   -0.02432500
| 69> H                   6.22870100   -2.12889600   -0.58459500
| 70> H                   5.82923800    1.98597700    0.52769800
| 71> C                   8.33542200    1.07760200   -0.58644300
| 72> C                   8.46761900   -0.79231100    0.66957800
| 73> C                   7.91100400    2.13350700   -1.38413300
| 74> C                   9.70363400    0.85995300   -0.31755900
| 75> C                   8.19385500   -1.91247800    1.44530000
| 76> C                   9.78748000   -0.32788100    0.48471100
| 77> C                   8.87793600    2.98718500   -1.88994000
| 78> H                   6.86458600    2.28489900   -1.61243800
| 79> C                  10.65501700    1.73353200   -0.83791600
| 80> C                   9.26662900   -2.57791800    2.01623200
| 81> H                   7.18052000   -2.25367000    1.60895300
| 82> C                  10.84763600   -1.01612300    1.06899600
| 83> C                  10.23547800    2.79720300   -1.61748300
| 84> H                   8.57118400    3.81803900   -2.51274700
| 85> H                  11.70778900    1.57538200   -0.63724800
| 86> C                  10.58109700   -2.14214400    1.82802900
| 87> H                   9.07782700   -3.45405700    2.62371400
| 88> H                  11.86443400   -0.66773200    0.93358800
| 89> H                  10.96298100    3.48587300   -2.02740000
| 90> H                  11.39482600   -2.68834900    2.28742000
| 91> N                   7.59046600    0.06835900    0.01641700
| 92> *
| 93>
| 94>
| 95>                          ****END OF INPUT****

CARTESIAN COORDINATES (ANGSTROEM)
---------------------------------
  C     -9.004013   -3.459723   -0.950866
  C     -7.638544   -3.407351   -0.973400
  C     -6.953895   -2.215567   -0.641486
  C     -7.705139   -1.055350   -0.283626
  C     -9.117923   -1.151040   -0.266575
  C     -9.749168   -2.320616   -0.592111
  C     -5.555703   -2.154928   -0.649224
  C     -7.019652    0.143997    0.043875
  C     -5.626709    0.171399    0.015310
  C     -4.879269   -0.999663   -0.326080
  C     -3.430288   -0.934252   -0.315860
  C     -2.815889    0.272676    0.016396
  C     -4.916963    1.419730    0.320277
  H     -5.012947   -3.051740   -0.917112
  H     -9.517767   -4.377853   -1.206331
  H     -7.053960   -4.278379   -1.243996
  H     -9.703044   -0.283690    0.008751
  H    -10.830229   -2.372501   -0.573161
  C     -7.843216    1.321480    0.421668
  C     -8.389481    2.147279   -0.557169
  C     -8.140103    1.570381    1.759120
  C     -9.191753    3.221346   -0.202528
  H     -8.175031    1.949843   -1.601018
  C     -8.944724    2.642514    2.112568
  H     -7.727628    0.923878    2.524927
  C     -9.469570    3.474800    1.133407
  H     -9.603659    3.860606   -0.973689
  H     -9.163472    2.827484    3.157049
  H    -10.097015    4.312792    1.409753
  O     -5.408712    2.490205    0.573144
  O     -3.545246    1.387049    0.313933
  C     -2.583935   -2.012623   -0.609555
  C     -1.442560    0.424322    0.062525
  C     -0.617046   -0.662012   -0.231752
  C     -1.215726   -1.889306   -0.571365
  H     -0.587518   -2.738882   -0.801835
  H     -3.011737   -2.970474   -0.871217
  H     -1.023870    1.385464    0.327333
  C      0.787951   -0.532553   -0.188240
  C      1.994851   -0.428702   -0.151815
  C      3.400885   -0.304777   -0.108353
  C      4.228133   -1.403945   -0.382122
  C      4.003695    0.921211    0.209588
  C      5.601606   -1.280103   -0.346356
  H      3.779941   -2.354876   -0.638261
  C      5.377051    1.041352    0.256414
  H      3.380566    1.776798    0.434066
  C      6.188235   -0.057178   -0.024325
  H      6.228701   -2.128896   -0.584595
  H      5.829238    1.985977    0.527698
  C      8.335422    1.077602   -0.586443
  C      8.467619   -0.792311    0.669578
  C      7.911004    2.133507   -1.384133
  C      9.703634    0.859953   -0.317559
  C      8.193855   -1.912478    1.445300
  C      9.787480   -0.327881    0.484711
  C      8.877936    2.987185   -1.889940
  H      6.864586    2.284899   -1.612438
  C     10.655017    1.733532   -0.837916
  C      9.266629   -2.577918    2.016232
  H      7.180520   -2.253670    1.608953
  C     10.847636   -1.016123    1.068996
  C     10.235478    2.797203   -1.617483
  H      8.571184    3.818039   -2.512747
  H     11.707789    1.575382   -0.637248
  C     10.581097   -2.142144    1.828029
  H      9.077827   -3.454057    2.623714
  H     11.864434   -0.667732    0.933588
  H     10.962981    3.485873   -2.027400
  H     11.394826   -2.688349    2.287420
  N      7.590466    0.068359    0.016417

 Total Charge           Charge          ....    0
 Multiplicity           Mult            ....    1
 Number of Electrons    NEL             ....  306
 Basis Dimension        Dim             .... 1576

ORBITAL ENERGIES
----------------

  NO   OCC          E(Eh)            E(eV)
   0   2.0000     -20.076604      -546.3122
   1   2.0000     -19.998571      -544.1888
   2   2.0000     -15.135705      -411.8635
   3   2.0000     -10.984539      -298.9045
   4   2.0000     -10.910761      -296.8969
   5   2.0000     -10.885085      -296.1982
   6   2.0000     -10.872075      -295.8442
   7   2.0000     -10.872045      -295.8434
   8   2.0000     -10.869160      -295.7649
   9   2.0000     -10.868308      -295.7417
  10   2.0000     -10.862491      -295.5834
  11   2.0000     -10.860075      -295.5177
  12   2.0000     -10.859840      -295.5113
  13   2.0000     -10.854224      -295.3585
  14   2.0000     -10.851402      -295.2817
  15   2.0000     -10.849224      -295.2224
  16   2.0000     -10.841631      -295.0158
  17   2.0000     -10.841604      -295.0150
  18   2.0000     -10.841544      -295.0134
  19   2.0000     -10.841440      -295.0106
  20   2.0000     -10.840935      -294.9968
  21   2.0000     -10.840180      -294.9763
  22   2.0000     -10.837148      -294.8938
  23   2.0000     -10.837122      -294.8931
  24   2.0000     -10.836347      -294.8720
  25   2.0000     -10.835660      -294.8533
  26   2.0000     -10.835597      -294.8516
  27   2.0000     -10.835423      -294.8468
  28   2.0000     -10.834194      -294.8134
  29   2.0000     -10.832211      -294.7595
  30   2.0000     -10.831734      -294.7465
  31   2.0000     -10.831289      -294.7344
  32   2.0000     -10.831153      -294.7307
  33   2.0000     -10.830282      -294.7069
  34   2.0000     -10.830111      -294.7023
  35   2.0000     -10.828572      -294.6604
  36   2.0000     -10.828545      -294.6597
  37   2.0000     -10.827340      -294.6269
  38   2.0000     -10.827307      -294.6260
  39   2.0000     -10.825803      -294.5851
  40   2.0000     -10.825602      -294.5796
  41   2.0000     -10.824560      -294.5513
  42   2.0000     -10.824402      -294.5470
  43   2.0000     -10.823596      -294.5250
  44   2.0000     -10.820540      -294.4419
  45   2.0000     -10.820487      -294.4404
  46   2.0000      -1.347366       -36.6637
  47   2.0000      -1.250411       -34.0254
  48   2.0000      -1.200389       -32.6642
  49   2.0000      -1.090084       -29.6627
  50   2.0000      -1.069549       -29.1039
  51   2.0000      -1.066513       -29.0213
  52   2.0000      -1.046203       -28.4686
  53   2.0000      -1.036870       -28.2147
  54   2.0000      -1.036421       -28.2024
  55   2.0000      -1.028216       -27.9792
  56   2.0000      -0.989461       -26.9246
  57   2.0000      -0.976856       -26.5816
  58   2.0000      -0.963200       -26.2100
  59   2.0000      -0.948468       -25.8091
  60   2.0000      -0.938949       -25.5501
  61   2.0000      -0.932990       -25.3880
  62   2.0000      -0.930136       -25.3103
  63   2.0000      -0.920885       -25.0586
  64   2.0000      -0.918242       -24.9866
  65   2.0000      -0.913611       -24.8606
  66   2.0000      -0.908602       -24.7243
  67   2.0000      -0.888573       -24.1793
  68   2.0000      -0.884499       -24.0684
  69   2.0000      -0.872872       -23.7521
  70   2.0000      -0.828926       -22.5562
  71   2.0000      -0.808807       -22.0087
  72   2.0000      -0.796084       -21.6625
  73   2.0000      -0.786993       -21.4152
  74   2.0000      -0.769682       -20.9441
  75   2.0000      -0.768343       -20.9077
  76   2.0000      -0.760766       -20.7015
  77   2.0000      -0.752619       -20.4798
  78   2.0000      -0.743254       -20.2250
  79   2.0000      -0.740448       -20.1486
  80   2.0000      -0.725130       -19.7318
  81   2.0000      -0.714093       -19.4315
  82   2.0000      -0.711003       -19.3474
  83   2.0000      -0.708030       -19.2665
  84   2.0000      -0.691364       -18.8130
  85   2.0000      -0.666107       -18.1257
  86   2.0000      -0.655002       -17.8235
  87   2.0000      -0.649798       -17.6819
  88   2.0000      -0.646448       -17.5907
  89   2.0000      -0.637020       -17.3342
  90   2.0000      -0.625421       -17.0186
  91   2.0000      -0.622417       -16.9368
  92   2.0000      -0.609299       -16.5799
  93   2.0000      -0.605768       -16.4838
  94   2.0000      -0.599929       -16.3249
  95   2.0000      -0.595286       -16.1985
  96   2.0000      -0.584950       -15.9173
  97   2.0000      -0.578528       -15.7425
  98   2.0000      -0.577603       -15.7174
  99   2.0000      -0.573323       -15.6009
 100   2.0000      -0.566069       -15.4035
 101   2.0000      -0.565273       -15.3819
 102   2.0000      -0.565158       -15.3787
 103   2.0000      -0.558260       -15.1910
 104   2.0000      -0.547628       -14.9017
 105   2.0000      -0.547175       -14.8894
 106   2.0000      -0.543048       -14.7771
 107   2.0000      -0.539221       -14.6729
 108   2.0000      -0.538754       -14.6602
 109   2.0000      -0.535422       -14.5696
 110   2.0000      -0.533201       -14.5091
 111   2.0000      -0.526419       -14.3246
 112   2.0000      -0.524333       -14.2678
 113   2.0000      -0.524051       -14.2602
 114   2.0000      -0.521941       -14.2027
 115   2.0000      -0.511264       -13.9122
 116   2.0000      -0.500263       -13.6128
 117   2.0000      -0.499312       -13.5870
 118   2.0000      -0.496836       -13.5196
 119   2.0000      -0.495334       -13.4787
 120   2.0000      -0.483390       -13.1537
 121   2.0000      -0.480164       -13.0659
 122   2.0000      -0.465027       -12.6540
 123   2.0000      -0.462593       -12.5878
 124   2.0000      -0.461309       -12.5529
 125   2.0000      -0.456582       -12.4242
 126   2.0000      -0.455847       -12.4042
 127   2.0000      -0.451805       -12.2942
 128   2.0000      -0.449705       -12.2371
 129   2.0000      -0.449249       -12.2247
 130   2.0000      -0.442920       -12.0525
 131   2.0000      -0.437394       -11.9021
 132   2.0000      -0.435830       -11.8595
 133   2.0000      -0.433111       -11.7855
 134   2.0000      -0.430593       -11.7170
 135   2.0000      -0.421435       -11.4678
 136   2.0000      -0.420788       -11.4502
 137   2.0000      -0.398599       -10.8464
 138   2.0000      -0.392770       -10.6878
 139   2.0000      -0.365079        -9.9343
 140   2.0000      -0.357656        -9.7323
 141   2.0000      -0.354332        -9.6419
 142   2.0000      -0.344080        -9.3629
 143   2.0000      -0.324391        -8.8271
 144   2.0000      -0.318077        -8.6553
 145   2.0000      -0.314148        -8.5484
 146   2.0000      -0.309665        -8.4264
 147   2.0000      -0.308288        -8.3890
 148   2.0000      -0.301181        -8.1956
 149   2.0000      -0.287833        -7.8323
 150   2.0000      -0.267366        -7.2754
 151   2.0000      -0.261494        -7.1156
 152   2.0000      -0.244964        -6.6658
 153   0.0000      -0.010303        -0.2804
 154   0.0000       0.000785         0.0214
 155   0.0000       0.032739         0.8909
 156   0.0000       0.036366         0.9896
 157   0.0000       0.059816         1.6277

MULLIKEN ATOMIC CHARGES
-----------------------
   0 C :   -0.113858
   1 C :   -0.285976
   2 C :    0.154491
   3 C :    0.098465
   4 C :   -0.257515
   5 C :   -0.172242
   6 C :   -0.421503
   7 C :    0.348236
   8 C :   -0.152492
   9 C :    0.124727
  10 C :    0.186720
  11 C :    0.248423
  12 C :    0.428461
  13 H :    0.164474
  14 H :    0.167230
  15 H :    0.165056
  16 H :    0.181236
  17 H :    0.165209
  18 C :    0.115974
  19 C :   -0.251505
  20 C :   -0.255191
  21 C :   -0.195468
  22 H :    0.159851
  23 C :   -0.192484
  24 H :    0.159453
  25 C :   -0.143118
  26 H :    0.158859
  27 H :    0.158952
  28 H :    0.160926
  29 O :   -0.431006
  30 O :   -0.278626
  31 C :   -0.251260
  32 C :   -0.367933
  33 C :   -0.006980
  34 C :   -0.212737
  35 H :    0.169960
  36 H :    0.170274
  37 H :    0.165176
  38 C :    0.085433
  39 C :    0.186091
  40 C :   -0.092421
  41 C :   -0.140880
  42 C :   -0.136499
  43 C :   -0.348504
  44 H :    0.171619
  45 C :   -0.351863
  46 H :    0.171389
  47 C :    0.276653
  48 H :    0.186219
  49 H :    0.186319
  50 C :    0.185364
  51 C :    0.187647
  52 C :   -0.340371
  53 C :   -0.008948
  54 C :   -0.345270
  55 C :   -0.007776
  56 C :   -0.113808
  57 H :    0.176423
  58 C :   -0.221238
  59 C :   -0.115267
  60 H :    0.176585
  61 C :   -0.223243
  62 C :   -0.196610
  63 H :    0.163421
  64 H :    0.164906
  65 C :   -0.192713
  66 H :    0.162885
  67 H :    0.165041
  68 H :    0.158189
  69 H :    0.158001
  70 N :    0.010968
Sum of atomic charges:   -0.0000000

LOEWDIN ATOMIC CHARGES
----------------------
   0 C :   -0.125088
   1 C :   -0.097471
   2 C :   -0.082941
   3 C :   -0.053015
   4 C :   -0.087479
   5 C :   -0.136174
   6 C :   -0.046006
   7 C :    0.015368
   8 C :   -0.050740
   9 C :   -0.061604
  10 C :   -0.080106
  11 C :   -0.172149
  12 C :   -0.344060
  13 H :    0.164500
  14 H :    0.154432
  15 H :    0.157925
  16 H :    0.162548
  17 H :    0.153488
  18 C :   -0.098284
  19 C :   -0.101561
  20 C :   -0.100789
  21 C :   -0.145648
  22 H :    0.155676
  23 C :   -0.145473
  24 H :    0.155670
  25 C :   -0.149887
  26 H :    0.150552
  27 H :    0.150514
  28 H :    0.149376
  29 O :    0.075974
  30 O :    0.314747
  31 C :   -0.077079
  32 C :   -0.054886
  33 C :   -0.139623
  34 C :   -0.092226
  35 H :    0.159852
  36 H :    0.161580
  37 H :    0.165357
  38 C :   -0.024395
  39 C :   -0.020229
  40 C :   -0.151909
  41 C :   -0.076556
  42 C :   -0.076365
  43 C :   -0.098029
  44 H :    0.160785
  45 C :   -0.097912
  46 H :    0.160845
  47 C :   -0.147587
  48 H :    0.162943
  49 H :    0.163075
  50 C :   -0.110189
  51 C :   -0.109927
  52 C :   -0.127668
  53 C :   -0.091054
  54 C :   -0.127877
  55 C :   -0.090961
  56 C :   -0.145084
  57 H :    0.156232
  58 C :   -0.102830
  59 C :   -0.144830
  60 H :    0.156091
  61 C :   -0.102722
  62 C :   -0.167250
  63 H :    0.151325
  64 H :    0.154669
  65 C :   -0.167124
  66 H :    0.151269
  67 H :    0.154669
  68 H :    0.148470
  69 H :    0.148399
  70 N :    0.306458

  Mayer bond orders larger than 0.100000
B(  0-C ,  1-C ) :   1.5541 B(  0-C ,  5-C ) :   1.2214 B(  0-C , 14-H ) :   0.9822
B(  1-C ,  2-C ) :   1.2234 B(  1-C , 15-H ) :   0.9902 B(  2-C ,  3-C ) :   1.2918
B(  2-C ,  6-C ) :   1.2551 B(  3-C ,  4-C ) :   1.1994 B(  3-C ,  7-C ) :   1.2018
B(  4-C ,  5-C ) :   1.6019 B(  4-C , 16-H ) :   0.9663 B(  5-C , 17-H ) :   0.9842
B(  6-C ,  9-C ) :   1.4958 B(  6-C , 13-H ) :   0.9808 B(  7-C ,  8-C ) :   1.3849
B(  7-C , 18-C ) :   0.7014 B(  8-C ,  9-C ) :   1.2477 B(  8-C , 12-C ) :   1.0023
B(  9-C , 10-C ) :   0.9839 B( 10-C , 11-C ) :   1.3613 B( 10-C , 31-C ) :   1.2889
B( 11-C , 30-O ) :   0.9864 B( 11-C , 32-C ) :   1.3965 B( 12-C , 29-O ) :   2.0517
B( 12-C , 30-O ) :   1.1615 B( 18-C , 19-C ) :   1.4031 B( 18-C , 20-C ) :   1.4155
B( 19-C , 21-C ) :   1.4462 B( 19-C , 22-H ) :   0.9835 B( 20-C , 23-C ) :   1.4515
B( 20-C , 24-H ) :   0.9846 B( 21-C , 25-C ) :   1.3979 B( 21-C , 26-H ) :   0.9844
B( 23-C , 25-C ) :   1.3961 B( 23-C , 27-H ) :   0.9837 B( 25-C , 28-H ) :   0.9798
B( 31-C , 34-C ) :   1.4950 B( 31-C , 36-H ) :   0.9652 B( 32-C , 33-C ) :   1.3432
B( 32-C , 37-H ) :   1.0167 B( 33-C , 34-C ) :   1.2998 B( 33-C , 38-C ) :   1.1302
B( 33-C , 39-C ) :  -0.1915 B( 34-C , 35-H ) :   0.9933 B( 38-C , 39-C ) :   2.8548
B( 38-C , 40-C ) :  -0.1789 B( 39-C , 40-C ) :   1.0417 B( 40-C , 41-C ) :   1.3374
B( 40-C , 42-C ) :   1.3374 B( 41-C , 43-C ) :   1.4508 B( 41-C , 44-H ) :   0.9835
B( 42-C , 45-C ) :   1.4486 B( 42-C , 46-H ) :   0.9839 B( 43-C , 47-C ) :   1.3571
B( 43-C , 48-H ) :   0.9868 B( 45-C , 47-C ) :   1.3579 B( 45-C , 49-H ) :   0.9868
B( 47-C , 70-N ) :   0.9551 B( 50-C , 52-C ) :   1.3424 B( 50-C , 53-C ) :   1.3026
B( 50-C , 70-N ) :   1.1170 B( 51-C , 54-C ) :   1.3414 B( 51-C , 55-C ) :   1.3038
B( 51-C , 70-N ) :   1.1156 B( 52-C , 56-C ) :   1.4527 B( 52-C , 57-H ) :   0.9779
B( 53-C , 55-C ) :   1.0419 B( 53-C , 58-C ) :   1.3175 B( 54-C , 59-C ) :   1.4552
B( 54-C , 60-H ) :   0.9780 B( 55-C , 61-C ) :   1.3167 B( 56-C , 62-C ) :   1.3515
B( 56-C , 63-H ) :   0.9779 B( 58-C , 62-C ) :   1.4821 B( 58-C , 64-H ) :   0.9795
B( 59-C , 65-C ) :   1.3526 B( 59-C , 66-H ) :   0.9778 B( 61-C , 65-C ) :   1.4821
B( 61-C , 67-H ) :   0.9798 B( 62-C , 68-H ) :   0.9886 B( 65-C , 69-H ) :   0.9880

MP2 TOTAL ENERGY:    -1857.108105022 Eh

-----------------------------------------------------------------------------
         ABSORPTION SPECTRUM VIA TRANSITION ELECTRIC DIPOLE MOMENTS
-----------------------------------------------------------------------------
State   Energy    Wavelength  fosc         T2        TX        TY        TZ
        (cm-1)      (nm)                 (au**2)    (au)      (au)      (au)
-----------------------------------------------------------------------------
   1   25738.1    388.5   1.697908596  21.71765  -4.58877  -0.78153  -0.22374
   2   20726.6    482.5   0.246906823   3.92176  -1.87466   0.60630   0.19951
   3   26148.4    382.4   0.262049047   3.29924  -1.80922   0.15353   0.04901
   4   21661.5    461.6   0.034131782   0.51874   0.71586   0.07528   0.02485
   5   33589.7    297.7   0.274576289   2.69112  -0.09899   1.32708  -0.95926
   6   26016.5    384.4   0.118984847   1.50563  -1.13941  -0.44933  -0.07397
   7   24916.1    401.3   0.037743299   0.49870  -0.70585  -0.01520   0.01547
   8   24988.6    400.2   0.001009841   0.01330  -0.04799  -0.09354  -0.04744
   9   25374.8    394.1   0.001236643   0.01604  -0.01170   0.06059   0.11062
  10   28943.5    345.5   0.307317444   3.49552  -0.92305  -1.57078  -0.41970
  11   41271.5    242.3   0.000355702   0.00284   0.00699   0.05037   0.01586
  12   29375.5    340.4   0.061118183   0.68495  -0.03706   0.63268  -0.53226
  13   31017.8    322.4   0.127821511   1.35665   1.06405  -0.44415  -0.16488
  14   29489.3    339.1   0.002002256   0.02235  -0.11114  -0.01427  -0.09898
  15   24388.6    410.0   0.107337849   1.44891  -0.99118  -0.66013  -0.17521
  16   29714.6    336.5   0.246650735   2.73268   0.08306  -1.20904   1.12428
  17   31424.9    318.2   0.104497716   1.09473  -1.04595  -0.01577  -0.02168
  18   38918.9    256.9   0.182310783   1.54215   0.91365   0.82661   0.15525
  19   39632.3    252.3   0.279044192   2.31793   0.83771   1.20794   0.39631
  20   32188.7    310.7   0.058503897   0.59835   0.54311  -0.53943  -0.11136
  21   32448.0    308.2   0.005544530   0.05625  -0.18013  -0.03981  -0.14907
  22   31795.7    314.5   0.062197388   0.64399   0.35047   0.67319   0.26071
  23   47137.9    212.1   0.047238477   0.32991   0.52164  -0.21593  -0.10577
  24   34169.9    292.7   0.162550967   1.56611  -0.01582  -1.20801  -0.32645
  25   38935.3    256.8   0.259728150   2.19610   1.40504  -0.42967  -0.19327
  26   34786.6    287.5   0.635202010   6.01140  -0.16924   2.11835  -1.22285
  27   23952.6    417.5   0.019923214   0.27383  -0.39933   0.32804   0.08223
  28   38740.0    258.1   0.040284662   0.34234  -0.05189  -0.58162  -0.03696
  29   34379.3    290.9   0.102205492   0.97871   0.71402   0.67581   0.11026
  30   30214.7    331.0   0.013251121   0.14438   0.24712   0.08058   0.27716

Dispersion correction           -0.073549923
FINAL SINGLE POINT ENERGY     -1853.477785444812

DIPOLE MOMENT
-------------
                                X             Y             Z
Electronic contribution:     -5.87788       0.69585      -0.30357
Nuclear contribution   :      5.12236      -3.29801      -0.33612
                        -----------------------------------------
Total Dipole Moment    :     -0.75552      -2.60216      -0.63969
                        -----------------------------------------
Magnitude (a.u.)       :      2.78411
Magnitude (Debye)      :      7.07664

Rotational constants in cm-1:     0.006763     0.000541     0.000516
Rotational constants in MHz :   202.744715    16.225406    15.465508

                             ****ORCA TERMINATED NORMALLY****
TOTAL RUN TIME: 0 days 9 hours 23 minutes 23 seconds 58 msec
