                         Program Version 5.0.2 -  RELEASE  -
|  1> %maxcore 20000
|  2> %pal
|  3>  nprocs= 6
|  4> end
|  5> ! RI-SCS-PBE-QIDH   def2-TZVP def2/J def2-TZVP/C RIJCOSX CPCM TightSCF
|  6> %TDDFT
|  7>    NROOTS   30
|  8>    dcorr 4
|  9>    doscs true
| 10>    TDA      FALSE
| 11> END
| 12>
| 13> %CPCM
| 14>    SMD          TRUE
| 15>    SMDsolvent   "ACETONITRILE"
| 16> END
| 17>
| 18>
| 19> * xyz 0 1
| 20> C                  -9.00401300   -3.45972300   -0.95086600
| 21> C                  -7.63854400   -3.40735100   -0.97340000
| 22> C                  -6.95389500   -2.21556700   -0.64148600
| 23> C                  -7.70513900   -1.05535000   -0.28362600
| 24> C                  -9.11792300   -1.15104000   -0.26657500
| 25> C                  -9.74916800   -2.32061600   -0.59211100
| 26> C                  -5.55570300   -2.15492800   -0.64922400
| 27> C                  -7.01965200    0.14399700    0.04387500
| 28> C                  -5.62670900    0.17139900    0.01531000
| 29> C                  -4.87926900   -0.99966300   -0.32608000
| 30> C                  -3.43028800   -0.93425200   -0.31586000
| 31> C                  -2.81588900    0.27267600    0.01639600
| 32> C                  -4.91696300    1.41973000    0.32027700
| 33> H                  -5.01294700   -3.05174000   -0.91711200
| 34> H                  -9.51776700   -4.37785300   -1.20633100
| 35> H                  -7.05396000   -4.27837900   -1.24399600
| 36> H                  -9.70304400   -0.28369000    0.00875100
| 37> H                 -10.83022900   -2.37250100   -0.57316100
| 38> C                  -7.84321600    1.32148000    0.42166800
| 39> C                  -8.38948100    2.14727900   -0.55716900
| 40> C                  -8.14010300    1.57038100    1.75912000
| 41> C                  -9.19175300    3.22134600   -0.20252800
| 42> H                  -8.17503100    1.94984300   -1.60101800
| 43> C                  -8.94472400    2.64251400    2.11256800
| 44> H                  -7.72762800    0.92387800    2.52492700
| 45> C                  -9.46957000    3.47480000    1.13340700
| 46> H                  -9.60365900    3.86060600   -0.97368900
| 47> H                  -9.16347200    2.82748400    3.15704900
| 48> H                 -10.09701500    4.31279200    1.40975300
| 49> O                  -5.40871200    2.49020500    0.57314400
| 50> O                  -3.54524600    1.38704900    0.31393300
| 51> C                  -2.58393500   -2.01262300   -0.60955500
| 52> C                  -1.44256000    0.42432200    0.06252500
| 53> C                  -0.61704600   -0.66201200   -0.23175200
| 54> C                  -1.21572600   -1.88930600   -0.57136500
| 55> H                  -0.58751800   -2.73888200   -0.80183500
| 56> H                  -3.01173700   -2.97047400   -0.87121700
| 57> H                  -1.02387000    1.38546400    0.32733300
| 58> C                   0.78795100   -0.53255300   -0.18824000
| 59> C                   1.99485100   -0.42870200   -0.15181500
| 60> C                   3.40088500   -0.30477700   -0.10835300
| 61> C                   4.22813300   -1.40394500   -0.38212200
| 62> C                   4.00369500    0.92121100    0.20958800
| 63> C                   5.60160600   -1.28010300   -0.34635600
| 64> H                   3.77994100   -2.35487600   -0.63826100
| 65> C                   5.37705100    1.04135200    0.25641400
| 66> H                   3.38056600    1.77679800    0.43406600
| 67> C                   6.18823500   -0.05717800   -0.02432500
| 68> H                   6.22870100   -2.12889600   -0.58459500
| 69> H                   5.82923800    1.98597700    0.52769800
| 70> C                   8.33542200    1.07760200   -0.58644300
| 71> C                   8.46761900   -0.79231100    0.66957800
| 72> C                   7.91100400    2.13350700   -1.38413300
| 73> C                   9.70363400    0.85995300   -0.31755900
| 74> C                   8.19385500   -1.91247800    1.44530000
| 75> C                   9.78748000   -0.32788100    0.48471100
| 76> C                   8.87793600    2.98718500   -1.88994000
| 77> H                   6.86458600    2.28489900   -1.61243800
| 78> C                  10.65501700    1.73353200   -0.83791600
| 79> C                   9.26662900   -2.57791800    2.01623200
| 80> H                   7.18052000   -2.25367000    1.60895300
| 81> C                  10.84763600   -1.01612300    1.06899600
| 82> C                  10.23547800    2.79720300   -1.61748300
| 83> H                   8.57118400    3.81803900   -2.51274700
| 84> H                  11.70778900    1.57538200   -0.63724800
| 85> C                  10.58109700   -2.14214400    1.82802900
| 86> H                   9.07782700   -3.45405700    2.62371400
| 87> H                  11.86443400   -0.66773200    0.93358800
| 88> H                  10.96298100    3.48587300   -2.02740000
| 89> H                  11.39482600   -2.68834900    2.28742000
| 90> N                   7.59046600    0.06835900    0.01641700
| 91> *
| 92>
| 93>
| 94>                          ****END OF INPUT****

CARTESIAN COORDINATES (ANGSTROEM)
---------------------------------
  C     -9.004013   -3.459723   -0.950866
  C     -7.638544   -3.407351   -0.973400
  C     -6.953895   -2.215567   -0.641486
  C     -7.705139   -1.055350   -0.283626
  C     -9.117923   -1.151040   -0.266575
  C     -9.749168   -2.320616   -0.592111
  C     -5.555703   -2.154928   -0.649224
  C     -7.019652    0.143997    0.043875
  C     -5.626709    0.171399    0.015310
  C     -4.879269   -0.999663   -0.326080
  C     -3.430288   -0.934252   -0.315860
  C     -2.815889    0.272676    0.016396
  C     -4.916963    1.419730    0.320277
  H     -5.012947   -3.051740   -0.917112
  H     -9.517767   -4.377853   -1.206331
  H     -7.053960   -4.278379   -1.243996
  H     -9.703044   -0.283690    0.008751
  H    -10.830229   -2.372501   -0.573161
  C     -7.843216    1.321480    0.421668
  C     -8.389481    2.147279   -0.557169
  C     -8.140103    1.570381    1.759120
  C     -9.191753    3.221346   -0.202528
  H     -8.175031    1.949843   -1.601018
  C     -8.944724    2.642514    2.112568
  H     -7.727628    0.923878    2.524927
  C     -9.469570    3.474800    1.133407
  H     -9.603659    3.860606   -0.973689
  H     -9.163472    2.827484    3.157049
  H    -10.097015    4.312792    1.409753
  O     -5.408712    2.490205    0.573144
  O     -3.545246    1.387049    0.313933
  C     -2.583935   -2.012623   -0.609555
  C     -1.442560    0.424322    0.062525
  C     -0.617046   -0.662012   -0.231752
  C     -1.215726   -1.889306   -0.571365
  H     -0.587518   -2.738882   -0.801835
  H     -3.011737   -2.970474   -0.871217
  H     -1.023870    1.385464    0.327333
  C      0.787951   -0.532553   -0.188240
  C      1.994851   -0.428702   -0.151815
  C      3.400885   -0.304777   -0.108353
  C      4.228133   -1.403945   -0.382122
  C      4.003695    0.921211    0.209588
  C      5.601606   -1.280103   -0.346356
  H      3.779941   -2.354876   -0.638261
  C      5.377051    1.041352    0.256414
  H      3.380566    1.776798    0.434066
  C      6.188235   -0.057178   -0.024325
  H      6.228701   -2.128896   -0.584595
  H      5.829238    1.985977    0.527698
  C      8.335422    1.077602   -0.586443
  C      8.467619   -0.792311    0.669578
  C      7.911004    2.133507   -1.384133
  C      9.703634    0.859953   -0.317559
  C      8.193855   -1.912478    1.445300
  C      9.787480   -0.327881    0.484711
  C      8.877936    2.987185   -1.889940
  H      6.864586    2.284899   -1.612438
  C     10.655017    1.733532   -0.837916
  C      9.266629   -2.577918    2.016232
  H      7.180520   -2.253670    1.608953
  C     10.847636   -1.016123    1.068996
  C     10.235478    2.797203   -1.617483
  H      8.571184    3.818039   -2.512747
  H     11.707789    1.575382   -0.637248
  C     10.581097   -2.142144    1.828029
  H      9.077827   -3.454057    2.623714
  H     11.864434   -0.667732    0.933588
  H     10.962981    3.485873   -2.027400
  H     11.394826   -2.688349    2.287420
  N      7.590466    0.068359    0.016417

 Total Charge           Charge          ....    0
 Multiplicity           Mult            ....    1
 Number of Electrons    NEL             ....  306
 Basis Dimension        Dim             .... 1576

ORBITAL ENERGIES
----------------

  NO   OCC          E(Eh)            E(eV)
   0   2.0000     -20.073980      -546.2408
   1   2.0000     -19.994289      -544.0723
   2   2.0000     -15.135464      -411.8569
   3   2.0000     -10.977022      -298.7000
   4   2.0000     -10.905640      -296.7576
   5   2.0000     -10.880670      -296.0781
   6   2.0000     -10.867445      -295.7182
   7   2.0000     -10.867418      -295.7175
   8   2.0000     -10.865256      -295.6586
   9   2.0000     -10.863827      -295.6198
  10   2.0000     -10.858487      -295.4745
  11   2.0000     -10.855880      -295.4035
  12   2.0000     -10.855554      -295.3946
  13   2.0000     -10.850061      -295.2452
  14   2.0000     -10.847105      -295.1647
  15   2.0000     -10.845317      -295.1161
  16   2.0000     -10.836557      -294.8777
  17   2.0000     -10.836474      -294.8754
  18   2.0000     -10.836443      -294.8746
  19   2.0000     -10.836387      -294.8731
  20   2.0000     -10.836273      -294.8700
  21   2.0000     -10.836054      -294.8640
  22   2.0000     -10.832751      -294.7741
  23   2.0000     -10.831958      -294.7526
  24   2.0000     -10.831815      -294.7487
  25   2.0000     -10.830440      -294.7112
  26   2.0000     -10.830378      -294.7096
  27   2.0000     -10.829786      -294.6935
  28   2.0000     -10.828852      -294.6681
  29   2.0000     -10.827317      -294.6263
  30   2.0000     -10.826831      -294.6131
  31   2.0000     -10.826615      -294.6072
  32   2.0000     -10.825889      -294.5874
  33   2.0000     -10.824868      -294.5596
  34   2.0000     -10.824802      -294.5578
  35   2.0000     -10.823089      -294.5112
  36   2.0000     -10.823049      -294.5101
  37   2.0000     -10.821959      -294.4805
  38   2.0000     -10.821914      -294.4792
  39   2.0000     -10.820077      -294.4293
  40   2.0000     -10.819921      -294.4250
  41   2.0000     -10.819090      -294.4024
  42   2.0000     -10.818883      -294.3968
  43   2.0000     -10.817836      -294.3683
  44   2.0000     -10.814928      -294.2892
  45   2.0000     -10.814863      -294.2874
  46   2.0000      -1.359724       -37.0000
  47   2.0000      -1.261893       -34.3378
  48   2.0000      -1.213813       -33.0295
  49   2.0000      -1.102602       -30.0033
  50   2.0000      -1.081949       -29.4413
  51   2.0000      -1.078814       -29.3560
  52   2.0000      -1.058097       -28.7923
  53   2.0000      -1.048867       -28.5411
  54   2.0000      -1.048474       -28.5304
  55   2.0000      -1.040213       -28.3056
  56   2.0000      -1.001133       -27.2422
  57   2.0000      -0.988574       -26.9005
  58   2.0000      -0.974757       -26.5245
  59   2.0000      -0.959809       -26.1177
  60   2.0000      -0.950205       -25.8564
  61   2.0000      -0.944051       -25.6889
  62   2.0000      -0.941268       -25.6132
  63   2.0000      -0.931850       -25.3569
  64   2.0000      -0.929088       -25.2818
  65   2.0000      -0.924213       -25.1491
  66   2.0000      -0.919518       -25.0213
  67   2.0000      -0.899382       -24.4734
  68   2.0000      -0.895212       -24.3599
  69   2.0000      -0.883378       -24.0379
  70   2.0000      -0.839857       -22.8537
  71   2.0000      -0.819566       -22.3015
  72   2.0000      -0.806731       -21.9523
  73   2.0000      -0.797687       -21.7062
  74   2.0000      -0.779881       -21.2216
  75   2.0000      -0.778705       -21.1896
  76   2.0000      -0.771047       -20.9812
  77   2.0000      -0.762660       -20.7530
  78   2.0000      -0.752913       -20.4878
  79   2.0000      -0.750659       -20.4265
  80   2.0000      -0.735219       -20.0063
  81   2.0000      -0.723889       -19.6980
  82   2.0000      -0.720609       -19.6088
  83   2.0000      -0.717835       -19.5333
  84   2.0000      -0.701194       -19.0805
  85   2.0000      -0.676057       -18.3965
  86   2.0000      -0.664972       -18.0948
  87   2.0000      -0.659407       -17.9434
  88   2.0000      -0.656563       -17.8660
  89   2.0000      -0.646802       -17.6004
  90   2.0000      -0.634813       -17.2741
  91   2.0000      -0.631599       -17.1867
  92   2.0000      -0.618300       -16.8248
  93   2.0000      -0.614755       -16.7283
  94   2.0000      -0.610606       -16.6154
  95   2.0000      -0.605041       -16.4640
  96   2.0000      -0.593989       -16.1633
  97   2.0000      -0.587244       -15.9797
  98   2.0000      -0.586037       -15.9469
  99   2.0000      -0.582011       -15.8373
 100   2.0000      -0.574404       -15.6303
 101   2.0000      -0.573873       -15.6159
 102   2.0000      -0.573734       -15.6121
 103   2.0000      -0.565990       -15.4014
 104   2.0000      -0.556940       -15.1551
 105   2.0000      -0.554885       -15.0992
 106   2.0000      -0.550946       -14.9920
 107   2.0000      -0.546989       -14.8843
 108   2.0000      -0.546927       -14.8826
 109   2.0000      -0.543160       -14.7801
 110   2.0000      -0.541172       -14.7261
 111   2.0000      -0.535149       -14.5621
 112   2.0000      -0.531941       -14.4749
 113   2.0000      -0.531587       -14.4652
 114   2.0000      -0.529042       -14.3960
 115   2.0000      -0.519479       -14.1357
 116   2.0000      -0.511149       -13.9091
 117   2.0000      -0.508274       -13.8308
 118   2.0000      -0.507727       -13.8160
 119   2.0000      -0.502572       -13.6757
 120   2.0000      -0.494765       -13.4632
 121   2.0000      -0.487185       -13.2570
 122   2.0000      -0.472057       -12.8453
 123   2.0000      -0.471044       -12.8177
 124   2.0000      -0.468111       -12.7380
 125   2.0000      -0.465532       -12.6678
 126   2.0000      -0.464526       -12.6404
 127   2.0000      -0.461066       -12.5462
 128   2.0000      -0.460593       -12.5334
 129   2.0000      -0.456554       -12.4235
 130   2.0000      -0.449872       -12.2416
 131   2.0000      -0.447330       -12.1725
 132   2.0000      -0.442384       -12.0379
 133   2.0000      -0.440605       -11.9895
 134   2.0000      -0.437114       -11.8945
 135   2.0000      -0.430854       -11.7241
 136   2.0000      -0.427936       -11.6447
 137   2.0000      -0.406734       -11.0678
 138   2.0000      -0.403791       -10.9877
 139   2.0000      -0.376214       -10.2373
 140   2.0000      -0.367742       -10.0068
 141   2.0000      -0.365363        -9.9420
 142   2.0000      -0.355415        -9.6713
 143   2.0000      -0.335365        -9.1258
 144   2.0000      -0.328992        -8.9523
 145   2.0000      -0.325007        -8.8439
 146   2.0000      -0.320383        -8.7181
 147   2.0000      -0.319184        -8.6854
 148   2.0000      -0.311837        -8.4855
 149   2.0000      -0.298750        -8.1294
 150   2.0000      -0.278251        -7.5716
 151   2.0000      -0.272219        -7.4075
 152   2.0000      -0.255655        -6.9567
 153   0.0000      -0.020841        -0.5671
 154   0.0000      -0.009469        -0.2577
 155   0.0000       0.023192         0.6311
 156   0.0000       0.026243         0.7141
 157   0.0000       0.050892         1.3849

MULLIKEN ATOMIC CHARGES
-----------------------
   0 C :   -0.116512
   1 C :   -0.321416
   2 C :    0.190363
   3 C :    0.126575
   4 C :   -0.283653
   5 C :   -0.176184
   6 C :   -0.492928
   7 C :    0.364660
   8 C :   -0.128765
   9 C :    0.152311
  10 C :    0.188220
  11 C :    0.248281
  12 C :    0.390413
  13 H :    0.171976
  14 H :    0.176578
  15 H :    0.176805
  16 H :    0.190451
  17 H :    0.174360
  18 C :    0.076272
  19 C :   -0.251663
  20 C :   -0.254526
  21 C :   -0.206992
  22 H :    0.169868
  23 C :   -0.204471
  24 H :    0.169663
  25 C :   -0.147149
  26 H :    0.168425
  27 H :    0.168530
  28 H :    0.170742
  29 O :   -0.425593
  30 O :   -0.240103
  31 C :   -0.266293
  32 C :   -0.408236
  33 C :   -0.009703
  34 C :   -0.224863
  35 H :    0.179224
  36 H :    0.175842
  37 H :    0.172673
  38 C :    0.108835
  39 C :    0.203817
  40 C :   -0.103962
  41 C :   -0.153925
  42 C :   -0.149392
  43 C :   -0.368284
  44 H :    0.179964
  45 C :   -0.372023
  46 H :    0.179860
  47 C :    0.273485
  48 H :    0.197353
  49 H :    0.197417
  50 C :    0.174728
  51 C :    0.177106
  52 C :   -0.358116
  53 C :   -0.028931
  54 C :   -0.363099
  55 C :   -0.027450
  56 C :   -0.118258
  57 H :    0.187397
  58 C :   -0.225924
  59 C :   -0.119754
  60 H :    0.187563
  61 C :   -0.227946
  62 C :   -0.206969
  63 H :    0.173240
  64 H :    0.174744
  65 C :   -0.203117
  66 H :    0.172699
  67 H :    0.174866
  68 H :    0.168390
  69 H :    0.168173
  70 N :    0.084331
Sum of atomic charges:   -0.0000000

LOEWDIN ATOMIC CHARGES
----------------------
   0 C :   -0.127347
   1 C :   -0.099102
   2 C :   -0.086951
   3 C :   -0.055611
   4 C :   -0.089866
   5 C :   -0.137571
   6 C :   -0.046207
   7 C :    0.011844
   8 C :   -0.051656
   9 C :   -0.065152
  10 C :   -0.083105
  11 C :   -0.176115
  12 C :   -0.349234
  13 H :    0.168230
  14 H :    0.158097
  15 H :    0.161785
  16 H :    0.165962
  17 H :    0.157278
  18 C :   -0.104939
  19 C :   -0.103773
  20 C :   -0.102893
  21 C :   -0.148129
  22 H :    0.159659
  23 C :   -0.147978
  24 H :    0.159648
  25 C :   -0.152079
  26 H :    0.154237
  27 H :    0.154201
  28 H :    0.153037
  29 O :    0.082549
  30 O :    0.320355
  31 C :   -0.078972
  32 C :   -0.055404
  33 C :   -0.144510
  34 C :   -0.093517
  35 H :    0.163768
  36 H :    0.165098
  37 H :    0.169452
  38 C :   -0.024153
  39 C :   -0.020074
  40 C :   -0.156578
  41 C :   -0.077782
  42 C :   -0.077600
  43 C :   -0.100521
  44 H :    0.164665
  45 C :   -0.100395
  46 H :    0.164729
  47 C :   -0.152474
  48 H :    0.166850
  49 H :    0.166975
  50 C :   -0.114327
  51 C :   -0.114056
  52 C :   -0.129698
  53 C :   -0.094456
  54 C :   -0.129874
  55 C :   -0.094350
  56 C :   -0.147320
  57 H :    0.159925
  58 C :   -0.104824
  59 C :   -0.147058
  60 H :    0.159780
  61 C :   -0.104689
  62 C :   -0.169377
  63 H :    0.155121
  64 H :    0.158430
  65 C :   -0.169255
  66 H :    0.155059
  67 H :    0.158428
  68 H :    0.152302
  69 H :    0.152228
  70 N :    0.309278

  Mayer bond orders larger than 0.100000
B(  0-C ,  1-C ) :   1.5460 B(  0-C ,  5-C ) :   1.2220 B(  0-C , 14-H ) :   0.9777
B(  1-C ,  2-C ) :   1.2135 B(  1-C , 15-H ) :   0.9934 B(  2-C ,  3-C ) :   1.2885
B(  2-C ,  6-C ) :   1.2397 B(  3-C ,  4-C ) :   1.1939 B(  3-C ,  7-C ) :   1.2073
B(  4-C ,  5-C ) :   1.6014 B(  4-C , 16-H ) :   0.9649 B(  5-C , 17-H ) :   0.9795
B(  6-C ,  9-C ) :   1.4626 B(  6-C , 13-H ) :   0.9942 B(  7-C ,  8-C ) :   1.3699
B(  7-C , 18-C ) :   0.6960 B(  8-C ,  9-C ) :   1.2461 B(  8-C , 12-C ) :   1.0121
B(  9-C , 10-C ) :   0.9728 B( 10-C , 11-C ) :   1.3702 B( 10-C , 31-C ) :   1.2909
B( 11-C , 30-O ) :   1.0092 B( 11-C , 32-C ) :   1.3697 B( 12-C , 29-O ) :   2.0520
B( 12-C , 30-O ) :   1.1656 B( 18-C , 19-C ) :   1.4146 B( 18-C , 20-C ) :   1.4289
B( 19-C , 21-C ) :   1.4455 B( 19-C , 22-H ) :   0.9797 B( 20-C , 23-C ) :   1.4514
B( 20-C , 24-H ) :   0.9809 B( 21-C , 25-C ) :   1.3975 B( 21-C , 26-H ) :   0.9807
B( 23-C , 25-C ) :   1.3956 B( 23-C , 27-H ) :   0.9799 B( 25-C , 28-H ) :   0.9764
B( 31-C , 34-C ) :   1.4795 B( 31-C , 36-H ) :   0.9703 B( 32-C , 33-C ) :   1.3265
B( 32-C , 37-H ) :   1.0278 B( 33-C , 34-C ) :   1.3008 B( 33-C , 38-C ) :   1.1600
B( 33-C , 39-C ) :  -0.2449 B( 34-C , 35-H ) :   0.9941 B( 38-C , 39-C ) :   2.7796
B( 38-C , 40-C ) :  -0.2343 B( 39-C , 40-C ) :   1.0721 B( 40-C , 41-C ) :   1.3362
B( 40-C , 42-C ) :   1.3361 B( 41-C , 43-C ) :   1.4497 B( 41-C , 44-H ) :   0.9845
B( 42-C , 45-C ) :   1.4477 B( 42-C , 46-H ) :   0.9847 B( 43-C , 47-C ) :   1.3588
B( 43-C , 48-H ) :   0.9827 B( 45-C , 47-C ) :   1.3595 B( 45-C , 49-H ) :   0.9828
B( 47-C , 70-N ) :   0.9599 B( 50-C , 52-C ) :   1.3464 B( 50-C , 53-C ) :   1.3021
B( 50-C , 70-N ) :   1.1211 B( 51-C , 54-C ) :   1.3454 B( 51-C , 55-C ) :   1.3035
B( 51-C , 70-N ) :   1.1198 B( 52-C , 56-C ) :   1.4565 B( 52-C , 57-H ) :   0.9714
B( 53-C , 55-C ) :   1.0311 B( 53-C , 58-C ) :   1.3128 B( 54-C , 59-C ) :   1.4592
B( 54-C , 60-H ) :   0.9715 B( 55-C , 61-C ) :   1.3119 B( 56-C , 62-C ) :   1.3515
B( 56-C , 63-H ) :   0.9731 B( 58-C , 62-C ) :   1.4824 B( 58-C , 64-H ) :   0.9789
B( 59-C , 65-C ) :   1.3526 B( 59-C , 66-H ) :   0.9729 B( 61-C , 65-C ) :   1.4824
B( 61-C , 67-H ) :   0.9792 B( 62-C , 68-H ) :   0.9844 B( 65-C , 69-H ) :   0.9839

MP2 TOTAL ENERGY:    -1857.058230514 Eh

-----------------------------------------------------------------------------
         ABSORPTION SPECTRUM VIA TRANSITION ELECTRIC DIPOLE MOMENTS
-----------------------------------------------------------------------------
State   Energy    Wavelength  fosc         T2        TX        TY        TZ
        (cm-1)      (nm)                 (au**2)    (au)      (au)      (au)
-----------------------------------------------------------------------------
   1   28791.5    347.3   1.933018155  22.10278   4.62981   0.78559   0.22472
   2   28253.8    353.9   0.323334680   3.76748  -1.83353   0.60505   0.19887
   3   32117.4    311.4   0.329586321   3.37835  -1.82916   0.17201   0.05405
   4   31612.0    316.3   0.044403375   0.46242   0.67552   0.07407   0.02475
   5   37242.1    268.5   0.308894664   2.73056   0.11561  -1.33296   0.96975
   6   34295.0    291.6   0.160264860   1.53845   1.14878   0.46384   0.06017
   7   34624.1    288.8   0.058170333   0.55309  -0.74344  -0.00147   0.01976
   8   35160.5    284.4   0.002079748   0.01947  -0.09294  -0.09453  -0.04358
   9   35650.8    280.5   0.001205112   0.01113   0.01014  -0.05081  -0.09189
  10   37668.3    265.5   0.395611164   3.45755   0.89452   1.57519   0.41972
  11   42766.5    233.8   0.000883314   0.00680  -0.01827  -0.07708  -0.02290
  12   38516.0    259.6   0.068138693   0.58241   0.03432  -0.58142   0.49314
  13   39692.9    251.9   0.154096180   1.27807   1.02765  -0.44151  -0.16453
  14   39488.8    253.2   0.002577270   0.02149   0.10995   0.01893   0.09508
  15   38285.7    261.2   0.159193582   1.36888   0.97646   0.62357   0.16299
  16   40731.5    245.5   0.347415357   2.80798   0.08575  -1.22683   1.13821
  17   41346.1    241.9   0.124721115   0.99307   0.99616   0.01257   0.02408
  18   43809.0    228.3   0.183702787   1.38047   0.86364   0.78704   0.12313
  19   44139.5    226.6   0.353974984   2.64010   0.95381   1.24158   0.43456
  20   41654.9    240.1   0.019500820   0.15412  -0.32065   0.20462   0.09714
  21   45133.4    221.6   0.073935096   0.53930   0.42558  -0.59252  -0.08425
  22   43150.7    231.7   0.065673934   0.50105   0.08155   0.64720   0.27484
  23   47758.5    209.4   0.083701294   0.57698   0.74572   0.14445   0.00328
  24   44177.9    226.4   0.223197875   1.66326   0.25902  -1.21313  -0.35284
  25   46403.2    215.5   0.281069675   1.99407   1.37932  -0.22881  -0.19800
  26   44108.3    226.7   0.819408559   6.11584   0.23588  -2.14369   1.21029
  27   40458.3    247.2   0.006879975   0.05598   0.19616  -0.11975  -0.05627
  28   44795.2    223.2   0.097309639   0.71516  -0.31053  -0.78576  -0.03618
  29   46063.6    217.1   0.032203790   0.23016   0.42035   0.23118  -0.00437
  30   43798.6    228.3   0.045028338   0.33846  -0.38111  -0.32636  -0.29445

FINAL SINGLE POINT ENERGY     -1854.214614089925

DIPOLE MOMENT
-------------
                                X             Y             Z
Electronic contribution:     -5.89178       0.71503      -0.29778
Nuclear contribution   :      5.12236      -3.29801      -0.33612
                        -----------------------------------------
Total Dipole Moment    :     -0.76942      -2.58298      -0.63390
                        -----------------------------------------
Magnitude (a.u.)       :      2.76868
Magnitude (Debye)      :      7.03744

Rotational constants in cm-1:     0.006763     0.000541     0.000516
Rotational constants in MHz :   202.744715    16.225406    15.465508

                             ****ORCA TERMINATED NORMALLY****
TOTAL RUN TIME: 2 days 4 hours 35 minutes 12 seconds 789 msec
