                         Program Version 5.0.2 -  RELEASE  -
|  1> %maxcore 20000
|  2> %pal
|  3>  nprocs= 4
|  4> end
|  5> ! RI-wPBEPP86   def2-TZVP def2/J def2-TZVP/C RIJCOSX CPCM TightSCF
|  6> %TDDFT
|  7>    NROOTS   30
|  8>    dcorr 1
|  9>    TDA      FALSE
| 10> END
| 11>
| 12> %CPCM
| 13>    SMD          TRUE
| 14>    SMDsolvent   "ACETONITRILE"
| 15> END
| 16>
| 17>
| 18> * xyz 0 1
| 19> C                  -9.00401300   -3.45972300   -0.95086600
| 20> C                  -7.63854400   -3.40735100   -0.97340000
| 21> C                  -6.95389500   -2.21556700   -0.64148600
| 22> C                  -7.70513900   -1.05535000   -0.28362600
| 23> C                  -9.11792300   -1.15104000   -0.26657500
| 24> C                  -9.74916800   -2.32061600   -0.59211100
| 25> C                  -5.55570300   -2.15492800   -0.64922400
| 26> C                  -7.01965200    0.14399700    0.04387500
| 27> C                  -5.62670900    0.17139900    0.01531000
| 28> C                  -4.87926900   -0.99966300   -0.32608000
| 29> C                  -3.43028800   -0.93425200   -0.31586000
| 30> C                  -2.81588900    0.27267600    0.01639600
| 31> C                  -4.91696300    1.41973000    0.32027700
| 32> H                  -5.01294700   -3.05174000   -0.91711200
| 33> H                  -9.51776700   -4.37785300   -1.20633100
| 34> H                  -7.05396000   -4.27837900   -1.24399600
| 35> H                  -9.70304400   -0.28369000    0.00875100
| 36> H                 -10.83022900   -2.37250100   -0.57316100
| 37> C                  -7.84321600    1.32148000    0.42166800
| 38> C                  -8.38948100    2.14727900   -0.55716900
| 39> C                  -8.14010300    1.57038100    1.75912000
| 40> C                  -9.19175300    3.22134600   -0.20252800
| 41> H                  -8.17503100    1.94984300   -1.60101800
| 42> C                  -8.94472400    2.64251400    2.11256800
| 43> H                  -7.72762800    0.92387800    2.52492700
| 44> C                  -9.46957000    3.47480000    1.13340700
| 45> H                  -9.60365900    3.86060600   -0.97368900
| 46> H                  -9.16347200    2.82748400    3.15704900
| 47> H                 -10.09701500    4.31279200    1.40975300
| 48> O                  -5.40871200    2.49020500    0.57314400
| 49> O                  -3.54524600    1.38704900    0.31393300
| 50> C                  -2.58393500   -2.01262300   -0.60955500
| 51> C                  -1.44256000    0.42432200    0.06252500
| 52> C                  -0.61704600   -0.66201200   -0.23175200
| 53> C                  -1.21572600   -1.88930600   -0.57136500
| 54> H                  -0.58751800   -2.73888200   -0.80183500
| 55> H                  -3.01173700   -2.97047400   -0.87121700
| 56> H                  -1.02387000    1.38546400    0.32733300
| 57> C                   0.78795100   -0.53255300   -0.18824000
| 58> C                   1.99485100   -0.42870200   -0.15181500
| 59> C                   3.40088500   -0.30477700   -0.10835300
| 60> C                   4.22813300   -1.40394500   -0.38212200
| 61> C                   4.00369500    0.92121100    0.20958800
| 62> C                   5.60160600   -1.28010300   -0.34635600
| 63> H                   3.77994100   -2.35487600   -0.63826100
| 64> C                   5.37705100    1.04135200    0.25641400
| 65> H                   3.38056600    1.77679800    0.43406600
| 66> C                   6.18823500   -0.05717800   -0.02432500
| 67> H                   6.22870100   -2.12889600   -0.58459500
| 68> H                   5.82923800    1.98597700    0.52769800
| 69> C                   8.33542200    1.07760200   -0.58644300
| 70> C                   8.46761900   -0.79231100    0.66957800
| 71> C                   7.91100400    2.13350700   -1.38413300
| 72> C                   9.70363400    0.85995300   -0.31755900
| 73> C                   8.19385500   -1.91247800    1.44530000
| 74> C                   9.78748000   -0.32788100    0.48471100
| 75> C                   8.87793600    2.98718500   -1.88994000
| 76> H                   6.86458600    2.28489900   -1.61243800
| 77> C                  10.65501700    1.73353200   -0.83791600
| 78> C                   9.26662900   -2.57791800    2.01623200
| 79> H                   7.18052000   -2.25367000    1.60895300
| 80> C                  10.84763600   -1.01612300    1.06899600
| 81> C                  10.23547800    2.79720300   -1.61748300
| 82> H                   8.57118400    3.81803900   -2.51274700
| 83> H                  11.70778900    1.57538200   -0.63724800
| 84> C                  10.58109700   -2.14214400    1.82802900
| 85> H                   9.07782700   -3.45405700    2.62371400
| 86> H                  11.86443400   -0.66773200    0.93358800
| 87> H                  10.96298100    3.48587300   -2.02740000
| 88> H                  11.39482600   -2.68834900    2.28742000
| 89> N                   7.59046600    0.06835900    0.01641700
| 90> *
| 91>
| 92>
| 93>                          ****END OF INPUT****

CARTESIAN COORDINATES (ANGSTROEM)
---------------------------------
  C     -9.004013   -3.459723   -0.950866
  C     -7.638544   -3.407351   -0.973400
  C     -6.953895   -2.215567   -0.641486
  C     -7.705139   -1.055350   -0.283626
  C     -9.117923   -1.151040   -0.266575
  C     -9.749168   -2.320616   -0.592111
  C     -5.555703   -2.154928   -0.649224
  C     -7.019652    0.143997    0.043875
  C     -5.626709    0.171399    0.015310
  C     -4.879269   -0.999663   -0.326080
  C     -3.430288   -0.934252   -0.315860
  C     -2.815889    0.272676    0.016396
  C     -4.916963    1.419730    0.320277
  H     -5.012947   -3.051740   -0.917112
  H     -9.517767   -4.377853   -1.206331
  H     -7.053960   -4.278379   -1.243996
  H     -9.703044   -0.283690    0.008751
  H    -10.830229   -2.372501   -0.573161
  C     -7.843216    1.321480    0.421668
  C     -8.389481    2.147279   -0.557169
  C     -8.140103    1.570381    1.759120
  C     -9.191753    3.221346   -0.202528
  H     -8.175031    1.949843   -1.601018
  C     -8.944724    2.642514    2.112568
  H     -7.727628    0.923878    2.524927
  C     -9.469570    3.474800    1.133407
  H     -9.603659    3.860606   -0.973689
  H     -9.163472    2.827484    3.157049
  H    -10.097015    4.312792    1.409753
  O     -5.408712    2.490205    0.573144
  O     -3.545246    1.387049    0.313933
  C     -2.583935   -2.012623   -0.609555
  C     -1.442560    0.424322    0.062525
  C     -0.617046   -0.662012   -0.231752
  C     -1.215726   -1.889306   -0.571365
  H     -0.587518   -2.738882   -0.801835
  H     -3.011737   -2.970474   -0.871217
  H     -1.023870    1.385464    0.327333
  C      0.787951   -0.532553   -0.188240
  C      1.994851   -0.428702   -0.151815
  C      3.400885   -0.304777   -0.108353
  C      4.228133   -1.403945   -0.382122
  C      4.003695    0.921211    0.209588
  C      5.601606   -1.280103   -0.346356
  H      3.779941   -2.354876   -0.638261
  C      5.377051    1.041352    0.256414
  H      3.380566    1.776798    0.434066
  C      6.188235   -0.057178   -0.024325
  H      6.228701   -2.128896   -0.584595
  H      5.829238    1.985977    0.527698
  C      8.335422    1.077602   -0.586443
  C      8.467619   -0.792311    0.669578
  C      7.911004    2.133507   -1.384133
  C      9.703634    0.859953   -0.317559
  C      8.193855   -1.912478    1.445300
  C      9.787480   -0.327881    0.484711
  C      8.877936    2.987185   -1.889940
  H      6.864586    2.284899   -1.612438
  C     10.655017    1.733532   -0.837916
  C      9.266629   -2.577918    2.016232
  H      7.180520   -2.253670    1.608953
  C     10.847636   -1.016123    1.068996
  C     10.235478    2.797203   -1.617483
  H      8.571184    3.818039   -2.512747
  H     11.707789    1.575382   -0.637248
  C     10.581097   -2.142144    1.828029
  H      9.077827   -3.454057    2.623714
  H     11.864434   -0.667732    0.933588
  H     10.962981    3.485873   -2.027400
  H     11.394826   -2.688349    2.287420
  N      7.590466    0.068359    0.016417

 Total Charge           Charge          ....    0
 Multiplicity           Mult            ....    1
 Number of Electrons    NEL             ....  306
 Basis Dimension        Dim             .... 1576

ORBITAL ENERGIES
----------------

  NO   OCC          E(Eh)            E(eV)
   0   2.0000     -20.128530      -547.7251
   1   2.0000     -20.049506      -545.5748
   2   2.0000     -15.184480      -413.1907
   3   2.0000     -11.025048      -300.0068
   4   2.0000     -10.952462      -298.0316
   5   2.0000     -10.927178      -297.3436
   6   2.0000     -10.913975      -296.9844
   7   2.0000     -10.913946      -296.9836
   8   2.0000     -10.912148      -296.9346
   9   2.0000     -10.910347      -296.8856
  10   2.0000     -10.905183      -296.7451
  11   2.0000     -10.902449      -296.6707
  12   2.0000     -10.901755      -296.6518
  13   2.0000     -10.896491      -296.5086
  14   2.0000     -10.893624      -296.4306
  15   2.0000     -10.891611      -296.3758
  16   2.0000     -10.883689      -296.1602
  17   2.0000     -10.882797      -296.1360
  18   2.0000     -10.882663      -296.1323
  19   2.0000     -10.882576      -296.1300
  20   2.0000     -10.882559      -296.1295
  21   2.0000     -10.882257      -296.1213
  22   2.0000     -10.879813      -296.0548
  23   2.0000     -10.878040      -296.0065
  24   2.0000     -10.878029      -296.0062
  25   2.0000     -10.876469      -295.9638
  26   2.0000     -10.876407      -295.9621
  27   2.0000     -10.875706      -295.9430
  28   2.0000     -10.874939      -295.9221
  29   2.0000     -10.873428      -295.8810
  30   2.0000     -10.872724      -295.8619
  31   2.0000     -10.872675      -295.8605
  32   2.0000     -10.871706      -295.8341
  33   2.0000     -10.871028      -295.8157
  34   2.0000     -10.870958      -295.8138
  35   2.0000     -10.869120      -295.7638
  36   2.0000     -10.869079      -295.7627
  37   2.0000     -10.867958      -295.7322
  38   2.0000     -10.867911      -295.7309
  39   2.0000     -10.866054      -295.6804
  40   2.0000     -10.865905      -295.6763
  41   2.0000     -10.865068      -295.6535
  42   2.0000     -10.864860      -295.6479
  43   2.0000     -10.863735      -295.6173
  44   2.0000     -10.860670      -295.5339
  45   2.0000     -10.860602      -295.5320
  46   2.0000      -1.400336       -38.1051
  47   2.0000      -1.302083       -35.4315
  48   2.0000      -1.253477       -34.1089
  49   2.0000      -1.142501       -31.0890
  50   2.0000      -1.121492       -30.5174
  51   2.0000      -1.118433       -30.4341
  52   2.0000      -1.097485       -29.8641
  53   2.0000      -1.088215       -29.6118
  54   2.0000      -1.087751       -29.5992
  55   2.0000      -1.079634       -29.3783
  56   2.0000      -1.040311       -28.3083
  57   2.0000      -1.027570       -27.9616
  58   2.0000      -1.013655       -27.5830
  59   2.0000      -0.998582       -27.1728
  60   2.0000      -0.988873       -26.9086
  61   2.0000      -0.982556       -26.7367
  62   2.0000      -0.979892       -26.6642
  63   2.0000      -0.970161       -26.3994
  64   2.0000      -0.967433       -26.3252
  65   2.0000      -0.962461       -26.1899
  66   2.0000      -0.957927       -26.0665
  67   2.0000      -0.937595       -25.5133
  68   2.0000      -0.933315       -25.3968
  69   2.0000      -0.921454       -25.0740
  70   2.0000      -0.877858       -23.8877
  71   2.0000      -0.857247       -23.3269
  72   2.0000      -0.844369       -22.9765
  73   2.0000      -0.835231       -22.7278
  74   2.0000      -0.817041       -22.2328
  75   2.0000      -0.815960       -22.2034
  76   2.0000      -0.808364       -21.9967
  77   2.0000      -0.799778       -21.7631
  78   2.0000      -0.789714       -21.4892
  79   2.0000      -0.787366       -21.4253
  80   2.0000      -0.772168       -21.0118
  81   2.0000      -0.760768       -20.7015
  82   2.0000      -0.757244       -20.6057
  83   2.0000      -0.754578       -20.5331
  84   2.0000      -0.738084       -20.0843
  85   2.0000      -0.712624       -19.3915
  86   2.0000      -0.701242       -19.0818
  87   2.0000      -0.695731       -18.9318
  88   2.0000      -0.693359       -18.8672
  89   2.0000      -0.682605       -18.5746
  90   2.0000      -0.671046       -18.2601
  91   2.0000      -0.667362       -18.1598
  92   2.0000      -0.654351       -17.8058
  93   2.0000      -0.650629       -17.7045
  94   2.0000      -0.648246       -17.6397
  95   2.0000      -0.641423       -17.4540
  96   2.0000      -0.630000       -17.1432
  97   2.0000      -0.622822       -16.9478
  98   2.0000      -0.621345       -16.9077
  99   2.0000      -0.617862       -16.8129
 100   2.0000      -0.610061       -16.6006
 101   2.0000      -0.609069       -16.5736
 102   2.0000      -0.608736       -16.5645
 103   2.0000      -0.600638       -16.3442
 104   2.0000      -0.592637       -16.1265
 105   2.0000      -0.589659       -16.0454
 106   2.0000      -0.585808       -15.9406
 107   2.0000      -0.582015       -15.8374
 108   2.0000      -0.581352       -15.8194
 109   2.0000      -0.578023       -15.7288
 110   2.0000      -0.576087       -15.6761
 111   2.0000      -0.569812       -15.5054
 112   2.0000      -0.566455       -15.4140
 113   2.0000      -0.566194       -15.4069
 114   2.0000      -0.563437       -15.3319
 115   2.0000      -0.554283       -15.0828
 116   2.0000      -0.547531       -14.8991
 117   2.0000      -0.544434       -14.8148
 118   2.0000      -0.542167       -14.7531
 119   2.0000      -0.536828       -14.6078
 120   2.0000      -0.530710       -14.4413
 121   2.0000      -0.521236       -14.1835
 122   2.0000      -0.506590       -13.7850
 123   2.0000      -0.504984       -13.7413
 124   2.0000      -0.501723       -13.6526
 125   2.0000      -0.500218       -13.6116
 126   2.0000      -0.499028       -13.5792
 127   2.0000      -0.496148       -13.5009
 128   2.0000      -0.495196       -13.4750
 129   2.0000      -0.489991       -13.3333
 130   2.0000      -0.483839       -13.1659
 131   2.0000      -0.481932       -13.1140
 132   2.0000      -0.475458       -12.9379
 133   2.0000      -0.474006       -12.8984
 134   2.0000      -0.470273       -12.7968
 135   2.0000      -0.465125       -12.6567
 136   2.0000      -0.461159       -12.5488
 137   2.0000      -0.441797       -12.0219
 138   2.0000      -0.437983       -11.9181
 139   2.0000      -0.409147       -11.1335
 140   2.0000      -0.401050       -10.9131
 141   2.0000      -0.398067       -10.8320
 142   2.0000      -0.387174       -10.5355
 143   2.0000      -0.366612        -9.9760
 144   2.0000      -0.360524        -9.8103
 145   2.0000      -0.355859        -9.6834
 146   2.0000      -0.351359        -9.5610
 147   2.0000      -0.349674        -9.5151
 148   2.0000      -0.342855        -9.3296
 149   2.0000      -0.328539        -8.9400
 150   2.0000      -0.307422        -8.3654
 151   2.0000      -0.301178        -8.1955
 152   2.0000      -0.284021        -7.7286
 153   0.0000      -0.003318        -0.0903
 154   0.0000       0.009070         0.2468
 155   0.0000       0.041782         1.1369
 156   0.0000       0.045065         1.2263
 157   0.0000       0.070438         1.9167

MULLIKEN ATOMIC CHARGES
-----------------------
   0 C :   -0.135561
   1 C :   -0.300279
   2 C :    0.131974
   3 C :    0.117441
   4 C :   -0.274705
   5 C :   -0.194870
   6 C :   -0.418020
   7 C :    0.306812
   8 C :   -0.116429
   9 C :    0.126662
  10 C :    0.145007
  11 C :    0.241256
  12 C :    0.406848
  13 H :    0.186993
  14 H :    0.190599
  15 H :    0.190065
  16 H :    0.210403
  17 H :    0.188650
  18 C :   -0.013190
  19 C :   -0.242033
  20 C :   -0.242128
  21 C :   -0.215200
  22 H :    0.186952
  23 C :   -0.213079
  24 H :    0.186460
  25 C :   -0.163018
  26 H :    0.183862
  27 H :    0.183977
  28 H :    0.185685
  29 O :   -0.420121
  30 O :   -0.249627
  31 C :   -0.261295
  32 C :   -0.376876
  33 C :   -0.006599
  34 C :   -0.226725
  35 H :    0.194989
  36 H :    0.195650
  37 H :    0.194368
  38 C :    0.059507
  39 C :    0.157438
  40 C :   -0.083232
  41 C :   -0.153937
  42 C :   -0.149580
  43 C :   -0.390676
  44 H :    0.197461
  45 C :   -0.394490
  46 H :    0.197368
  47 C :    0.286194
  48 H :    0.221684
  49 H :    0.221741
  50 C :    0.162205
  51 C :    0.164617
  52 C :   -0.345688
  53 C :   -0.038730
  54 C :   -0.350573
  55 C :   -0.037462
  56 C :   -0.141057
  57 H :    0.210695
  58 C :   -0.220218
  59 C :   -0.142584
  60 H :    0.210871
  61 C :   -0.222348
  62 C :   -0.223717
  63 H :    0.187618
  64 H :    0.189536
  65 C :   -0.219760
  66 H :    0.187059
  67 H :    0.189583
  68 H :    0.183231
  69 H :    0.183033
  70 N :    0.019312
Sum of atomic charges:   -0.0000000

LOEWDIN ATOMIC CHARGES
----------------------
   0 C :   -0.129111
   1 C :   -0.101323
   2 C :   -0.087786
   3 C :   -0.056657
   4 C :   -0.092380
   5 C :   -0.139637
   6 C :   -0.048065
   7 C :    0.011116
   8 C :   -0.052420
   9 C :   -0.065587
  10 C :   -0.084080
  11 C :   -0.177585
  12 C :   -0.349783
  13 H :    0.170482
  14 H :    0.160880
  15 H :    0.164479
  16 H :    0.168140
  17 H :    0.160016
  18 C :   -0.107971
  19 C :   -0.106460
  20 C :   -0.105580
  21 C :   -0.149814
  22 H :    0.162544
  23 C :   -0.149679
  24 H :    0.162530
  25 C :   -0.154010
  26 H :    0.157032
  27 H :    0.156996
  28 H :    0.155793
  29 O :    0.083761
  30 O :    0.320833
  31 C :   -0.080313
  32 C :   -0.056441
  33 C :   -0.145025
  34 C :   -0.095251
  35 H :    0.166578
  36 H :    0.167592
  37 H :    0.172397
  38 C :   -0.024949
  39 C :   -0.020736
  40 C :   -0.157559
  41 C :   -0.079017
  42 C :   -0.078838
  43 C :   -0.102968
  44 H :    0.167522
  45 C :   -0.102844
  46 H :    0.167586
  47 C :   -0.154478
  48 H :    0.169467
  49 H :    0.169593
  50 C :   -0.115487
  51 C :   -0.115212
  52 C :   -0.132107
  53 C :   -0.095854
  54 C :   -0.132281
  55 C :   -0.095754
  56 C :   -0.148928
  57 H :    0.162355
  58 C :   -0.105944
  59 C :   -0.148668
  60 H :    0.162206
  61 C :   -0.105797
  62 C :   -0.171908
  63 H :    0.157929
  64 H :    0.161259
  65 C :   -0.171793
  66 H :    0.157866
  67 H :    0.161257
  68 H :    0.155006
  69 H :    0.154932
  70 N :    0.307936

  Mayer bond orders larger than 0.100000
B(  0-C ,  1-C ) :   1.5494 B(  0-C ,  5-C ) :   1.2169 B(  0-C , 14-H ) :   0.9754
B(  1-C ,  2-C ) :   1.2154 B(  1-C , 15-H ) :   0.9785 B(  2-C ,  3-C ) :   1.2877
B(  2-C ,  6-C ) :   1.2843 B(  3-C ,  4-C ) :   1.1937 B(  3-C ,  7-C ) :   1.2127
B(  4-C ,  5-C ) :   1.6077 B(  4-C , 16-H ) :   0.9484 B(  5-C , 17-H ) :   0.9756
B(  6-C ,  9-C ) :   1.4980 B(  6-C , 13-H ) :   0.9432 B(  7-C ,  8-C ) :   1.3981
B(  7-C , 18-C ) :   0.7354 B(  8-C ,  9-C ) :   1.2452 B(  8-C , 12-C ) :   1.0062
B(  9-C , 10-C ) :   0.9926 B( 10-C , 11-C ) :   1.3733 B( 10-C , 31-C ) :   1.3060
B( 11-C , 30-O ) :   1.0032 B( 11-C , 32-C ) :   1.3968 B( 12-C , 29-O ) :   2.0437
B( 12-C , 30-O ) :   1.1666 B( 18-C , 19-C ) :   1.4058 B( 18-C , 20-C ) :   1.4177
B( 19-C , 21-C ) :   1.4397 B( 19-C , 22-H ) :   0.9755 B( 20-C , 23-C ) :   1.4448
B( 20-C , 24-H ) :   0.9763 B( 21-C , 25-C ) :   1.3927 B( 21-C , 26-H ) :   0.9772
B( 23-C , 25-C ) :   1.3910 B( 23-C , 27-H ) :   0.9764 B( 25-C , 28-H ) :   0.9741
B( 31-C , 34-C ) :   1.4972 B( 31-C , 36-H ) :   0.9458 B( 32-C , 33-C ) :   1.3388
B( 32-C , 37-H ) :   0.9911 B( 33-C , 34-C ) :   1.2931 B( 33-C , 38-C ) :   1.1469
B( 33-C , 39-C ) :  -0.1768 B( 34-C , 35-H ) :   0.9810 B( 38-C , 39-C ) :   2.8408
B( 38-C , 40-C ) :  -0.1615 B( 39-C , 40-C ) :   1.0562 B( 40-C , 41-C ) :   1.3327
B( 40-C , 42-C ) :   1.3325 B( 41-C , 43-C ) :   1.4591 B( 41-C , 44-H ) :   0.9733
B( 42-C , 45-C ) :   1.4571 B( 42-C , 46-H ) :   0.9736 B( 43-C , 47-C ) :   1.3447
B( 43-C , 48-H ) :   0.9703 B( 45-C , 47-C ) :   1.3454 B( 45-C , 49-H ) :   0.9704
B( 47-C , 70-N ) :   0.9630 B( 50-C , 52-C ) :   1.3360 B( 50-C , 53-C ) :   1.3217
B( 50-C , 70-N ) :   1.1257 B( 51-C , 54-C ) :   1.3349 B( 51-C , 55-C ) :   1.3226
B( 51-C , 70-N ) :   1.1244 B( 52-C , 56-C ) :   1.4675 B( 52-C , 57-H ) :   0.9532
B( 53-C , 55-C ) :   1.0607 B( 53-C , 58-C ) :   1.3235 B( 54-C , 59-C ) :   1.4703
B( 54-C , 60-H ) :   0.9532 B( 55-C , 61-C ) :   1.3225 B( 56-C , 62-C ) :   1.3505
B( 56-C , 63-H ) :   0.9706 B( 58-C , 62-C ) :   1.4780 B( 58-C , 64-H ) :   0.9669
B( 59-C , 65-C ) :   1.3515 B( 59-C , 66-H ) :   0.9705 B( 61-C , 65-C ) :   1.4779
B( 61-C , 67-H ) :   0.9674 B( 62-C , 68-H ) :   0.9810 B( 65-C , 69-H ) :   0.9805

MP2 TOTAL ENERGY:    -1858.051306224 Eh

-----------------------------------------------------------------------------
         ABSORPTION SPECTRUM VIA TRANSITION ELECTRIC DIPOLE MOMENTS
-----------------------------------------------------------------------------
State   Energy    Wavelength  fosc         T2        TX        TY        TZ
        (cm-1)      (nm)                 (au**2)    (au)      (au)      (au)
-----------------------------------------------------------------------------
   1   30276.2    330.3   1.880141815  20.44394   4.44462   0.79796   0.22918
   2   29617.7    337.6   0.374554821   4.16332   1.94584  -0.58253  -0.19409
   3   33818.1    295.7   0.413821759   4.02846  -2.00243   0.12952   0.04429
   4   32914.6    303.8   0.047568622   0.47578  -0.68548  -0.07300  -0.02382
   5   38656.7    258.7   0.322607053   2.74742   0.09850  -1.34111   0.96909
   6   35808.9    279.3   0.136113174   1.25137  -0.98484  -0.52138  -0.09804
   7   36738.7    272.2   0.087393599   0.78313  -0.87210  -0.14976  -0.01193
   8   35760.6    279.6   0.001797297   0.01655  -0.02900  -0.11482  -0.05022
   9   37432.0    267.2   0.001004344   0.00883  -0.00946   0.02874   0.08898
  10   43364.3    230.6   0.010660546   0.08093   0.16611   0.22333   0.05884
  11   39545.9    252.9   0.541944572   4.51159   1.09487   1.75687   0.47564
  12   41484.8    241.1   0.162325753   1.28817   0.05002  -0.86025   0.73867
  13   41503.9    240.9   0.231690962   1.83779   1.20141  -0.59168  -0.21051
  14   41468.6    241.1   0.002996162   0.02379   0.13080  -0.06105   0.05430
  15   46777.1    213.8   0.355075108   2.49898   1.46035   0.58905   0.13922
  16   47231.7    211.7   0.179308077   1.24980  -1.06893  -0.30431  -0.12081
  17   44191.5    226.3   0.304595088   2.26913   0.01730   1.44345   0.43045
  18   43075.0    232.2   0.569334779   4.35129   0.09816  -1.47626   1.47048
  19   51055.7    195.9   0.004634220   0.02988   0.03690  -0.15192  -0.07375
  20   44216.8    226.2   0.037282646   0.27758  -0.46958  -0.18000  -0.15709
  21   46311.6    215.9   0.314584622   2.23627  -1.49121   0.08683   0.07082
  22   43372.5    230.6   0.016117659   0.12234  -0.31729  -0.11494  -0.09195
  23   45643.5    219.1   0.792218974   5.71403  -0.18756   2.31829  -0.55169
  24   44461.8    224.9   0.108735910   0.80512  -0.84270  -0.30686  -0.02869
  25   45115.7    221.7   0.035383089   0.25819  -0.02191   0.10243   0.49721
  26   43767.1    228.5   0.089823839   0.67565  -0.47394  -0.59162  -0.31783
  27   47155.7    212.1   0.147096779   1.02694  -0.63094   0.78361   0.12166
  28   49887.6    200.5   0.758559534   5.00579   2.19072   0.45276   0.03941
  29   49176.5    203.3   0.575478371   3.85254  -1.73253   0.90379   0.18446
  30   45426.8    220.1   0.049555676   0.35913  -0.04026  -0.35663   0.47993

FINAL SINGLE POINT ENERGY     -1854.148433845227

DIPOLE MOMENT
-------------
                                X             Y             Z
Electronic contribution:     -5.89564       0.70703      -0.29925
Nuclear contribution   :      5.12236      -3.29801      -0.33612
                        -----------------------------------------
Total Dipole Moment    :     -0.77328      -2.59098      -0.63537
                        -----------------------------------------
Magnitude (a.u.)       :      2.77756
Magnitude (Debye)      :      7.06000

Rotational constants in cm-1:     0.006763     0.000541     0.000516
Rotational constants in MHz :   202.744715    16.225406    15.465508

                             ****ORCA TERMINATED NORMALLY****
TOTAL RUN TIME: 1 days 13 hours 39 minutes 46 seconds 899 msec
