                         Program Version 5.0.2 -  RELEASE  -
|  1> %maxcore 38400
|  2> %pal
|  3>  nprocs= 4
|  4> end
|  5> !STEOM-DLPNO-CCSD DEF2-TZVP DEF2-TZVP/C def2/J TightSCF TightPNO CPCM
|  6> %MDCI
|  7>    Dorootwise true
|  8>    OTHRESH 0.005
|  9>    VTHRESH 0.005
| 10>    TCutPNOSingles 1e-11
| 11>    DTol 1e-5
| 12>    NROOTS  25
| 13>    DOSOLV  TRUE
| 14>    MAXITER 500
| 15> END
| 16> %CPCM
| 17>    SMD          TRUE
| 18>    SMDsolvent   "ACETONITRILE"
| 19> END
| 20>
| 21>
| 22> * xyz -2 1
| 23> C                  -3.61009600   -1.22547600   -0.10047400
| 24> C                  -2.28157200   -1.78732300   -0.04367800
| 25> C                  -1.14147600   -1.01942300   -0.07793700
| 26> C                  -1.19740200    0.39332000   -0.17183100
| 27> C                  -2.48014600    0.98582800   -0.22828100
| 28> C                  -3.60743700    0.22874000   -0.19442200
| 29> C                  -0.00374900    1.13013300   -0.18342200
| 30> C                   1.21890500    0.44334400   -0.16235200
| 31> C                   1.22168200   -0.97058000   -0.06966600
| 32> C                   2.39282500   -1.69007500   -0.02658500
| 33> C                   3.69676800   -1.07176300   -0.06393600
| 34> C                   3.63353600    0.38169500   -0.14847000
| 35> C                   2.47584800    1.09034200   -0.19499700
| 36> H                  -2.54584500    2.06402300   -0.29595800
| 37> H                   2.49611900    2.17094400   -0.25162800
| 38> O                   0.05374200   -1.65855700   -0.02115800
| 39> O                   4.76055000   -1.70480200   -0.02845600
| 40> O                  -4.64606200   -1.90363500   -0.07574000
| 41> C                  -0.03296600    2.59655400   -0.41280600
| 42> C                   0.07757000    3.03118300   -1.73518900
| 43> C                  -0.18215500    3.53709900    0.61364800
| 44> C                   0.04654700    4.38066900   -2.04761900
| 45> H                   0.18849700    2.29621500   -2.52456800
| 46> C                  -0.21802200    4.88879200    0.27750000
| 47> C                  -0.10177400    5.31702400   -1.03394000
| 48> H                   0.13728900    4.69664900   -3.07946700
| 49> H                  -0.33801300    5.59639400    1.08877900
| 50> H                  -0.12615100    6.37446700   -1.26794500
| 51> C                  -0.29027500    3.11699500    2.07522800
| 52> O                  -0.56159700    4.01615200    2.90065900
| 53> O                  -0.08619500    1.90139800    2.30893700
| 54> Br                 -2.14595200   -3.66828500    0.07735400
| 55> Br                  2.33728900   -3.57573000    0.08332600
| 56> Br                  5.29813400    1.29255000   -0.19218900
| 57> Br                 -5.30875900    1.06730400   -0.27614200
| 58> *
| 59>
| 60>
| 61>                          ****END OF INPUT****

CARTESIAN COORDINATES (ANGSTROEM)
---------------------------------
  C     -3.610096   -1.225476   -0.100474
  C     -2.281572   -1.787323   -0.043678
  C     -1.141476   -1.019423   -0.077937
  C     -1.197402    0.393320   -0.171831
  C     -2.480146    0.985828   -0.228281
  C     -3.607437    0.228740   -0.194422
  C     -0.003749    1.130133   -0.183422
  C      1.218905    0.443344   -0.162352
  C      1.221682   -0.970580   -0.069666
  C      2.392825   -1.690075   -0.026585
  C      3.696768   -1.071763   -0.063936
  C      3.633536    0.381695   -0.148470
  C      2.475848    1.090342   -0.194997
  H     -2.545845    2.064023   -0.295958
  H      2.496119    2.170944   -0.251628
  O      0.053742   -1.658557   -0.021158
  O      4.760550   -1.704802   -0.028456
  O     -4.646062   -1.903635   -0.075740
  C     -0.032966    2.596554   -0.412806
  C      0.077570    3.031183   -1.735189
  C     -0.182155    3.537099    0.613648
  C      0.046547    4.380669   -2.047619
  H      0.188497    2.296215   -2.524568
  C     -0.218022    4.888792    0.277500
  C     -0.101774    5.317024   -1.033940
  H      0.137289    4.696649   -3.079467
  H     -0.338013    5.596394    1.088779
  H     -0.126151    6.374467   -1.267945
  C     -0.290275    3.116995    2.075228
  O     -0.561597    4.016152    2.900659
  O     -0.086195    1.901398    2.308937
  Br    -2.145952   -3.668285    0.077354
  Br     2.337289   -3.575730    0.083326
  Br     5.298134    1.292550   -0.192189
  Br    -5.308759    1.067304   -0.276142

 Total Charge           Charge          ....   -2
 Multiplicity           Mult            ....    1
 Number of Electrons    NEL             ....  308
 Basis Dimension        Dim             .... 1003

ORBITAL ENERGIES
----------------

  NO   OCC          E(Eh)            E(eV)
   0   2.0000    -490.004220    -13333.6927
   1   2.0000    -490.004109    -13333.6897
   2   2.0000    -490.000735    -13333.5979
   3   2.0000    -490.000619    -13333.5947
   4   2.0000     -65.146279     -1772.7204
   5   2.0000     -65.146163     -1772.7172
   6   2.0000     -65.142711     -1772.6233
   7   2.0000     -65.142595     -1772.6201
   8   2.0000     -58.501537     -1591.9078
   9   2.0000     -58.501421     -1591.9046
  10   2.0000     -58.500203     -1591.8715
  11   2.0000     -58.500152     -1591.8701
  12   2.0000     -58.500087     -1591.8683
  13   2.0000     -58.500035     -1591.8669
  14   2.0000     -58.498016     -1591.8119
  15   2.0000     -58.497900     -1591.8088
  16   2.0000     -58.496637     -1591.7744
  17   2.0000     -58.496551     -1591.7721
  18   2.0000     -58.496522     -1591.7713
  19   2.0000     -58.496435     -1591.7689
  20   2.0000     -20.629777      -561.3648
  21   2.0000     -20.491786      -557.6099
  22   2.0000     -20.491563      -557.6038
  23   2.0000     -20.463409      -556.8377
  24   2.0000     -20.462914      -556.8242
  25   2.0000     -11.331572      -308.3478
  26   2.0000     -11.331323      -308.3410
  27   2.0000     -11.312089      -307.8176
  28   2.0000     -11.311910      -307.8127
  29   2.0000     -11.309115      -307.7367
  30   2.0000     -11.300173      -307.4933
  31   2.0000     -11.268639      -306.6353
  32   2.0000     -11.268584      -306.6338
  33   2.0000     -11.259787      -306.3944
  34   2.0000     -11.259648      -306.3906
  35   2.0000     -11.253916      -306.2346
  36   2.0000     -11.253767      -306.2306
  37   2.0000     -11.247429      -306.0581
  38   2.0000     -11.231566      -305.6265
  39   2.0000     -11.231495      -305.6245
  40   2.0000     -11.231071      -305.6130
  41   2.0000     -11.229540      -305.5713
  42   2.0000     -11.228331      -305.5384
  43   2.0000     -11.226052      -305.4764
  44   2.0000     -11.223392      -305.4040
  45   2.0000      -9.819452      -267.2009
  46   2.0000      -9.819329      -267.1975
  47   2.0000      -9.815833      -267.1024
  48   2.0000      -9.815718      -267.0993
  49   2.0000      -7.431506      -202.2216
  50   2.0000      -7.431382      -202.2182
  51   2.0000      -7.428067      -202.1280
  52   2.0000      -7.427951      -202.1248
  53   2.0000      -7.424950      -202.0432
  54   2.0000      -7.424826      -202.0398
  55   2.0000      -7.424779      -202.0385
  56   2.0000      -7.424655      -202.0351
  57   2.0000      -7.421312      -201.9442
  58   2.0000      -7.421198      -201.9411
  59   2.0000      -7.420973      -201.9349
  60   2.0000      -7.420859      -201.9318
  61   2.0000      -3.174268       -86.3762
  62   2.0000      -3.174143       -86.3728
  63   2.0000      -3.170956       -86.2861
  64   2.0000      -3.170917       -86.2850
  65   2.0000      -3.170833       -86.2828
  66   2.0000      -3.170800       -86.2819
  67   2.0000      -3.170514       -86.2741
  68   2.0000      -3.170392       -86.2707
  69   2.0000      -3.167583       -86.1943
  70   2.0000      -3.167468       -86.1912
  71   2.0000      -3.166888       -86.1754
  72   2.0000      -3.166773       -86.1723
  73   2.0000      -3.162310       -86.0508
  74   2.0000      -3.162294       -86.0504
  75   2.0000      -3.162187       -86.0475
  76   2.0000      -3.162170       -86.0470
  77   2.0000      -3.158447       -85.9457
  78   2.0000      -3.158424       -85.9451
  79   2.0000      -3.158334       -85.9426
  80   2.0000      -3.158312       -85.9420
  81   2.0000      -1.470453       -40.0131
  82   2.0000      -1.348951       -36.7068
  83   2.0000      -1.338421       -36.4203
  84   2.0000      -1.338130       -36.4124
  85   2.0000      -1.245706       -33.8974
  86   2.0000      -1.183844       -32.2140
  87   2.0000      -1.166167       -31.7330
  88   2.0000      -1.148626       -31.2557
  89   2.0000      -1.095257       -29.8035
  90   2.0000      -1.087490       -29.5921
  91   2.0000      -1.064556       -28.9680
  92   2.0000      -1.030119       -28.0310
  93   2.0000      -1.023789       -27.8587
  94   2.0000      -1.016488       -27.6600
  95   2.0000      -0.977544       -26.6003
  96   2.0000      -0.976392       -26.5690
  97   2.0000      -0.948332       -25.8054
  98   2.0000      -0.946570       -25.7575
  99   2.0000      -0.888101       -24.1665
 100   2.0000      -0.857437       -23.3320
 101   2.0000      -0.844578       -22.9821
 102   2.0000      -0.833061       -22.6688
 103   2.0000      -0.792074       -21.5534
 104   2.0000      -0.790305       -21.5053
 105   2.0000      -0.741887       -20.1878
 106   2.0000      -0.735720       -20.0200
 107   2.0000      -0.724901       -19.7256
 108   2.0000      -0.707976       -19.2650
 109   2.0000      -0.672652       -18.3038
 110   2.0000      -0.665843       -18.1185
 111   2.0000      -0.661992       -18.0137
 112   2.0000      -0.637646       -17.3512
 113   2.0000      -0.633338       -17.2340
 114   2.0000      -0.625456       -17.0195
 115   2.0000      -0.617775       -16.8105
 116   2.0000      -0.608136       -16.5482
 117   2.0000      -0.604864       -16.4592
 118   2.0000      -0.589510       -16.0414
 119   2.0000      -0.582013       -15.8374
 120   2.0000      -0.571961       -15.5639
 121   2.0000      -0.570016       -15.5109
 122   2.0000      -0.564038       -15.3483
 123   2.0000      -0.548648       -14.9295
 124   2.0000      -0.548512       -14.9258
 125   2.0000      -0.547206       -14.8902
 126   2.0000      -0.526014       -14.3136
 127   2.0000      -0.518756       -14.1161
 128   2.0000      -0.510746       -13.8981
 129   2.0000      -0.495916       -13.4945
 130   2.0000      -0.492763       -13.4088
 131   2.0000      -0.486850       -13.2479
 132   2.0000      -0.481119       -13.0919
 133   2.0000      -0.470361       -12.7992
 134   2.0000      -0.460713       -12.5366
 135   2.0000      -0.453711       -12.3461
 136   2.0000      -0.438719       -11.9381
 137   2.0000      -0.421100       -11.4587
 138   2.0000      -0.405548       -11.0355
 139   2.0000      -0.404324       -11.0022
 140   2.0000      -0.402006       -10.9391
 141   2.0000      -0.401005       -10.9119
 142   2.0000      -0.397154       -10.8071
 143   2.0000      -0.391528       -10.6540
 144   2.0000      -0.386975       -10.5301
 145   2.0000      -0.384807       -10.4711
 146   2.0000      -0.384756       -10.4697
 147   2.0000      -0.373402       -10.1608
 148   2.0000      -0.338873        -9.2212
 149   2.0000      -0.334909        -9.1133
 150   2.0000      -0.331668        -9.0251
 151   2.0000      -0.322116        -8.7652
 152   2.0000      -0.305534        -8.3140
 153   2.0000      -0.249513        -6.7896
 154   0.0000       0.050495         1.3740
 155   0.0000       0.106520         2.8986
 156   0.0000       0.119585         3.2541
 157   0.0000       0.137663         3.7460
 158   0.0000       0.143804         3.9131

E(0)                                       ... -11425.489612282
E(0)                                       ... -11425.489612282
E(CORR)(strong-pairs)                      ...     -5.316637315
E(CORR)(weak-pairs)                        ...     -0.014313754
E(CORR)(corrected)                         ...     -5.330951070
E(TOT)                                     ... -11430.820563352

MULLIKEN ATOMIC CHARGES
-----------------------
   0 C :    0.084634
   1 C :   -0.210402
   2 C :    0.240641
   3 C :    0.017779
   4 C :   -0.337057
   5 C :    0.014571
   6 C :    0.574959
   7 C :    0.016843
   8 C :    0.273259
   9 C :   -0.229404
  10 C :    0.098546
  11 C :    0.003422
  12 C :   -0.320236
  13 H :    0.181173
  14 H :    0.181462
  15 O :   -0.199910
  16 O :   -0.425776
  17 O :   -0.425756
  18 C :   -0.079348
  19 C :   -0.346735
  20 C :   -0.098459
  21 C :   -0.133560
  22 H :    0.161227
  23 C :   -0.162435
  24 C :   -0.182795
  25 H :    0.170366
  26 H :    0.159541
  27 H :    0.167655
  28 C :    0.239088
  29 O :   -0.526883
  30 O :   -0.528372
  31 Br:   -0.089931
  32 Br:   -0.089613
  33 Br:   -0.099268
  34 Br:   -0.099226
Sum of atomic charges:   -2.0000000

LOEWDIN ATOMIC CHARGES
----------------------
   0 C :   -0.422889
   1 C :   -0.388508
   2 C :   -0.197733
   3 C :   -0.112293
   4 C :   -0.106221
   5 C :   -0.385354
   6 C :    0.023373
   7 C :   -0.113132
   8 C :   -0.197684
   9 C :   -0.388861
  10 C :   -0.422586
  11 C :   -0.385185
  12 C :   -0.107255
  13 H :    0.170706
  14 H :    0.170215
  15 O :    0.388446
  16 O :    0.005218
  17 O :    0.004757
  18 C :   -0.072954
  19 C :   -0.103541
  20 C :   -0.098648
  21 C :   -0.146429
  22 H :    0.163348
  23 C :   -0.115710
  24 C :   -0.149414
  25 H :    0.157076
  26 H :    0.157290
  27 H :    0.155316
  28 C :   -0.651820
  29 O :   -0.089617
  30 O :   -0.057038
  31 Br:    0.338009
  32 Br:    0.338018
  33 Br:    0.320842
  34 Br:    0.320260

  Mayer bond orders larger than 0.100000
B(  0-C ,  1-C ) :   0.9532 B(  0-C ,  5-C ) :   0.9402 B(  0-C , 17-O ) :   2.1300
B(  1-C ,  2-C ) :   1.3500 B(  1-C , 17-O ) :  -0.1277 B(  1-C , 31-Br) :   1.0959
B(  2-C ,  3-C ) :   1.2245 B(  2-C , 15-O ) :   1.0806 B(  2-C , 31-Br) :  -0.1200
B(  3-C ,  4-C ) :   1.1382 B(  3-C ,  6-C ) :   1.1555 B(  4-C ,  5-C ) :   1.4529
B(  4-C , 13-H ) :   0.9111 B(  5-C , 17-O ) :  -0.1281 B(  5-C , 34-Br) :   0.9726
B(  6-C ,  7-C ) :   1.1529 B(  6-C , 18-C ) :   0.4417 B(  6-C , 19-C ) :  -0.1231
B(  6-C , 20-C ) :  -0.1002 B(  7-C ,  8-C ) :   1.1990 B(  7-C , 12-C ) :   1.1336
B(  8-C ,  9-C ) :   1.3360 B(  8-C , 15-O ) :   1.0805 B(  8-C , 32-Br) :  -0.1181
B(  9-C , 10-C ) :   0.9490 B(  9-C , 16-O ) :  -0.1271 B(  9-C , 32-Br) :   1.0965
B( 10-C , 11-C ) :   0.9383 B( 10-C , 16-O ) :   2.1269 B( 11-C , 12-C ) :   1.4495
B( 11-C , 16-O ) :  -0.1267 B( 11-C , 33-Br) :   0.9732 B( 12-C , 14-H ) :   0.9119
B( 18-C , 19-C ) :   1.3885 B( 18-C , 20-C ) :   1.3118 B( 19-C , 21-C ) :   1.3333
B( 19-C , 22-H ) :   0.9455 B( 20-C , 23-C ) :   1.3293 B( 20-C , 28-C ) :   0.8228
B( 20-C , 29-O ) :  -0.1968 B( 21-C , 24-C ) :   1.2624 B( 21-C , 25-H ) :   0.9337
B( 23-C , 24-C ) :   1.2855 B( 23-C , 26-H ) :   0.9200 B( 24-C , 27-H ) :   0.9380
B( 28-C , 29-O ) :   1.8185 B( 28-C , 30-O ) :   1.7129

-----------------------------------------------------------------------------
         ABSORPTION SPECTRUM VIA TRANSITION ELECTRIC DIPOLE MOMENTS
-----------------------------------------------------------------------------
State   Energy  Wavelength   fosc         T2         TX        TY        TZ
        (cm-1)    (nm)                  (au**2)     (au)      (au)      (au)
-----------------------------------------------------------------------------
   1   18217.5    548.9   0.721733768  13.04262   3.61061   0.05494   0.01935
   2   26459.1    377.9   0.025539808   0.31777   0.01950   0.56333   0.00364
   3   29952.6    333.9   0.034164277   0.37550   0.01466   0.54882   0.25352
   4   32565.6    307.1   0.343411945   3.47162   0.03569   1.86269   0.02612
   5   32518.1    307.5   0.023269440   0.23558   0.29374   0.35522   0.02135
   6   33054.9    302.5   0.040139263   0.39977   0.06850   0.62794   0.02520
   7   35580.7    281.1   0.003126770   0.02893   0.04505   0.14530   0.06963
   8   36809.6    271.7   0.014816917   0.13252   0.19184   0.29117   0.02833
   9   37033.5    270.0   0.009982152   0.08874   0.28211   0.07864   0.02585
  10   37390.4    267.4   0.014702870   0.12945   0.28065   0.13479   0.00893
  11   38668.5    258.6   0.080186096   0.68268   0.76198   0.29717   0.01723
  12   39297.7    254.5   0.068363748   0.57271   0.73852   0.09983   0.02998
  13   43377.0    230.5   0.841948914   6.39002   2.52307   0.04018   0.00435
  14   46361.3    215.7   0.008775763   0.06232   0.19066   0.07283   0.08091
  15   57557.6    173.7   0.028229123   0.16146   0.12238   0.26473   0.24368
  16   59890.3    167.0   0.085337776   0.46909   0.57920   0.36180   0.01194
  17  139346.8     71.8   0.018163061   0.04291   0.07217   0.19276   0.02063

FINAL SINGLE POINT ENERGY    -11430.737558487304

DIPOLE MOMENT
-------------
                                X             Y             Z
Electronic contribution:      2.23686     -63.84647      -2.07491
Nuclear contribution   :     -1.76550      63.66252      -2.85258
                        -----------------------------------------
Total Dipole Moment    :      0.47136      -0.18396      -4.92749
                        -----------------------------------------
Magnitude (a.u.)       :      4.95341
Magnitude (Debye)      :     12.59056

Rotational constants in cm-1:     0.003520     0.002272     0.001480
Rotational constants in MHz :   105.521627    68.099067    44.374263

                             ****ORCA TERMINATED NORMALLY****
TOTAL RUN TIME: 1 days 23 hours 19 minutes 11 seconds 391 msec
