 Gaussian 09, Revision E.01,

 ----------------------------------------------------------------------
 #p b3lyp/def2TZVP opt freq=noraman nosymm int=ultrafine scrf=(SMD,solv
 ent=Acetonitrile) EmpiricalDispersion=GD3BJ
 ----------------------------------------------------------------------

 -----
 Title
 -----
 Symbolic Z-matrix:
 Charge = -2 Multiplicity = 1

 SCF Done:  E(RB3LYP) =  -11439.4397008     A.U. after   15 cycles
 SCF Done:  E(RB3LYP) =  -11439.4441124     A.U. after   13 cycles
 SCF Done:  E(RB3LYP) =  -11439.4439951     A.U. after   12 cycles
 SCF Done:  E(RB3LYP) =  -11439.4442975     A.U. after    9 cycles
 SCF Done:  E(RB3LYP) =  -11439.4331351     A.U. after   13 cycles
 SCF Done:  E(RB3LYP) =  -11439.4444283     A.U. after   10 cycles
 SCF Done:  E(RB3LYP) =  -11439.4445010     A.U. after   12 cycles
 SCF Done:  E(RB3LYP) =  -11439.4445068     A.U. after   11 cycles
 SCF Done:  E(RB3LYP) =  -11439.4445137     A.U. after   10 cycles
 SCF Done:  E(RB3LYP) =  -11439.4445178     A.U. after   10 cycles
 SCF Done:  E(RB3LYP) =  -11439.4446061     A.U. after   11 cycles
 SCF Done:  E(RB3LYP) =  -11439.4446097     A.U. after   11 cycles
 SCF Done:  E(RB3LYP) =  -11439.4445670     A.U. after   12 cycles
 SCF Done:  E(RB3LYP) =  -11439.4446163     A.U. after   11 cycles
 SCF Done:  E(RB3LYP) =  -11439.4446163     A.U. after   10 cycles
 SCF Done:  E(RB3LYP) =  -11439.4446167     A.U. after   10 cycles
 SCF Done:  E(RB3LYP) =  -11439.4446167     A.U. after    8 cycles
 SCF Done:  E(RB3LYP) =  -11439.4446167     A.U. after    7 cycles
 Optimization completed.
    -- Stationary point found.
 Normal termination of Gaussian 09 at Sat Feb 12 06:41:57 2022.

 --------------------------------------------------------------------
 #P Geom=AllCheck Guess=TCheck SCRF=Check GenChk RB3LYP/def2TZVP Freq
 --------------------------------------------------------------------

 Structure from the checkpoint file:  "cp.chk"
 -----
 Title
 -----
 Charge = -2 Multiplicity = 1

 SCF Done:  E(RB3LYP) =  -11439.4446167     A.U. after    1 cycles

  Exact polarizability: 715.012  71.498 495.639 -97.413-185.889 510.985
 Approx polarizability: 846.291  96.297 593.185-128.043-209.258 608.581

                      1                      2                      3
                      A                      A                      A
 Frequencies --     19.8636                20.6247                27.7857
 Red. masses --     11.3027                15.9573                43.1202
 Frc consts  --      0.0026                 0.0040                 0.0196
 IR Inten    --     12.6926                 2.5900                 0.8421

                      4                      5                      6
                      A                      A                      A
 Frequencies --     38.2047                47.1751                62.1416
 Red. masses --     12.2264                 6.6256                13.5677
 Frc consts  --      0.0105                 0.0087                 0.0309
 IR Inten    --      4.0010                 0.5524                 2.7454

                      7                      8                      9
                      A                      A                      A
 Frequencies --     66.5135                68.8171                75.3094
 Red. masses --     18.4085                32.3802                17.7826
 Frc consts  --      0.0480                 0.0903                 0.0594
 IR Inten    --      5.7920                 0.1142                 6.1665

                     10                     11                     12
                      A                      A                      A
 Frequencies --    105.7025               118.0208               125.1311
 Red. masses --     50.6136                 5.5435                15.3662
 Frc consts  --      0.3332                 0.0455                 0.1418
 IR Inten    --      1.0794                 3.0593                18.2457

                     13                     14                     15
                      A                      A                      A
 Frequencies --    126.8171               138.3432               150.1085
 Red. masses --     23.5899                 8.9008                16.4346
 Frc consts  --      0.2235                 0.1004                 0.2182
 IR Inten    --      1.7892                 1.5733                 0.4119

                     16                     17                     18
                      A                      A                      A
 Frequencies --    165.8702               189.1513               206.9128
 Red. masses --      9.1066                13.1370                16.7721
 Frc consts  --      0.1476                 0.2769                 0.4231
 IR Inten    --      5.2378                14.1699                 3.7787

                     19                     20                     21
                      A                      A                      A
 Frequencies --    238.4653               246.7611               261.9716
 Red. masses --      9.1336                 9.6315                14.5676
 Frc consts  --      0.3060                 0.3455                 0.5890
 IR Inten    --     16.2871                 5.4506                 3.3585

                     22                     23                     24
                      A                      A                      A
 Frequencies --    263.2753               271.8451               281.6959
 Red. masses --      8.1807                16.1697                 9.4213
 Frc consts  --      0.3341                 0.7040                 0.4405
 IR Inten    --      0.1037                 8.7775                27.3326

                     25                     26                     27
                      A                      A                      A
 Frequencies --    307.4563               333.7914               352.6950
 Red. masses --      7.4513                12.4440                11.3816
 Frc consts  --      0.4150                 0.8169                 0.8342
 IR Inten    --      3.9748                 4.6133                 6.1007

                     28                     29                     30
                      A                      A                      A
 Frequencies --    372.6877               389.3733               408.0060
 Red. masses --     11.2848                10.1152                 9.4272
 Frc consts  --      0.9235                 0.9036                 0.9246
 IR Inten    --      0.6642                 7.3927                 9.2906

                     31                     32                     33
                      A                      A                      A
 Frequencies --    427.7317               447.9638               487.6121
 Red. masses --      3.8762                10.3704                 6.2660
 Frc consts  --      0.4178                 1.2261                 0.8778
 IR Inten    --      0.2020               115.9357               208.2675

                     34                     35                     36
                      A                      A                      A
 Frequencies --    496.5517               515.9612               544.4433
 Red. masses --      4.2585                 4.0733                 6.2544
 Frc consts  --      0.6186                 0.6389                 1.0923
 IR Inten    --      2.4355                 0.7505                 9.2455

                     37                     38                     39
                      A                      A                      A
 Frequencies --    589.6466               628.9759               643.8527
 Red. masses --      5.8424                 8.7385                10.3165
 Frc consts  --      1.1968                 2.0368                 2.5197
 IR Inten    --    168.6529                 0.6143               108.2522

                     40                     41                     42
                      A                      A                      A
 Frequencies --    649.6164               664.0679               680.1117
 Red. masses --      8.6939                 6.4407                 7.7844
 Frc consts  --      2.1616                 1.6734                 2.1215
 IR Inten    --      3.6521                63.7495                25.9195

                     43                     44                     45
                      A                      A                      A
 Frequencies --    702.0041               706.6688               713.8424
 Red. masses --     12.0049                 9.9180                 8.7082
 Frc consts  --      3.4857                 2.9181                 2.6145
 IR Inten    --     48.9802                 1.0839                 7.9120

                     46                     47                     48
                      A                      A                      A
 Frequencies --    729.3153               755.3288               769.7839
 Red. masses --      2.7868                 7.4761                 8.6265
 Frc consts  --      0.8734                 2.5130                 3.0118
 IR Inten    --    111.8878                20.5434                85.4919

                     49                     50                     51
                      A                      A                      A
 Frequencies --    783.7604               786.4563               790.9899
 Red. masses --      2.1886                 7.8812                 9.5591
 Frc consts  --      0.7921                 2.8720                 3.5238
 IR Inten    --     31.3100                17.2297                 0.4306

                     52                     53                     54
                      A                      A                      A
 Frequencies --    796.4063               803.2994               832.9680
 Red. masses --      5.6680                 6.7887                 8.8523
 Frc consts  --      2.1181                 2.5810                 3.6188
 IR Inten    --      7.1733                58.0653                63.2594

                     55                     56                     57
                      A                      A                      A
 Frequencies --    839.0266               908.7331               917.6181
 Red. masses --      3.1919                 1.6783                 1.4738
 Frc consts  --      1.3239                 0.8166                 0.7311
 IR Inten    --      5.1742                10.7679                 6.8207

                     58                     59                     60
                      A                      A                      A
 Frequencies --    920.0711               974.8530               976.8442
 Red. masses --      1.4834                 1.9422                 5.9023
 Frc consts  --      0.7399                 1.0875                 3.3184
 IR Inten    --     17.3966                83.2416                28.2672

                     61                     62                     63
                      A                      A                      A
 Frequencies --    990.0027              1003.9068              1012.5262
 Red. masses --      4.0652                 1.3203                 6.5867
 Frc consts  --      2.3475                 0.7840                 3.9786
 IR Inten    --    534.2483                 1.9191                 2.5123

                     64                     65                     66
                      A                      A                      A
 Frequencies --   1061.4456              1068.2278              1105.7311
 Red. masses --      2.2491                 3.9203                 2.6736
 Frc consts  --      1.4930                 2.6357                 1.9259
 IR Inten    --     25.2207                49.5166                28.6004

                     67                     68                     69
                      A                      A                      A
 Frequencies --   1168.6355              1171.0025              1187.8848
 Red. masses --      1.7503                 1.2956                 8.0846
 Frc consts  --      1.4084                 1.0467                 6.7214
 IR Inten    --      4.6135                 4.2450                 6.7005

                     70                     71                     72
                      A                      A                      A
 Frequencies --   1188.2281              1203.7755              1252.3403
 Red. masses --      4.0629                 3.9521                 3.6244
 Frc consts  --      3.3798                 3.3742                 3.3492
 IR Inten    --     40.4570                53.6238               401.4929

                     73                     74                     75
                      A                      A                      A
 Frequencies --   1274.7953              1285.6654              1318.5866
 Red. masses --      2.2337                 2.1910                 5.2070
 Frc consts  --      2.1387                 2.1338                 5.3340
 IR Inten    --      6.3936                 2.0913                 4.6611

                     76                     77                     78
                      A                      A                      A
 Frequencies --   1338.1503              1346.0559              1369.4243
 Red. masses --      2.9899                 2.9520                12.3402
 Frc consts  --      3.1544                 3.1514                13.6347
 IR Inten    --     49.6093              1082.8311               491.7365

                     79                     80                     81
                      A                      A                      A
 Frequencies --   1385.1243              1446.6761              1467.9696
 Red. masses --      5.7776                 6.4069                 2.2417
 Frc consts  --      6.5310                 7.9003                 2.8462
 IR Inten    --    574.8461                51.6745                61.0796

                     82                     83                     84
                      A                      A                      A
 Frequencies --   1491.0268              1499.2852              1503.0814
 Red. masses --      7.0704                 4.3759                 8.5601
 Frc consts  --      9.2612                 5.7954                11.3944
 IR Inten    --   1069.2270               479.5743              3281.3461

                     85                     86                     87
                      A                      A                      A
 Frequencies --   1514.6285              1531.8816              1589.2071
 Red. masses --      6.1811                 7.0941                 7.9656
 Frc consts  --      8.3547                 9.8084                11.8530
 IR Inten    --    201.7207                 6.1688              1502.0320

                     88                     89                     90
                      A                      A                      A
 Frequencies --   1602.1834              1608.1260              1615.6814
 Red. masses --      6.7548                12.5043                11.7823
 Frc consts  --     10.2161                19.0524                18.1214
 IR Inten    --    240.4025               362.5791               189.5981

                     91                     92                     93
                      A                      A                      A
 Frequencies --   1626.3176              1642.5297              1651.1343
 Red. masses --      7.2303                 8.0216                 8.5195
 Frc consts  --     11.2672                12.7508                13.6845
 IR Inten    --    439.6818               479.1131                33.3321

                     94                     95                     96
                      A                      A                      A
 Frequencies --   3169.1412              3176.9443              3190.3821
 Red. masses --      1.0862                 1.0900                 1.0941
 Frc consts  --      6.4275                 6.4818                 6.5612
 IR Inten    --      0.4297                16.3176                19.7954

                     97                     98                     99
                      A                      A                      A
 Frequencies --   3198.3081              3210.9039              3211.8716
 Red. masses --      1.0941                 1.0910                 1.0908
 Frc consts  --      6.5942                 6.6274                 6.6302
 IR Inten    --     21.5300                 2.1518                 2.3387

 - Thermochemistry -
 -------------------
 Temperature   298.150 Kelvin.  Pressure   1.00000 Atm.
 Atom     1 has atomic number  6 and mass  12.00000

 Molecular mass:   641.69487 amu.
 Principal axes and moments of inertia in atomic units:
                           1         2         3
     Eigenvalues --  ******************************
           X            0.75067   0.65708   0.06883
           Y            0.45652  -0.59120   0.66489
           Z           -0.47758   0.46769   0.74377
 This molecule is an asymmetric top.
 Rotational symmetry number  1.
 Warning -- assumption of classical behavior for rotation
           may cause significant error
 Rotational temperatures (Kelvin)      0.00511     0.00328     0.00214
 Rotational constants (GHZ):           0.10640     0.06836     0.04453
 Zero-point vibrational energy     542170.4 (Joules/Mol)
                                  129.58183 (Kcal/Mol)
 Warning -- explicit consideration of  37 degrees of freedom as
           vibrations may cause significant error
 Vibrational temperatures:     28.58    29.67    39.98    54.97    67.87
          (Kelvin)             89.41    95.70    99.01   108.35   152.08
                              169.81   180.04   182.46   199.04   215.97
                              238.65   272.15   297.70   343.10   355.03
                              376.92   378.79   391.12   405.30   442.36
                              480.25   507.45   536.21   560.22   587.03
                              615.41   644.52   701.56   714.43   742.35
                              783.33   848.37   904.95   926.36   934.65
                              955.44   978.53  1010.03  1016.74  1027.06
                             1049.32  1086.75  1107.55  1127.65  1131.53
                             1138.06  1145.85  1155.77  1198.45  1207.17
                             1307.46  1320.25  1323.78  1402.59  1405.46
                             1424.39  1444.40  1456.80  1527.18  1536.94
                             1590.90  1681.40  1684.81  1709.10  1709.59
                             1731.96  1801.84  1834.14  1849.78  1897.15
                             1925.30  1936.67  1970.29  1992.88  2081.44
                             2112.08  2145.25  2157.13  2162.60  2179.21
                             2204.03  2286.51  2305.18  2313.73  2324.60
                             2339.91  2363.23  2375.61  4559.68  4570.91
                             4590.24  4601.65  4619.77  4621.16

 Zero-point correction=                           0.206502 (Hartree/Particle)
 Thermal correction to Energy=                    0.231743
 Thermal correction to Enthalpy=                  0.232687
 Thermal correction to Gibbs Free Energy=         0.145994
 Sum of electronic and zero-point Energies=         -11439.238115
 Sum of electronic and thermal Energies=            -11439.212874
 Sum of electronic and thermal Enthalpies=          -11439.211929
 Sum of electronic and thermal Free Energies=       -11439.298623

                     E (Thermal)             CV                S
                      KCal/Mol        Cal/Mol-Kelvin    Cal/Mol-Kelvin
 Total                  145.421             90.489            182.461
 Electronic               0.000              0.000              0.000
 Translational            0.889              2.981             45.259
 Rotational               0.889              2.981             38.137
 Vibrational            143.644             84.527             99.064
 Vibration     1          0.593              1.986              6.648
 Vibration     2          0.593              1.986              6.573
 Vibration     3          0.593              1.984              5.982
 Vibration     4          0.594              1.982              5.350
 Vibration     5          0.595              1.979              4.932
 Vibration     6          0.597              1.972              4.388
 Vibration     7          0.598              1.970              4.254
 Vibration     8          0.598              1.969              4.187
 Vibration     9          0.599              1.965              4.010
 Vibration    10          0.605              1.945              3.346
 Vibration    11          0.608              1.934              3.133
 Vibration    12          0.610              1.928              3.020
 Vibration    13          0.611              1.926              2.994
 Vibration    14          0.614              1.915              2.827
 Vibration    15          0.618              1.903              2.671
 Vibration    16          0.624              1.884              2.482
 Vibration    17          0.633              1.855              2.236
 Vibration    18          0.641              1.830              2.071
 Vibration    19          0.656              1.782              1.814
 Vibration    20          0.661              1.768              1.754
 Vibration    21          0.669              1.742              1.649
 Vibration    22          0.670              1.740              1.640
 Vibration    23          0.675              1.725              1.584
 Vibration    24          0.681              1.708              1.523
 Vibration    25          0.697              1.660              1.376
 Vibration    26          0.715              1.608              1.242
 Vibration    27          0.729              1.570              1.154
 Vibration    28          0.744              1.528              1.069
 Vibration    29          0.757              1.493              1.003
 Vibration    30          0.773              1.453              0.934
 Vibration    31          0.789              1.410              0.866
 Vibration    32          0.807              1.365              0.802
 Vibration    33          0.844              1.278              0.690
 Vibration    34          0.852              1.258              0.667
 Vibration    35          0.871              1.215              0.619
 Vibration    36          0.900              1.152              0.556
 Vibration    37          0.947              1.054              0.468

 Optimization completed.
    -- Stationary point found.
 Normal termination of Gaussian 09 at Sat Feb 12 11:58:41 2022.
 Gaussian 09:  ES64L-G09RevE.01 30-Nov-2015

 ----------------------------------------------------------------------
 #p b3lyp chkbasis geom=allcheck Guess=Read int=ultrafine scrf=(SMD,sol
 vent=Acetonitrile) td=(NStates=30) EmpiricalDispersion=GD3BJ
 ----------------------------------------------------------------------

 Structure from the checkpoint file:  "cp.chk"
 -----
 Title
 -----
 Charge = -2 Multiplicity = 1

                         Standard orientation:
 ---------------------------------------------------------------------
 Center     Atomic      Atomic             Coordinates (Angstroms)
 Number     Number       Type             X           Y           Z
 ---------------------------------------------------------------------
      1          6           0       -3.561472   -1.307832   -0.130625
      2          6           0       -2.217002   -1.842145   -0.069410
      3          6           0       -1.094513   -1.049870   -0.101468
      4          6           0       -1.182344    0.365105   -0.198039
      5          6           0       -2.480725    0.932574   -0.264243
      6          6           0       -3.588586    0.150596   -0.229830
      7          6           0       -0.004548    1.126744   -0.208404
      8          6           0        1.236024    0.473935   -0.172303
      9          6           0        1.274558   -0.943463   -0.078958
     10          6           0        2.463494   -1.630735   -0.021836
     11          6           0        3.754730   -0.975816   -0.045900
     12          6           0        3.651427    0.480392   -0.125061
     13          6           0        2.478325    1.158569   -0.183400
     14          1           0       -2.570614    2.006092   -0.338360
     15          1           0        2.470736    2.237114   -0.234256
     16          8           0        0.119286   -1.655668   -0.040302
     17          8           0        4.835532   -1.579726   -0.001680
     18          8           0       -4.583479   -2.007745   -0.106702
     19          6           0       -0.069057    2.599168   -0.406002
     20          6           0        0.177146    3.082545   -1.693745
     21          6           0       -0.396861    3.492082    0.622594
     22          6           0        0.115535    4.442106   -1.967592
     23          1           0        0.417160    2.382228   -2.484063
     24          6           0       -0.467451    4.853766    0.326082
     25          6           0       -0.205682    5.333953   -0.949685
     26          1           0        0.315513    4.799912   -2.969754
     27          1           0       -0.731528    5.530585    1.127306
     28          1           0       -0.253974    6.396981   -1.151537
     29          6           0       -0.660226    3.015576    2.054539
     30          8           0       -1.311840    3.792277    2.789729
     31          8           0       -0.185704    1.895203    2.357549
     32         35           0       -2.036969   -3.733866    0.054496
     33         35           0        2.455688   -3.531267    0.096173
     34         35           0        5.298351    1.454516   -0.141776
     35         35           0       -5.316336    0.969156   -0.319704
 ---------------------------------------------------------------------

 SCF Done:  E(RB3LYP) =  -11439.4446165     A.U. after    8 cycles

 Excitation energies and oscillator strengths:

 Excited State   1:      Singlet-A      2.7579 eV  449.57 nm  f=0.7551  <S**2>=0.000
     154 -> 155        0.69979
 This state for optimization and/or second-order correction.
 Total Energy, E(TD-HF/TD-KS) =  -11439.3432674
 Copying the excited state density for this state as the 1-particle RhoCI density.

 Excited State   2:      Singlet-A      3.0550 eV  405.84 nm  f=0.0412  <S**2>=0.000
     152 -> 155       -0.10044
     153 -> 155        0.68807

 Excited State   3:      Singlet-A      3.2172 eV  385.38 nm  f=0.0004  <S**2>=0.000
     152 -> 155        0.68934

 Excited State   4:      Singlet-A      3.4119 eV  363.39 nm  f=0.0203  <S**2>=0.000
     150 -> 155       -0.10926
     151 -> 155        0.68645

 Excited State   5:      Singlet-A      3.5552 eV  348.74 nm  f=0.0052  <S**2>=0.000
     147 -> 155       -0.10762
     149 -> 155        0.63519
     150 -> 155       -0.26109

 Excited State   6:      Singlet-A      3.5968 eV  344.71 nm  f=0.0232  <S**2>=0.000
     149 -> 155        0.27478
     150 -> 155        0.63033

 Excited State   7:      Singlet-A      3.6362 eV  340.97 nm  f=0.0002  <S**2>=0.000
     148 -> 155        0.69348
     149 -> 162        0.10619

 Excited State   8:      Singlet-A      3.7854 eV  327.53 nm  f=0.0515  <S**2>=0.000
     154 -> 156        0.68822

 Excited State   9:      Singlet-A      3.9353 eV  315.06 nm  f=0.0205  <S**2>=0.000
     146 -> 155        0.26186
     147 -> 155       -0.28764
     154 -> 157        0.56289

 Excited State  10:      Singlet-A      3.9536 eV  313.60 nm  f=0.0218  <S**2>=0.000
     146 -> 155        0.62634
     147 -> 155        0.25331
     154 -> 157       -0.14508

 Excited State  11:      Singlet-A      4.0024 eV  309.77 nm  f=0.0858  <S**2>=0.000
     144 -> 155        0.22843
     145 -> 155        0.16846
     146 -> 155       -0.14856
     147 -> 155        0.45974
     154 -> 156        0.11355
     154 -> 157        0.35539
     154 -> 158        0.11561

 Excited State  12:      Singlet-A      4.0513 eV  306.03 nm  f=0.0037  <S**2>=0.000
     154 -> 158        0.50860
     154 -> 159        0.45521

 Excited State  13:      Singlet-A      4.0905 eV  303.10 nm  f=0.0095  <S**2>=0.000
     152 -> 156       -0.20974
     153 -> 156        0.62226
     153 -> 157       -0.11801

 Excited State  14:      Singlet-A      4.1931 eV  295.68 nm  f=0.0248  <S**2>=0.000
     144 -> 155        0.15182
     145 -> 155        0.33646
     154 -> 158       -0.27772
     154 -> 159        0.33026
     154 -> 160        0.36425

 Excited State  15:      Singlet-A      4.2103 eV  294.48 nm  f=0.0095  <S**2>=0.000
     144 -> 155       -0.35008
     145 -> 155        0.53893
     154 -> 160       -0.25592

 Excited State  16:      Singlet-A      4.2506 eV  291.69 nm  f=0.0021  <S**2>=0.000
     144 -> 155        0.46552
     147 -> 155       -0.17001
     154 -> 157       -0.10149
     154 -> 159        0.11383
     154 -> 160       -0.42289

 Excited State  17:      Singlet-A      4.3270 eV  286.53 nm  f=0.0731  <S**2>=0.000
     144 -> 155       -0.24279
     145 -> 155       -0.18924
     147 -> 155        0.20970
     154 -> 158       -0.33916
     154 -> 159        0.35982
     154 -> 160       -0.25922
     154 -> 162       -0.15732

 Excited State  18:      Singlet-A      4.3818 eV  282.95 nm  f=0.0008  <S**2>=0.000
     147 -> 156        0.10023
     151 -> 156        0.62234
     151 -> 157       -0.13327
     152 -> 156        0.20409

 Excited State  19:      Singlet-A      4.4418 eV  279.13 nm  f=0.0043  <S**2>=0.000
     154 -> 161        0.66751

 Excited State  20:      Singlet-A      4.5200 eV  274.30 nm  f=0.0022  <S**2>=0.000
     152 -> 157       -0.14895
     153 -> 156        0.11205
     153 -> 157        0.65445

 Excited State  21:      Singlet-A      4.6753 eV  265.19 nm  f=0.0001  <S**2>=0.000
     143 -> 155        0.70284

 Excited State  22:      Singlet-A      4.6947 eV  264.09 nm  f=0.1084  <S**2>=0.000
     151 -> 156       -0.20863
     152 -> 156        0.59715
     153 -> 156        0.21814

 Excited State  23:      Singlet-A      4.7779 eV  259.49 nm  f=0.0376  <S**2>=0.000
     151 -> 157        0.39646
     152 -> 157        0.44698
     153 -> 159        0.11784
     154 -> 163       -0.16741

 Excited State  24:      Singlet-A      4.8093 eV  257.80 nm  f=0.0006  <S**2>=0.000
     146 -> 160       -0.11663
     151 -> 157       -0.13887
     152 -> 158        0.34436
     152 -> 159        0.33226
     153 -> 158        0.28987
     153 -> 159        0.16975
     154 -> 160        0.11366
     154 -> 164       -0.20265

 Excited State  25:      Singlet-A      4.8255 eV  256.93 nm  f=0.0387  <S**2>=0.000
     151 -> 156        0.10036
     151 -> 157        0.37315
     152 -> 156       -0.13673
     152 -> 157       -0.13989
     152 -> 159        0.10458
     152 -> 160        0.18250
     153 -> 159        0.10541
     154 -> 163        0.42267

 Excited State  26:      Singlet-A      4.8299 eV  256.70 nm  f=0.0004  <S**2>=0.000
     142 -> 155        0.69383

 Excited State  27:      Singlet-A      4.8499 eV  255.64 nm  f=0.0006  <S**2>=0.000
     151 -> 157       -0.18628
     152 -> 156       -0.13627
     153 -> 158       -0.43160
     153 -> 159        0.43871

 Excited State  28:      Singlet-A      4.8902 eV  253.54 nm  f=0.0575  <S**2>=0.000
     151 -> 157       -0.19735
     152 -> 157        0.31573
     154 -> 162        0.42630
     154 -> 163        0.31259

 Excited State  29:      Singlet-A      4.9234 eV  251.83 nm  f=0.0622  <S**2>=0.000
     141 -> 155        0.14089
     151 -> 157        0.16216
     152 -> 157       -0.28672
     152 -> 160        0.10397
     153 -> 160        0.12961
     154 -> 162        0.42923
     154 -> 163       -0.30939

 Excited State  30:      Singlet-A      4.9306 eV  251.46 nm  f=0.0022  <S**2>=0.000
     141 -> 155        0.68730

 The electronic state is 1-A.
 Alpha  occ. eigenvalues -- -482.84407-482.84378-482.84206-482.84197 -62.49161
 Alpha  occ. eigenvalues --  -62.49132 -62.48948 -62.48939 -56.30782 -56.30752
 Alpha  occ. eigenvalues --  -56.30580 -56.30571 -56.30438 -56.30418 -56.30408
 Alpha  occ. eigenvalues --  -56.30389 -56.30225 -56.30216 -56.30197 -56.30187
 Alpha  occ. eigenvalues --  -19.19449 -19.06937 -19.06924 -19.04134 -19.03962
 Alpha  occ. eigenvalues --  -10.25274 -10.25255 -10.23702 -10.23688 -10.23248
 Alpha  occ. eigenvalues --  -10.21461 -10.21255 -10.21236 -10.20652 -10.20642
 Alpha  occ. eigenvalues --  -10.18407 -10.18402 -10.18369 -10.18202 -10.18180
 Alpha  occ. eigenvalues --  -10.17113 -10.16941 -10.16914 -10.16783 -10.16379
 Alpha  occ. eigenvalues --   -8.68242  -8.68212  -8.68024  -8.68015  -6.51189
 Alpha  occ. eigenvalues --   -6.51159  -6.51002  -6.50993  -6.50116  -6.50085
 Alpha  occ. eigenvalues --   -6.50050  -6.50019  -6.49895  -6.49886  -6.49801
 Alpha  occ. eigenvalues --   -6.49791  -2.62647  -2.62617  -2.62456  -2.62446
 Alpha  occ. eigenvalues --   -2.62346  -2.62316  -2.62295  -2.62265  -2.62151
 Alpha  occ. eigenvalues --   -2.62142  -2.62077  -2.62068  -2.61435  -2.61434
 Alpha  occ. eigenvalues --   -2.61405  -2.61404  -2.61190  -2.61188  -2.61180
 Alpha  occ. eigenvalues --   -2.61178  -1.11472  -1.00246  -0.99988  -0.99963
 Alpha  occ. eigenvalues --   -0.91466  -0.87835  -0.87035  -0.85138  -0.81821
 Alpha  occ. eigenvalues --   -0.81579  -0.80463  -0.77787  -0.76071  -0.74483
 Alpha  occ. eigenvalues --   -0.73915  -0.73160  -0.70551  -0.70418  -0.64761
 Alpha  occ. eigenvalues --   -0.63741  -0.61948  -0.60755  -0.58135  -0.57595
 Alpha  occ. eigenvalues --   -0.54167  -0.54029  -0.52277  -0.51466  -0.48275
 Alpha  occ. eigenvalues --   -0.47874  -0.47436  -0.45603  -0.45351  -0.45177
 Alpha  occ. eigenvalues --   -0.43851  -0.43248  -0.41806  -0.41691  -0.41089
 Alpha  occ. eigenvalues --   -0.40787  -0.40735  -0.40101  -0.39498  -0.38909
 Alpha  occ. eigenvalues --   -0.38172  -0.37952  -0.37697  -0.35982  -0.35852
 Alpha  occ. eigenvalues --   -0.35436  -0.34842  -0.34182  -0.32991  -0.32724
 Alpha  occ. eigenvalues --   -0.32612  -0.31153  -0.29600  -0.28783  -0.27989
 Alpha  occ. eigenvalues --   -0.27869  -0.27496  -0.26912  -0.25494  -0.25252
 Alpha  occ. eigenvalues --   -0.24328  -0.24046  -0.23873  -0.23567  -0.23006
 Alpha  occ. eigenvalues --   -0.22199  -0.21498  -0.20828  -0.18270
 Alpha virt. eigenvalues --   -0.07376  -0.02380  -0.01610  -0.00597  -0.00522
 Alpha virt. eigenvalues --    0.00014   0.00431   0.01192   0.02553   0.03332
 Alpha virt. eigenvalues --    0.06233   0.06937   0.07656   0.07972   0.08941

 Mulliken charges:
               1
     1  C    0.063103
     2  C   -0.130861
     3  C    0.198961
     4  C    0.026222
     5  C   -0.310758
     6  C    0.045743
     7  C    0.498682
     8  C    0.028084
     9  C    0.244169
    10  C   -0.152819
    11  C    0.079258
    12  C    0.028949
    13  C   -0.295554
    14  H    0.165556
    15  H    0.165955
    16  O   -0.229866
    17  O   -0.413507
    18  O   -0.412914
    19  C   -0.075739
    20  C   -0.279723
    21  C   -0.081582
    22  C   -0.128430
    23  H    0.136777
    24  C   -0.184685
    25  C   -0.154506
    26  H    0.146065
    27  H    0.128186
    28  H    0.143623
    29  C    0.245401
    30  O   -0.516107
    31  O   -0.513382
    32  Br  -0.107708
    33  Br  -0.107505
    34  Br  -0.124963
    35  Br  -0.124124
 Sum of Mulliken charges =  -2.00000

 Dipole moment (field-independent basis, Debye):
    X=              2.6710    Y=              0.6207    Z=            -12.1092  Tot=             12.4158
 Quadrupole moment (field-independent basis, Debye-Ang):
   XX=           -355.6495   YY=           -278.3980   ZZ=           -249.6140
   XY=              8.6720   XZ=              7.5481   YZ=            -36.7823

 Normal termination of Gaussian 09 at Sat Feb 12 15:23:07 2022.
