 Gaussian 09, Revision E.01,

 ----------------------------------------------------------------------
 #p TPSSTPSS/def2TZVP opt freq=noraman nosymm int=ultrafine scrf=(SMD,s
 olvent=Acetonitrile)
 ----------------------------------------------------------------------

 -----
 Title
 -----
 Symbolic Z-matrix:
 Charge = -2 Multiplicity = 1

 SCF Done:  E(RTPSS-TPSS) =  -11439.0417226     A.U. after   18 cycles
 SCF Done:  E(RTPSS-TPSS) =  -11439.0441631     A.U. after   13 cycles
 SCF Done:  E(RTPSS-TPSS) =  -11439.0437564     A.U. after   13 cycles
 SCF Done:  E(RTPSS-TPSS) =  -11439.0391737     A.U. after   13 cycles
 SCF Done:  E(RTPSS-TPSS) =  -11439.0442735     A.U. after    9 cycles
 SCF Done:  E(RTPSS-TPSS) =  -11439.0444179     A.U. after   11 cycles
 SCF Done:  E(RTPSS-TPSS) =  -11439.0444130     A.U. after   11 cycles
 SCF Done:  E(RTPSS-TPSS) =  -11439.0444257     A.U. after   11 cycles
 SCF Done:  E(RTPSS-TPSS) =  -11439.0444267     A.U. after    9 cycles
 SCF Done:  E(RTPSS-TPSS) =  -11439.0444271     A.U. after   10 cycles
 SCF Done:  E(RTPSS-TPSS) =  -11439.0444274     A.U. after    9 cycles
 SCF Done:  E(RTPSS-TPSS) =  -11439.0444275     A.U. after    8 cycles
 Optimization completed.
    -- Stationary point found.
 Normal termination of Gaussian 09 at Sat Feb 12 05:44:59 2022.

 ----------------------------------------------------------------------
 #P Geom=AllCheck Guess=TCheck SCRF=Check GenChk RTPSSTPSS/def2TZVP Fre
 q
 ----------------------------------------------------------------------

 Structure from the checkpoint file:  "cp.chk"
 -----
 Title
 -----
 Charge = -2 Multiplicity = 1

 SCF Done:  E(RTPSS-TPSS) =  -11439.0444275     A.U. after    2 cycles

  Exact polarizability: 743.020  71.293 568.458 -82.176-193.312 508.210
 Approx polarizability:1157.251 184.068 864.983-201.093-320.891 756.513

                      1                      2                      3
                      A                      A                      A
 Frequencies --     18.7687                23.2208                25.6998
 Red. masses --     12.9891                14.5156                42.4628
 Frc consts  --      0.0027                 0.0046                 0.0165
 IR Inten    --      7.0591                 4.7891                 0.7778

                      4                      5                      6
                      A                      A                      A
 Frequencies --     44.8071                47.4193                64.9189
 Red. masses --      6.4819                10.8335                32.6703
 Frc consts  --      0.0077                 0.0144                 0.0811
 IR Inten    --      0.7485                 4.3713                 0.0644

                      7                      8                      9
                      A                      A                      A
 Frequencies --     72.9903                74.8524                80.5367
 Red. masses --     18.4734                17.3604                13.1210
 Frc consts  --      0.0580                 0.0573                 0.0501
 IR Inten    --      2.6446                 9.6587                 4.0722

                     10                     11                     12
                      A                      A                      A
 Frequencies --     99.8676               111.3233               119.2827
 Red. masses --     49.3171                 5.8651                22.0110
 Frc consts  --      0.2898                 0.0428                 0.1845
 IR Inten    --      2.1002                 3.4764                 9.2078

                     13                     14                     15
                      A                      A                      A
 Frequencies --    120.7578               135.2125               145.8006
 Red. masses --     15.9756                 9.7694                14.1241
 Frc consts  --      0.1373                 0.1052                 0.1769
 IR Inten    --     35.6502                 2.1742                 0.0313

                     16                     17                     18
                      A                      A                      A
 Frequencies --    158.0976               178.6701               197.9635
 Red. masses --      9.0018                12.2785                19.4302
 Frc consts  --      0.1326                 0.2309                 0.4486
 IR Inten    --      6.9024                23.7763                 3.9600

                     19                     20                     21
                      A                      A                      A
 Frequencies --    225.8211               239.6440               248.3922
 Red. masses --      9.6061                 9.4102                15.7395
 Frc consts  --      0.2886                 0.3184                 0.5722
 IR Inten    --     38.1874                 1.3659                 1.4355

                     22                     23                     24
                      A                      A                      A
 Frequencies --    255.6571               257.5677               271.4808
 Red. masses --      7.4113                16.4811                 8.9746
 Frc consts  --      0.2854                 0.6442                 0.3897
 IR Inten    --      0.1131                 5.8743                15.1898

                     25                     26                     27
                      A                      A                      A
 Frequencies --    295.9984               320.8709               341.5947
 Red. masses --      7.6498                12.3432                11.8614
 Frc consts  --      0.3949                 0.7488                 0.8155
 IR Inten    --      4.6116                 6.0912                10.0985

                     28                     29                     30
                      A                      A                      A
 Frequencies --    364.0446               376.9512               390.7875
 Red. masses --     11.2966                10.1967                 9.3147
 Frc consts  --      0.8821                 0.8537                 0.8381
 IR Inten    --      0.9380                 5.7565                15.9933

                     31                     32                     33
                      A                      A                      A
 Frequencies --    426.4564               434.6474               477.9375
 Red. masses --      4.0678                 7.7233                 6.2963
 Frc consts  --      0.4359                 0.8597                 0.8474
 IR Inten    --      7.6469                93.8018               160.5488

                     34                     35                     36
                      A                      A                      A
 Frequencies --    478.8696               500.3650               512.9051
 Red. masses --      4.7775                 4.2596                 7.8075
 Frc consts  --      0.6455                 0.6283                 1.2101
 IR Inten    --      9.9733                 0.4091                 5.5092

                     37                     38                     39
                      A                      A                      A
 Frequencies --    568.6766               604.5496               615.5762
 Red. masses --      6.0479                 8.5431                 9.4636
 Frc consts  --      1.1524                 1.8396                 2.1129
 IR Inten    --    125.0206                 9.5358                34.4715

                     40                     41                     42
                      A                      A                      A
 Frequencies --    622.6211               638.5035               656.6620
 Red. masses --     10.5420                 6.0158                 7.8537
 Frc consts  --      2.4078                 1.4450                 1.9953
 IR Inten    --     98.0289                71.3643                28.5186

                     43                     44                     45
                      A                      A                      A
 Frequencies --    677.4345               679.3074               690.6662
 Red. masses --      9.8006                12.1438                 8.7109
 Frc consts  --      2.6499                 3.3017                 2.4482
 IR Inten    --      0.2381                44.0642                 9.1763

                     46                     47                     48
                      A                      A                      A
 Frequencies --    704.4986               716.4736               742.0300
 Red. masses --      3.1668                 9.2093                 8.9379
 Frc consts  --      0.9260                 2.7853                 2.8995
 IR Inten    --    102.3140                33.1201                70.8292

                     49                     50                     51
                      A                      A                      A
 Frequencies --    751.9379               758.8692               763.5417
 Red. masses --     10.4291                 8.5116                 8.0609
 Frc consts  --      3.4743                 2.8880                 2.7689
 IR Inten    --      0.2675                19.2469                63.6865

                     52                     53                     54
                      A                      A                      A
 Frequencies --    766.0701               775.3927               804.8182
 Red. masses --      2.6029                 3.2010                 8.8657
 Frc consts  --      0.9000                 1.1339                 3.3835
 IR Inten    --     24.3599                 3.0831                45.6843

                     55                     56                     57
                      A                      A                      A
 Frequencies --    815.4055               886.5291               886.8052
 Red. masses --      3.5062                 1.4276                 1.4392
 Frc consts  --      1.3735                 0.6611                 0.6669
 IR Inten    --      5.5976                11.0419                17.6105

                     58                     59                     60
                      A                      A                      A
 Frequencies --    890.3413               945.1268               952.2869
 Red. masses --      1.5276                 8.9846                 2.5658
 Frc consts  --      0.7135                 4.7286                 1.3709
 IR Inten    --      9.2768                12.7414               219.7522

                     61                     62                     63
                      A                      A                      A
 Frequencies --    963.9570               982.0061               983.6980
 Red. masses --      2.2558                 6.4764                 1.2844
 Frc consts  --      1.2350                 3.6797                 0.7323
 IR Inten    --    268.3980                 2.9857                 0.0328

                     64                     65                     66
                      A                      A                      A
 Frequencies --   1034.3618              1036.7949              1077.9619
 Red. masses --      3.9592                 2.2291                 2.9874
 Frc consts  --      2.4958                 1.4118                 2.0452
 IR Inten    --     40.6002                28.0933                23.9941

                     67                     68                     69
                      A                      A                      A
 Frequencies --   1144.4976              1146.2247              1155.6771
 Red. masses --      1.9498                 1.9509                 8.3138
 Frc consts  --      1.5047                 1.5101                 6.5422
 IR Inten    --      9.0141                10.0734                37.4378

                     70                     71                     72
                      A                      A                      A
 Frequencies --   1157.1689              1167.6974              1215.3927
 Red. masses --      1.7483                 3.4117                 4.0548
 Frc consts  --      1.3793                 2.7408                 3.5290
 IR Inten    --      9.8361                86.9591                46.2828

                     73                     74                     75
                      A                      A                      A
 Frequencies --   1245.1607              1256.2040              1294.0619
 Red. masses --      2.4753                 2.1481                 2.7015
 Frc consts  --      2.2611                 1.9972                 2.6654
 IR Inten    --      8.7392                 0.7587                41.4021

                     76                     77                     78
                      A                      A                      A
 Frequencies --   1312.1816              1319.9991              1325.2319
 Red. masses --      2.5415                10.9454                 7.7576
 Frc consts  --      2.5783                11.2364                 8.0272
 IR Inten    --    953.8612               347.6537                85.0374

                     79                     80                     81
                      A                      A                      A
 Frequencies --   1358.7204              1405.9237              1441.8916
 Red. masses --      7.3343                 6.5943                 2.1067
 Frc consts  --      7.9776                 7.6796                 2.5806
 IR Inten    --    229.7737               101.7521                 3.1114

                     82                     83                     84
                      A                      A                      A
 Frequencies --   1452.4414              1463.3246              1465.7904
 Red. masses --      8.1191                 5.7263                11.4677
 Frc consts  --     10.0915                 7.2245                14.5168
 IR Inten    --    407.5014                98.8317              2706.6756

                     85                     86                     87
                      A                      A                      A
 Frequencies --   1476.0751              1489.3464              1553.1971
 Red. masses --      3.9640                 6.5155                 7.6359
 Frc consts  --      5.0886                 8.5152                10.8534
 IR Inten    --     76.2186                 3.4429              1342.5390

                     88                     89                     90
                      A                      A                      A
 Frequencies --   1557.9059              1561.9745              1563.2287
 Red. masses --     12.1086                12.4335                 8.0037
 Frc consts  --     17.3152                17.8728                11.5236
 IR Inten    --    588.3956               576.9628               334.2257

                     91                     92                     93
                      A                      A                      A
 Frequencies --   1581.1950              1600.2736              1606.9933
 Red. masses --      7.0013                 6.4791                 8.4946
 Frc consts  --     10.3133                 9.7758                12.9247
 IR Inten    --    501.7725               167.7632                18.9157

                     94                     95                     96
                      A                      A                      A
 Frequencies --   3126.3961              3134.1561              3146.2794
 Red. masses --      1.0851                 1.0890                 1.0915
 Frc consts  --      6.2492                 6.3026                 6.3663
 IR Inten    --      0.5477                18.4699                22.5706

                     97                     98                     99
                      A                      A                      A
 Frequencies --   3153.1718              3165.5022              3165.8883
 Red. masses --      1.0964                 1.0905                 1.0905
 Frc consts  --      6.4227                 6.4382                 6.4400
 IR Inten    --     44.2616                 3.5093                 0.5748

 - Thermochemistry -
 -------------------
 Temperature   298.150 Kelvin.  Pressure   1.00000 Atm.
 Atom     1 has atomic number  6 and mass  12.00000

 Molecular mass:   641.69487 amu.
 Principal axes and moments of inertia in atomic units:
                           1         2         3
     Eigenvalues --  ******************************
           X            0.72118   0.69134   0.04411
           Y            0.51336  -0.57610   0.63606
           Z           -0.46515   0.43607   0.77037
 This molecule is an asymmetric top.
 Rotational symmetry number  1.
 Warning -- assumption of classical behavior for rotation
           may cause significant error
 Rotational temperatures (Kelvin)      0.00502     0.00325     0.00212
 Rotational constants (GHZ):           0.10460     0.06780     0.04417
 Zero-point vibrational energy     528404.0 (Joules/Mol)
                                  126.29160 (Kcal/Mol)
 Warning -- explicit consideration of  39 degrees of freedom as
           vibrations may cause significant error
 Vibrational temperatures:     27.00    33.41    36.98    64.47    68.23
          (Kelvin)             93.40   105.02   107.70   115.87   143.69
                              160.17   171.62   173.74   194.54   209.77
                              227.47   257.07   284.83   324.91   344.79
                              357.38   367.83   370.58   390.60   425.88
                              461.66   491.48   523.78   542.35   562.26
                              613.57   625.36   687.64   688.99   719.91
                              737.96   818.20   869.81   885.68   895.81
                              918.66   944.79   974.68   977.37   993.71
                             1013.62  1030.84  1067.61  1081.87  1091.84
                             1098.56  1102.20  1115.62  1157.95  1173.19
                             1275.52  1275.91  1281.00  1359.82  1370.13
                             1386.92  1412.89  1415.32  1488.21  1491.71
                             1550.94  1646.67  1649.16  1662.76  1664.91
                             1680.05  1748.68  1791.51  1807.40  1861.86
                             1887.93  1899.18  1906.71  1954.89  2022.81
                             2074.56  2089.74  2105.40  2108.94  2123.74
                             2142.83  2234.70  2241.48  2247.33  2249.13
                             2274.98  2302.43  2312.10  4498.18  4509.35
                             4526.79  4536.71  4554.45  4555.00

 Zero-point correction=                           0.201258 (Hartree/Particle)
 Thermal correction to Energy=                    0.227062
 Thermal correction to Enthalpy=                  0.228006
 Thermal correction to Gibbs Free Energy=         0.140480
 Sum of electronic and zero-point Energies=         -11438.843169
 Sum of electronic and thermal Energies=            -11438.817366
 Sum of electronic and thermal Enthalpies=          -11438.816421
 Sum of electronic and thermal Free Energies=       -11438.903948

                     E (Thermal)             CV                S
                      KCal/Mol        Cal/Mol-Kelvin    Cal/Mol-Kelvin
 Total                  142.483             92.651            184.215
 Electronic               0.000              0.000              0.000
 Translational            0.889              2.981             45.259
 Rotational               0.889              2.981             38.170
 Vibrational            140.706             86.689            100.785
 Vibration     1          0.593              1.986              6.760
 Vibration     2          0.593              1.985              6.338
 Vibration     3          0.593              1.985              6.136
 Vibration     4          0.595              1.979              5.034
 Vibration     5          0.595              1.979              4.922
 Vibration     6          0.597              1.971              4.302
 Vibration     7          0.599              1.967              4.071
 Vibration     8          0.599              1.966              4.022
 Vibration     9          0.600              1.962              3.878
 Vibration    10          0.604              1.949              3.457
 Vibration    11          0.607              1.940              3.246
 Vibration    12          0.609              1.933              3.112
 Vibration    13          0.609              1.932              3.088
 Vibration    14          0.613              1.918              2.871
 Vibration    15          0.617              1.907              2.726
 Vibration    16          0.621              1.894              2.572
 Vibration    17          0.629              1.869              2.342
 Vibration    18          0.637              1.843              2.152
 Vibration    19          0.650              1.802              1.912
 Vibration    20          0.657              1.780              1.806
 Vibration    21          0.662              1.765              1.742
 Vibration    22          0.666              1.753              1.691
 Vibration    23          0.667              1.750              1.678
 Vibration    24          0.675              1.726              1.587
 Vibration    25          0.690              1.681              1.439
 Vibration    26          0.706              1.634              1.306
 Vibration    27          0.721              1.592              1.205
 Vibration    28          0.738              1.546              1.105
 Vibration    29          0.748              1.519              1.051
 Vibration    30          0.758              1.490              0.997
 Vibration    31          0.788              1.413              0.870
 Vibration    32          0.795              1.395              0.844
 Vibration    33          0.834              1.299              0.716
 Vibration    34          0.835              1.297              0.713
 Vibration    35          0.856              1.249              0.657
 Vibration    36          0.868              1.221              0.627
 Vibration    37          0.925              1.099              0.507
 Vibration    38          0.963              1.022              0.442
 Vibration    39          0.975              0.999              0.424

 Optimization completed.
    -- Stationary point found.
 Normal termination of Gaussian 09 at Sat Feb 12 09:33:14 2022.
 Gaussian 09:  ES64L-G09RevE.01 30-Nov-2015

 ----------------------------------------------------------------------
 #p TPSSTPSS chkbasis geom=allcheck Guess=Read int=ultrafine scrf=(SMD,
 solvent=Acetonitrile) td=(NStates=30)
 ----------------------------------------------------------------------

 Structure from the checkpoint file:  "cp.chk"
 -----
 Title
 -----
 Charge = -2 Multiplicity = 1

                         Standard orientation:
 ---------------------------------------------------------------------
 Center     Atomic      Atomic             Coordinates (Angstroms)
 Number     Number       Type             X           Y           Z
 ---------------------------------------------------------------------
      1          6           0       -3.672808   -1.173284   -0.091028
      2          6           0       -2.345073   -1.757406   -0.024944
      3          6           0       -1.183194   -1.008810   -0.054101
      4          6           0       -1.213796    0.413154   -0.147055
      5          6           0       -2.493065    1.031433   -0.213604
      6          6           0       -3.637354    0.286230   -0.187539
      7          6           0       -0.000590    1.138601   -0.146617
      8          6           0        1.218391    0.423208   -0.144045
      9          6           0        1.200000   -0.999106   -0.054806
     10          6           0        2.368243   -1.738114   -0.029786
     11          6           0        3.690953   -1.141812   -0.088931
     12          6           0        3.642764    0.318038   -0.173745
     13          6           0        2.492200    1.053174   -0.200881
     14          1           0       -2.541904    2.112866   -0.281942
     15          1           0        2.531606    2.135438   -0.261297
     16          8           0        0.011211   -1.677983    0.009341
     17          8           0        4.753583   -1.799217   -0.072621
     18          8           0       -4.729265   -1.840469   -0.071959
     19          6           0       -0.005717    2.613566   -0.395920
     20          6           0        0.021179    3.041800   -1.733864
     21          6           0       -0.039355    3.569248    0.636731
     22          6           0        0.016939    4.400258   -2.050437
     23          1           0        0.045904    2.301563   -2.530146
     24          6           0       -0.045734    4.929636    0.300548
     25          6           0       -0.016618    5.351194   -1.027422
     26          1           0        0.039445    4.711104   -3.091973
     27          1           0       -0.073384    5.646450    1.116922
     28          1           0       -0.019892    6.412069   -1.266311
     29          6           0       -0.064914    3.143732    2.107340
     30          8           0       -0.131311    4.058095    2.972368
     31          8           0       -0.013966    1.894517    2.313161
     32         35           0       -2.250745   -3.655977    0.099074
     33         35           0        2.290628   -3.638509    0.078024
     34         35           0        5.332651    1.217479   -0.251766
     35         35           0       -5.335349    1.169365   -0.284388
 ---------------------------------------------------------------------

 SCF Done:  E(RTPSS-TPSS) =  -11439.0443390     A.U. after    9 cycles

 Excitation energies and oscillator strengths:

 Excited State   1:      Singlet-A      2.3110 eV  536.49 nm  f=0.0267  <S**2>=0.000
     152 -> 155       -0.31177
     153 -> 155        0.62917
 This state for optimization and/or second-order correction.
 Total Energy, E(TD-HF/TD-KS) =  -11438.9594102
 Copying the excited state density for this state as the 1-particle RhoCI density.

 Excited State   2:      Singlet-A      2.5593 eV  484.44 nm  f=0.5802  <S**2>=0.000
     148 -> 155        0.13582
     154 -> 155        0.68514

 Excited State   3:      Singlet-A      2.6537 eV  467.22 nm  f=0.0695  <S**2>=0.000
     152 -> 155        0.62737
     153 -> 155        0.30348

 Excited State   4:      Singlet-A      2.7833 eV  445.46 nm  f=0.0001  <S**2>=0.000
     150 -> 155        0.70694

 Excited State   5:      Singlet-A      2.8096 eV  441.30 nm  f=0.0113  <S**2>=0.000
     151 -> 155        0.69323

 Excited State   6:      Singlet-A      2.8571 eV  433.95 nm  f=0.0004  <S**2>=0.000
     149 -> 155        0.70297

 Excited State   7:      Singlet-A      2.9161 eV  425.17 nm  f=0.0672  <S**2>=0.000
     148 -> 155        0.69236
     154 -> 155       -0.12784

 Excited State   8:      Singlet-A      3.0913 eV  401.07 nm  f=0.0170  <S**2>=0.000
     154 -> 156        0.69633

 Excited State   9:      Singlet-A      3.2829 eV  377.67 nm  f=0.0002  <S**2>=0.000
     153 -> 156        0.70625

 Excited State  10:      Singlet-A      3.3729 eV  367.59 nm  f=0.0142  <S**2>=0.000
     154 -> 157        0.66824
     154 -> 158       -0.20444

 Excited State  11:      Singlet-A      3.4858 eV  355.69 nm  f=0.0363  <S**2>=0.000
     146 -> 155        0.69753

 Excited State  12:      Singlet-A      3.5250 eV  351.73 nm  f=0.0003  <S**2>=0.000
     153 -> 157        0.70198

 Excited State  13:      Singlet-A      3.5929 eV  345.08 nm  f=0.0002  <S**2>=0.000
     145 -> 155        0.28168
     147 -> 155       -0.10104
     154 -> 158        0.22477
     154 -> 159        0.59541

 Excited State  14:      Singlet-A      3.5978 eV  344.61 nm  f=0.0012  <S**2>=0.000
     145 -> 155        0.60217
     147 -> 155       -0.19586
     154 -> 159       -0.29433

 Excited State  15:      Singlet-A      3.6383 eV  340.78 nm  f=0.0036  <S**2>=0.000
     145 -> 155        0.23457
     147 -> 155        0.60581
     154 -> 158       -0.13316
     154 -> 162       -0.18751

 Excited State  16:      Singlet-A      3.6549 eV  339.23 nm  f=0.0041  <S**2>=0.000
     152 -> 156        0.69570

 Excited State  17:      Singlet-A      3.7250 eV  332.85 nm  f=0.0005  <S**2>=0.000
     144 -> 155        0.70064

 Excited State  18:      Singlet-A      3.7417 eV  331.36 nm  f=0.0309  <S**2>=0.000
     153 -> 159       -0.20369
     153 -> 161       -0.12210
     154 -> 157        0.12495
     154 -> 158        0.44893
     154 -> 159       -0.15857
     154 -> 160        0.40268

 Excited State  19:      Singlet-A      3.7584 eV  329.89 nm  f=0.0046  <S**2>=0.000
     153 -> 158        0.64658
     153 -> 159        0.11797
     154 -> 158        0.15383
     154 -> 161       -0.11767

 Excited State  20:      Singlet-A      3.7660 eV  329.22 nm  f=0.0079  <S**2>=0.000
     153 -> 158       -0.16036
     153 -> 159        0.62296
     154 -> 158        0.20914

 Excited State  21:      Singlet-A      3.7844 eV  327.62 nm  f=0.0167  <S**2>=0.000
     151 -> 156        0.32163
     153 -> 159        0.22452
     154 -> 158       -0.22247
     154 -> 160        0.49457

 Excited State  22:      Singlet-A      3.7862 eV  327.47 nm  f=0.0182  <S**2>=0.000
     151 -> 156        0.59119
     152 -> 157        0.10022
     153 -> 158       -0.15211
     154 -> 158        0.13318
     154 -> 160       -0.24940

 Excited State  23:      Singlet-A      3.8667 eV  320.64 nm  f=0.0087  <S**2>=0.000
     152 -> 157        0.66433
     154 -> 161       -0.19525

 Excited State  24:      Singlet-A      3.8681 eV  320.53 nm  f=0.0005  <S**2>=0.000
     150 -> 156        0.70475

 Excited State  25:      Singlet-A      3.9363 eV  314.98 nm  f=0.0002  <S**2>=0.000
     149 -> 156        0.63892
     153 -> 160        0.25715
     154 -> 161        0.12923

 Excited State  26:      Singlet-A      3.9427 eV  314.46 nm  f=0.0015  <S**2>=0.000
     149 -> 156       -0.27858
     153 -> 160        0.63755

 Excited State  27:      Singlet-A      3.9603 eV  313.07 nm  f=0.0193  <S**2>=0.000
     149 -> 156       -0.11206
     151 -> 157        0.10440
     152 -> 157        0.17140
     152 -> 158       -0.15461
     153 -> 158        0.12906
     153 -> 160       -0.12734
     154 -> 160        0.10218
     154 -> 161        0.58566

 Excited State  28:      Singlet-A      3.9984 eV  310.08 nm  f=0.0000  <S**2>=0.000
     143 -> 155        0.70667

 Excited State  29:      Singlet-A      4.0263 eV  307.94 nm  f=0.0569  <S**2>=0.000
     153 -> 161        0.66401
     154 -> 158        0.14352

 Excited State  30:      Singlet-A      4.0580 eV  305.53 nm  f=0.0257  <S**2>=0.000
     151 -> 157        0.62995
     151 -> 158       -0.17102
     152 -> 158        0.23451

 The electronic state is 1-A.
 Alpha  occ. eigenvalues -- -481.71419-481.71419-481.71282-481.71280 -61.93103
 Alpha  occ. eigenvalues --  -61.93103 -61.92954 -61.92952 -55.76603 -55.76603
 Alpha  occ. eigenvalues --  -55.76468 -55.76465 -55.76209 -55.76209 -55.76185
 Alpha  occ. eigenvalues --  -55.76185 -55.76061 -55.76058 -55.76028 -55.76025
 Alpha  occ. eigenvalues --  -18.94576 -18.82513 -18.82513 -18.80507 -18.79994
 Alpha  occ. eigenvalues --  -10.05956 -10.05955 -10.04287 -10.04287 -10.04110
 Alpha  occ. eigenvalues --  -10.02459 -10.02385 -10.02379 -10.01931 -10.01929
 Alpha  occ. eigenvalues --   -9.99737  -9.99726  -9.99691  -9.99344  -9.99336
 Alpha  occ. eigenvalues --   -9.98528  -9.98375  -9.98194  -9.98176  -9.97775
 Alpha  occ. eigenvalues --   -8.46180  -8.46179  -8.46028  -8.46025  -6.30722
 Alpha  occ. eigenvalues --   -6.30722  -6.30606  -6.30603  -6.29547  -6.29547
 Alpha  occ. eigenvalues --   -6.29469  -6.29468  -6.29391  -6.29389  -6.29283
 Alpha  occ. eigenvalues --   -6.29281  -2.47338  -2.47337  -2.47213  -2.47210
 Alpha  occ. eigenvalues --   -2.47049  -2.47048  -2.46997  -2.46996  -2.46919
 Alpha  occ. eigenvalues --   -2.46916  -2.46846  -2.46843  -2.46116  -2.46116
 Alpha  occ. eigenvalues --   -2.46115  -2.46114  -2.45936  -2.45934  -2.45933
 Alpha  occ. eigenvalues --   -2.45931  -1.03206  -0.92794  -0.92164  -0.92147
 Alpha  occ. eigenvalues --   -0.84484  -0.80922  -0.80194  -0.78521  -0.75358
 Alpha  occ. eigenvalues --   -0.75076  -0.74183  -0.71631  -0.69937  -0.68429
 Alpha  occ. eigenvalues --   -0.67688  -0.67115  -0.64615  -0.64487  -0.59158
 Alpha  occ. eigenvalues --   -0.57789  -0.56346  -0.55365  -0.52780  -0.52292
 Alpha  occ. eigenvalues --   -0.48784  -0.48692  -0.47251  -0.46130  -0.43026
 Alpha  occ. eigenvalues --   -0.42858  -0.41994  -0.40679  -0.40518  -0.40267
 Alpha  occ. eigenvalues --   -0.39148  -0.38550  -0.37318  -0.36885  -0.36538
 Alpha  occ. eigenvalues --   -0.36414  -0.36123  -0.34899  -0.34810  -0.34453
 Alpha  occ. eigenvalues --   -0.33825  -0.33260  -0.32989  -0.31799  -0.31393
 Alpha  occ. eigenvalues --   -0.31152  -0.30757  -0.29879  -0.29136  -0.28779
 Alpha  occ. eigenvalues --   -0.28340  -0.27434  -0.25917  -0.25355  -0.24491
 Alpha  occ. eigenvalues --   -0.24385  -0.23947  -0.23493  -0.22479  -0.22033
 Alpha  occ. eigenvalues --   -0.21200  -0.21020  -0.19412  -0.19165  -0.18900
 Alpha  occ. eigenvalues --   -0.18505  -0.17950  -0.16685  -0.15960
 Alpha virt. eigenvalues --   -0.08810  -0.04704  -0.03755  -0.02894  -0.02862
 Alpha virt. eigenvalues --   -0.02215  -0.02082  -0.01055   0.00292   0.01018
 Alpha virt. eigenvalues --    0.04074   0.05421   0.05938   0.06537   0.07195

 Mulliken charges:
               1
     1  C    0.100050
     2  C   -0.141609
     3  C    0.202337
     4  C    0.061955
     5  C   -0.305595
     6  C    0.064434
     7  C    0.415560
     8  C    0.061629
     9  C    0.206675
    10  C   -0.144329
    11  C    0.101664
    12  C    0.062576
    13  C   -0.304730
    14  H    0.145563
    15  H    0.145378
    16  O   -0.183959
    17  O   -0.410148
    18  O   -0.410040
    19  C   -0.141433
    20  C   -0.256369
    21  C    0.007466
    22  C   -0.113806
    23  H    0.117314
    24  C   -0.191869
    25  C   -0.143476
    26  H    0.136507
    27  H    0.116814
    28  H    0.134024
    29  C    0.248285
    30  O   -0.498495
    31  O   -0.489156
    32  Br  -0.139022
    33  Br  -0.139132
    34  Br  -0.157508
    35  Br  -0.157553
 Sum of Mulliken charges =  -2.00000

 Dipole moment (field-independent basis, Debye):
    X=              0.2492    Y=              0.4337    Z=            -11.6936  Tot=             11.7043
 Quadrupole moment (field-independent basis, Debye-Ang):
   XX=           -350.8443   YY=           -280.7543   ZZ=           -248.6585
   XY=              0.9226   XZ=              0.8481   YZ=            -38.7746

 Normal termination of Gaussian 09 at Sat Feb 12 13:24:26 2022.
