                         Program Version 5.0.2 -  RELEASE  -
|  1> %maxcore 3200
|  2> %pal
|  3>  nprocs= 8
|  4> end
|  5> ! RI-B2PLYP D3BJ def2-TZVP def2/J def2-TZVP/C RIJCOSX CPCM TightSCF
|  6> %TDDFT DCORR 4
|  7>    NROOTS   30
|  8>   TDA      FALSE
|  9> END
| 10>
| 11>  %CPCM
| 12>    SMD          TRUE
| 13>    SMDsolvent   "ACETONITRILE"
| 14>  END
| 15>
| 16>
| 17> * xyz -2 1
| 18> C                  -3.61009600   -1.22547600   -0.10047400
| 19> C                  -2.28157200   -1.78732300   -0.04367800
| 20> C                  -1.14147600   -1.01942300   -0.07793700
| 21> C                  -1.19740200    0.39332000   -0.17183100
| 22> C                  -2.48014600    0.98582800   -0.22828100
| 23> C                  -3.60743700    0.22874000   -0.19442200
| 24> C                  -0.00374900    1.13013300   -0.18342200
| 25> C                   1.21890500    0.44334400   -0.16235200
| 26> C                   1.22168200   -0.97058000   -0.06966600
| 27> C                   2.39282500   -1.69007500   -0.02658500
| 28> C                   3.69676800   -1.07176300   -0.06393600
| 29> C                   3.63353600    0.38169500   -0.14847000
| 30> C                   2.47584800    1.09034200   -0.19499700
| 31> H                  -2.54584500    2.06402300   -0.29595800
| 32> H                   2.49611900    2.17094400   -0.25162800
| 33> O                   0.05374200   -1.65855700   -0.02115800
| 34> O                   4.76055000   -1.70480200   -0.02845600
| 35> O                  -4.64606200   -1.90363500   -0.07574000
| 36> C                  -0.03296600    2.59655400   -0.41280600
| 37> C                   0.07757000    3.03118300   -1.73518900
| 38> C                  -0.18215500    3.53709900    0.61364800
| 39> C                   0.04654700    4.38066900   -2.04761900
| 40> H                   0.18849700    2.29621500   -2.52456800
| 41> C                  -0.21802200    4.88879200    0.27750000
| 42> C                  -0.10177400    5.31702400   -1.03394000
| 43> H                   0.13728900    4.69664900   -3.07946700
| 44> H                  -0.33801300    5.59639400    1.08877900
| 45> H                  -0.12615100    6.37446700   -1.26794500
| 46> C                  -0.29027500    3.11699500    2.07522800
| 47> O                  -0.56159700    4.01615200    2.90065900
| 48> O                  -0.08619500    1.90139800    2.30893700
| 49> Br                 -2.14595200   -3.66828500    0.07735400
| 50> Br                  2.33728900   -3.57573000    0.08332600
| 51> Br                  5.29813400    1.29255000   -0.19218900
| 52> Br                 -5.30875900    1.06730400   -0.27614200
| 53> *
| 54>
| 55>
| 56>                          ****END OF INPUT****

CARTESIAN COORDINATES (ANGSTROEM)
---------------------------------
  C     -3.610096   -1.225476   -0.100474
  C     -2.281572   -1.787323   -0.043678
  C     -1.141476   -1.019423   -0.077937
  C     -1.197402    0.393320   -0.171831
  C     -2.480146    0.985828   -0.228281
  C     -3.607437    0.228740   -0.194422
  C     -0.003749    1.130133   -0.183422
  C      1.218905    0.443344   -0.162352
  C      1.221682   -0.970580   -0.069666
  C      2.392825   -1.690075   -0.026585
  C      3.696768   -1.071763   -0.063936
  C      3.633536    0.381695   -0.148470
  C      2.475848    1.090342   -0.194997
  H     -2.545845    2.064023   -0.295958
  H      2.496119    2.170944   -0.251628
  O      0.053742   -1.658557   -0.021158
  O      4.760550   -1.704802   -0.028456
  O     -4.646062   -1.903635   -0.075740
  C     -0.032966    2.596554   -0.412806
  C      0.077570    3.031183   -1.735189
  C     -0.182155    3.537099    0.613648
  C      0.046547    4.380669   -2.047619
  H      0.188497    2.296215   -2.524568
  C     -0.218022    4.888792    0.277500
  C     -0.101774    5.317024   -1.033940
  H      0.137289    4.696649   -3.079467
  H     -0.338013    5.596394    1.088779
  H     -0.126151    6.374467   -1.267945
  C     -0.290275    3.116995    2.075228
  O     -0.561597    4.016152    2.900659
  O     -0.086195    1.901398    2.308937
  Br    -2.145952   -3.668285    0.077354
  Br     2.337289   -3.575730    0.083326
  Br     5.298134    1.292550   -0.192189
  Br    -5.308759    1.067304   -0.276142

 Total Charge           Charge          ....   -2
 Multiplicity           Mult            ....    1
 Number of Electrons    NEL             ....  308
 Basis Dimension        Dim             .... 1003

ORBITAL ENERGIES
----------------

  NO   OCC          E(Eh)            E(eV)
   0   2.0000    -485.840143    -13220.3824
   1   2.0000    -485.840026    -13220.3792
   2   2.0000    -485.837155    -13220.3011
   3   2.0000    -485.837091    -13220.2994
   4   2.0000     -63.591561     -1730.4143
   5   2.0000     -63.591439     -1730.4110
   6   2.0000     -63.588439     -1730.3294
   7   2.0000     -63.588364     -1730.3274
   8   2.0000     -57.214827     -1556.8946
   9   2.0000     -57.214705     -1556.8913
  10   2.0000     -57.213117     -1556.8480
  11   2.0000     -57.213033     -1556.8458
  12   2.0000     -57.212996     -1556.8448
  13   2.0000     -57.212909     -1556.8424
  14   2.0000     -57.211793     -1556.8120
  15   2.0000     -57.211719     -1556.8100
  16   2.0000     -57.209949     -1556.7619
  17   2.0000     -57.209875     -1556.7599
  18   2.0000     -57.209862     -1556.7595
  19   2.0000     -57.209789     -1556.7575
  20   2.0000     -19.794263      -538.6293
  21   2.0000     -19.663044      -535.0586
  22   2.0000     -19.662868      -535.0538
  23   2.0000     -19.635706      -534.3147
  24   2.0000     -19.634595      -534.2845
  25   2.0000     -10.703013      -291.2438
  26   2.0000     -10.702825      -291.2387
  27   2.0000     -10.685616      -290.7704
  28   2.0000     -10.685475      -290.7666
  29   2.0000     -10.683280      -290.7068
  30   2.0000     -10.669458      -290.3307
  31   2.0000     -10.654453      -289.9224
  32   2.0000     -10.654407      -289.9212
  33   2.0000     -10.646758      -289.7130
  34   2.0000     -10.646640      -289.7098
  35   2.0000     -10.629611      -289.2464
  36   2.0000     -10.629488      -289.2431
  37   2.0000     -10.628542      -289.2173
  38   2.0000     -10.622485      -289.0525
  39   2.0000     -10.622467      -289.0520
  40   2.0000     -10.614087      -288.8240
  41   2.0000     -10.612495      -288.7807
  42   2.0000     -10.611701      -288.7591
  43   2.0000     -10.609936      -288.7110
  44   2.0000     -10.606306      -288.6123
  45   2.0000      -9.153008      -249.0660
  46   2.0000      -9.152892      -249.0629
  47   2.0000      -9.149932      -248.9823
  48   2.0000      -9.149839      -248.9798
  49   2.0000      -6.891897      -187.5381
  50   2.0000      -6.891782      -187.5349
  51   2.0000      -6.889064      -187.4610
  52   2.0000      -6.888967      -187.4583
  53   2.0000      -6.883250      -187.3028
  54   2.0000      -6.883128      -187.2994
  55   2.0000      -6.882860      -187.2921
  56   2.0000      -6.882738      -187.2888
  57   2.0000      -6.880155      -187.2185
  58   2.0000      -6.880065      -187.2161
  59   2.0000      -6.879480      -187.2002
  60   2.0000      -6.879396      -187.1979
  61   2.0000      -2.852298       -77.6150
  62   2.0000      -2.852191       -77.6121
  63   2.0000      -2.849520       -77.5394
  64   2.0000      -2.849428       -77.5369
  65   2.0000      -2.849413       -77.5365
  66   2.0000      -2.849286       -77.5330
  67   2.0000      -2.848964       -77.5242
  68   2.0000      -2.848833       -77.5207
  69   2.0000      -2.846547       -77.4585
  70   2.0000      -2.846452       -77.4559
  71   2.0000      -2.845789       -77.4379
  72   2.0000      -2.845705       -77.4356
  73   2.0000      -2.840510       -77.2942
  74   2.0000      -2.840496       -77.2938
  75   2.0000      -2.840384       -77.2908
  76   2.0000      -2.840377       -77.2906
  77   2.0000      -2.837142       -77.2026
  78   2.0000      -2.837135       -77.2024
  79   2.0000      -2.837056       -77.2002
  80   2.0000      -2.837055       -77.2002
  81   2.0000      -1.262233       -34.3471
  82   2.0000      -1.146549       -31.1992
  83   2.0000      -1.139630       -31.0109
  84   2.0000      -1.139375       -31.0040
  85   2.0000      -1.051931       -28.6245
  86   2.0000      -1.005786       -27.3688
  87   2.0000      -0.993880       -27.0448
  88   2.0000      -0.975528       -26.5455
  89   2.0000      -0.932662       -25.3790
  90   2.0000      -0.931102       -25.3366
  91   2.0000      -0.913899       -24.8685
  92   2.0000      -0.883477       -24.0406
  93   2.0000      -0.869512       -23.6606
  94   2.0000      -0.858051       -23.3487
  95   2.0000      -0.839224       -22.8364
  96   2.0000      -0.835848       -22.7446
  97   2.0000      -0.807759       -21.9803
  98   2.0000      -0.805284       -21.9129
  99   2.0000      -0.748301       -20.3623
 100   2.0000      -0.728473       -19.8228
 101   2.0000      -0.713165       -19.4062
 102   2.0000      -0.701566       -19.0906
 103   2.0000      -0.668972       -18.2037
 104   2.0000      -0.665282       -18.1032
 105   2.0000      -0.624387       -16.9904
 106   2.0000      -0.622730       -16.9453
 107   2.0000      -0.606392       -16.5008
 108   2.0000      -0.595469       -16.2035
 109   2.0000      -0.559724       -15.2309
 110   2.0000      -0.558550       -15.1989
 111   2.0000      -0.552141       -15.0245
 112   2.0000      -0.530034       -14.4230
 113   2.0000      -0.528304       -14.3759
 114   2.0000      -0.519941       -14.1483
 115   2.0000      -0.515296       -14.0219
 116   2.0000      -0.504953       -13.7405
 117   2.0000      -0.496757       -13.5175
 118   2.0000      -0.487475       -13.2649
 119   2.0000      -0.478285       -13.0148
 120   2.0000      -0.475929       -12.9507
 121   2.0000      -0.475107       -12.9283
 122   2.0000      -0.464378       -12.6364
 123   2.0000      -0.462123       -12.5750
 124   2.0000      -0.458314       -12.4714
 125   2.0000      -0.455065       -12.3829
 126   2.0000      -0.440629       -11.9901
 127   2.0000      -0.437779       -11.9126
 128   2.0000      -0.422991       -11.5102
 129   2.0000      -0.414589       -11.2815
 130   2.0000      -0.410266       -11.1639
 131   2.0000      -0.408629       -11.1194
 132   2.0000      -0.400336       -10.8937
 133   2.0000      -0.386383       -10.5140
 134   2.0000      -0.383628       -10.4390
 135   2.0000      -0.380538       -10.3550
 136   2.0000      -0.364554        -9.9200
 137   2.0000      -0.347545        -9.4572
 138   2.0000      -0.336920        -9.1681
 139   2.0000      -0.330488        -8.9930
 140   2.0000      -0.329023        -8.9532
 141   2.0000      -0.325045        -8.8449
 142   2.0000      -0.318617        -8.6700
 143   2.0000      -0.304895        -8.2966
 144   2.0000      -0.302334        -8.2269
 145   2.0000      -0.296027        -8.0553
 146   2.0000      -0.292437        -7.9576
 147   2.0000      -0.289554        -7.8792
 148   2.0000      -0.286556        -7.7976
 149   2.0000      -0.282717        -7.6931
 150   2.0000      -0.279271        -7.5993
 151   2.0000      -0.264157        -7.1881
 152   2.0000      -0.250152        -6.8070
 153   2.0000      -0.208471        -5.6728
 154   0.0000      -0.026062        -0.7092
 155   0.0000       0.028898         0.7864
 156   0.0000       0.040207         1.0941
 157   0.0000       0.052570         1.4305
 158   0.0000       0.060146         1.6366

MULLIKEN ATOMIC CHARGES
-----------------------
   0 C :    0.165459
   1 C :   -0.209036
   2 C :    0.287325
   3 C :    0.010325
   4 C :   -0.316078
   5 C :    0.007384
   6 C :    0.623528
   7 C :    0.013395
   8 C :    0.321591
   9 C :   -0.227644
  10 C :    0.178029
  11 C :   -0.005705
  12 C :   -0.298904
  13 H :    0.178791
  14 H :    0.178337
  15 O :   -0.270215
  16 O :   -0.493384
  17 O :   -0.493455
  18 C :   -0.076669
  19 C :   -0.332062
  20 C :   -0.099261
  21 C :   -0.124072
  22 H :    0.149541
  23 C :   -0.168060
  24 C :   -0.169359
  25 H :    0.157216
  26 H :    0.149960
  27 H :    0.154366
  28 C :    0.359914
  29 O :   -0.590397
  30 O :   -0.592123
  31 Br:   -0.110735
  32 Br:   -0.110265
  33 Br:   -0.123926
  34 Br:   -0.123811
Sum of atomic charges:   -2.0000000

LOEWDIN ATOMIC CHARGES
----------------------
   0 C :   -0.398616
   1 C :   -0.373644
   2 C :   -0.178598
   3 C :   -0.111239
   4 C :   -0.093779
   5 C :   -0.372528
   6 C :    0.044074
   7 C :   -0.111811
   8 C :   -0.178451
   9 C :   -0.373827
  10 C :   -0.398521
  11 C :   -0.372883
  12 C :   -0.094400
  13 H :    0.166050
  14 H :    0.165626
  15 O :    0.363877
  16 O :   -0.040525
  17 O :   -0.040829
  18 C :   -0.064283
  19 C :   -0.098880
  20 C :   -0.089527
  21 C :   -0.140571
  22 H :    0.158520
  23 C :   -0.107183
  24 C :   -0.145923
  25 H :    0.151563
  26 H :    0.153045
  27 H :    0.149977
  28 C :   -0.603300
  29 O :   -0.125364
  30 O :   -0.091300
  31 Br:    0.323081
  32 Br:    0.323235
  33 Br:    0.303689
  34 Br:    0.303247

  Mayer bond orders larger than 0.100000
B(  0-C ,  1-C ) :   1.0467 B(  0-C ,  5-C ) :   1.0384 B(  0-C , 17-O ) :   2.1697
B(  1-C ,  2-C ) :   1.4363 B(  1-C , 17-O ) :  -0.1154 B(  1-C , 31-Br) :   1.1816
B(  2-C ,  3-C ) :   1.2961 B(  2-C , 15-O ) :   1.0943 B(  2-C , 31-Br) :  -0.1103
B(  3-C ,  4-C ) :   1.2104 B(  3-C ,  6-C ) :   1.1793 B(  4-C ,  5-C ) :   1.5808
B(  4-C , 13-H ) :   0.9512 B(  5-C , 17-O ) :  -0.1160 B(  5-C , 34-Br) :   1.0461
B(  6-C ,  7-C ) :   1.1755 B(  6-C , 18-C ) :   0.4757 B(  6-C , 19-C ) :  -0.1259
B(  7-C ,  8-C ) :   1.2737 B(  7-C , 12-C ) :   1.2049 B(  8-C ,  9-C ) :   1.4211
B(  8-C , 15-O ) :   1.0947 B(  8-C , 32-Br) :  -0.1116 B(  9-C , 10-C ) :   1.0420
B(  9-C , 16-O ) :  -0.1147 B(  9-C , 32-Br) :   1.1862 B( 10-C , 11-C ) :   1.0376
B( 10-C , 16-O ) :   2.1660 B( 11-C , 12-C ) :   1.5799 B( 11-C , 16-O ) :  -0.1137
B( 11-C , 33-Br) :   1.0474 B( 12-C , 14-H ) :   0.9507 B( 18-C , 19-C ) :   1.4725
B( 18-C , 20-C ) :   1.3833 B( 19-C , 21-C ) :   1.4332 B( 19-C , 22-H ) :   0.9976
B( 20-C , 23-C ) :   1.4320 B( 20-C , 28-C ) :   0.8793 B( 20-C , 29-O ) :  -0.2029
B( 21-C , 24-C ) :   1.3703 B( 21-C , 25-H ) :   0.9838 B( 23-C , 24-C ) :   1.3955
B( 23-C , 26-H ) :   0.9706 B( 24-C , 27-H ) :   0.9868 B( 28-C , 29-O ) :   1.8819
B( 28-C , 30-O ) :   1.7768

MP2 TOTAL ENERGY:   -11436.826900845 Eh

-----------------------------------------------------------------------------
         ABSORPTION SPECTRUM VIA TRANSITION ELECTRIC DIPOLE MOMENTS
-----------------------------------------------------------------------------
State   Energy    Wavelength  fosc         T2        TX        TY        TZ
        (cm-1)      (nm)                 (au**2)    (au)      (au)      (au)
-----------------------------------------------------------------------------
   1   20766.2    481.6   0.856520836  13.57867   3.68362   0.09446   0.02645
   2   25967.4    385.1   0.011532459   0.14621  -0.01841   0.38187   0.00640
   3   28071.5    356.2   0.023461780   0.27515   0.03973  -0.48563  -0.19425
   4   32706.2    305.8   0.028123144   0.28308   0.46698  -0.25351   0.02721
   5   30106.0    332.2   0.242099468   2.64738  -0.08027   1.62475   0.03337
   6   30359.7    329.4   0.135779303   1.47235  -0.05872  -1.21195  -0.00918
   7   29319.2    341.1   0.000317945   0.00357   0.00184   0.05850  -0.01200
   8   33235.9    300.9   0.021479069   0.21276   0.12816  -0.44144   0.03823
   9   34239.6    292.1   0.006437106   0.06189   0.01094   0.24751   0.02257
  10   36011.4    277.7   0.000189639   0.00173   0.02440   0.03372   0.00104
  11   35121.1    284.7   0.000428845   0.00402  -0.05050  -0.00349   0.03818
  12   35653.9    280.5   0.005947795   0.05492   0.06229   0.20598   0.09279
  13   34988.2    285.8   0.009230981   0.08686  -0.09781  -0.25652  -0.10717
  14   33969.2    294.4   0.002212148   0.02144   0.10375  -0.06584  -0.07962
  15   31738.4    315.1   0.004426908   0.04592   0.13106   0.16935   0.00802
  16   33601.4    297.6   0.039335259   0.38539   0.01431   0.58869  -0.19655
  17   35806.0    279.3   0.001016605   0.00935   0.06801  -0.00044  -0.06871
  18   37293.9    268.1   0.041024629   0.36214   0.06063  -0.59037   0.09966
  19   35097.2    284.9   0.000400974   0.00376  -0.02740  -0.03340   0.04353
  20   42089.0    237.6   0.000174145   0.00136   0.02264  -0.02906   0.00232
  21   34139.8    292.9   0.000608455   0.00587   0.04288   0.02123   0.05981
  22   42166.2    237.2   0.000261954   0.00205  -0.02953  -0.02011  -0.02773
  23   38909.3    257.0   0.002204406   0.01865   0.01139  -0.13427   0.02224
  24   40842.1    244.8   0.817890473   6.59268   2.56475   0.06494   0.10264
  25   46251.2    216.2   0.086239772   0.61385   0.38565   0.11290  -0.67259
  26   40331.0    247.9   0.000003844   0.00003   0.00166  -0.00513   0.00152
  27   40755.4    245.4   0.003346784   0.02703   0.09640   0.08394  -0.10341
  28   42679.2    234.3   0.164072655   1.26560   0.26493  -1.08999   0.08564
  29   41788.1    239.3   0.000087196   0.00069  -0.00109   0.00153   0.02614
  30   42300.2    236.4   0.013672388   0.10641  -0.23515   0.22595   0.00763

Dispersion correction           -0.055865489
FINAL SINGLE POINT ENERGY    -11435.024844434960

DIPOLE MOMENT
-------------
                                X             Y             Z
Electronic contribution:      2.23407     -63.55782      -2.16523
Nuclear contribution   :     -1.76550      63.66252      -2.85258
                        -----------------------------------------
Total Dipole Moment    :      0.46857       0.10469      -5.01781
                        -----------------------------------------
Magnitude (a.u.)       :      5.04073
Magnitude (Debye)      :     12.81251

Rotational constants in cm-1:     0.003520     0.002272     0.001480
Rotational constants in MHz :   105.521627    68.099067    44.374263

                             ****ORCA TERMINATED NORMALLY****
TOTAL RUN TIME: 0 days 1 hours 50 minutes 19 seconds 526 msec
