 Gaussian 09, Revision E.01,

 ----------------------------------------------------------------------
 #p cam-b3lyp/def2TZVP opt freq=noraman nosymm int=ultrafine scrf=(SMD,
 solvent=Acetonitrile) EmpiricalDispersion=GD3BJ
 ----------------------------------------------------------------------

 -----
 Title
 -----
 Symbolic Z-matrix:
 Charge = -2 Multiplicity = 1

 SCF Done:  E(RCAM-B3LYP) =  -11439.2436106     A.U. after   15 cycles
 SCF Done:  E(RCAM-B3LYP) =  -11439.2517989     A.U. after   13 cycles
 SCF Done:  E(RCAM-B3LYP) =  -11439.2520947     A.U. after   12 cycles
 SCF Done:  E(RCAM-B3LYP) =  -11439.2416151     A.U. after   13 cycles
 SCF Done:  E(RCAM-B3LYP) =  -11439.2522250     A.U. after   10 cycles
 SCF Done:  E(RCAM-B3LYP) =  -11439.2523199     A.U. after   12 cycles
 SCF Done:  E(RCAM-B3LYP) =  -11439.2523496     A.U. after   11 cycles
 SCF Done:  E(RCAM-B3LYP) =  -11439.2523516     A.U. after   10 cycles
 SCF Done:  E(RCAM-B3LYP) =  -11439.2523558     A.U. after   11 cycles
 SCF Done:  E(RCAM-B3LYP) =  -11439.2523595     A.U. after   11 cycles
 SCF Done:  E(RCAM-B3LYP) =  -11439.2523438     A.U. after   13 cycles
 SCF Done:  E(RCAM-B3LYP) =  -11439.2471853     A.U. after   14 cycles
 SCF Done:  E(RCAM-B3LYP) =  -11439.2523645     A.U. after    7 cycles
 SCF Done:  E(RCAM-B3LYP) =  -11439.2523645     A.U. after    4 cycles
 SCF Done:  E(RCAM-B3LYP) =  -11439.2515357     A.U. after   13 cycles
 SCF Done:  E(RCAM-B3LYP) =  -11439.2523645     A.U. after    4 cycles
 SCF Done:  E(RCAM-B3LYP) =  -11439.2495021     A.U. after   13 cycles
 SCF Done:  E(RCAM-B3LYP) =  -11439.2523645     A.U. after    5 cycles
 Optimization completed.
    -- Stationary point found.
 Normal termination of Gaussian 09 at Sat Feb 12 16:02:55 2022.

 ----------------------------------------------------------------------
 #P Geom=AllCheck Guess=TCheck SCRF=Check GenChk RCAM-B3LYP/def2TZVP Fr
 eq
 ----------------------------------------------------------------------

 Structure from the checkpoint file:  "cp.chk"
 -----
 Title
 -----
 Charge = -2 Multiplicity = 1

 SCF Done:  E(RCAM-B3LYP) =  -11439.2523645     A.U. after    1 cycles

  Exact polarizability: 667.403  77.596 497.458 -77.840-171.033 470.014
 Approx polarizability: 549.928  40.802 437.329 -44.742-113.884 416.591

                      1                      2                      3
                      A                      A                      A
 Frequencies --     13.4718                22.3615                27.4356
 Red. masses --     11.4600                19.1523                46.9768
 Frc consts  --      0.0012                 0.0056                 0.0208
 IR Inten    --      9.0097                 1.0397                 0.0617

                      4                      5                      6
                      A                      A                      A
 Frequencies --     44.4582                46.6629                64.8277
 Red. masses --      7.3347                 9.0574                12.8355
 Frc consts  --      0.0085                 0.0116                 0.0318
 IR Inten    --      4.1515                 3.7451                 5.8663

                      7                      8                      9
                      A                      A                      A
 Frequencies --     69.2659                75.1653                79.6238
 Red. masses --     32.4847                17.8787                17.3373
 Frc consts  --      0.0918                 0.0595                 0.0648
 IR Inten    --      0.2763                 6.0412                 6.4618

                     10                     11                     12
                      A                      A                      A
 Frequencies --    106.9824               120.6648               128.8096
 Red. masses --     51.0791                 5.8890                19.9137
 Frc consts  --      0.3444                 0.0505                 0.1947
 IR Inten    --      0.9820                 2.9124                 4.0878

                     13                     14                     15
                      A                      A                      A
 Frequencies --    130.5503               139.6348               154.4597
 Red. masses --     15.7184                 8.9456                14.9409
 Frc consts  --      0.1578                 0.1028                 0.2100
 IR Inten    --     19.3338                 2.8240                 0.0711

                     16                     17                     18
                      A                      A                      A
 Frequencies --    168.6512               190.8564               210.6078
 Red. masses --      9.0400                12.0218                18.8066
 Frc consts  --      0.1515                 0.2580                 0.4915
 IR Inten    --      4.8279                16.7449                 3.1178

                     19                     20                     21
                      A                      A                      A
 Frequencies --    243.7594               254.9801               267.1353
 Red. masses --      9.4787                 9.3387                 8.0149
 Frc consts  --      0.3318                 0.3577                 0.3370
 IR Inten    --     21.4439                 0.1734                 2.3424

                     22                     23                     24
                      A                      A                      A
 Frequencies --    268.7818               277.3713               287.3311
 Red. masses --     14.8934                16.3301                 8.5897
 Frc consts  --      0.6339                 0.7402                 0.4178
 IR Inten    --      5.0376                11.2152                59.4495

                     25                     26                     27
                      A                      A                      A
 Frequencies --    312.3935               339.6429               361.2817
 Red. masses --      7.6254                12.7476                11.8795
 Frc consts  --      0.4384                 0.8664                 0.9136
 IR Inten    --      3.7223                 3.6477                 7.7192

                     28                     29                     30
                      A                      A                      A
 Frequencies --    380.2867               396.4539               414.2745
 Red. masses --     11.3226                10.2618                 9.4967
 Frc consts  --      0.9648                 0.9503                 0.9603
 IR Inten    --      1.4220                 7.0842                 8.9010

                     31                     32                     33
                      A                      A                      A
 Frequencies --    447.7950               456.8049               499.2037
 Red. masses --      3.7188                 9.1395                 6.0400
 Frc consts  --      0.4394                 1.1237                 0.8868
 IR Inten    --      0.9799               188.9894               234.6655

                     34                     35                     36
                      A                      A                      A
 Frequencies --    502.3842               525.5232               535.1070
 Red. masses --      4.4392                 3.9383                 7.1411
 Frc consts  --      0.6601                 0.6408                 1.2048
 IR Inten    --     22.0850                 0.5554                 5.6493

                     37                     38                     39
                      A                      A                      A
 Frequencies --    598.6554               637.0791               657.9183
 Red. masses --      5.5930                 8.3696                10.3593
 Frc consts  --      1.1810                 2.0014                 2.6420
 IR Inten    --    188.6118                 5.2643                80.7149

                     40                     41                     42
                      A                      A                      A
 Frequencies --    671.0558               673.3279               689.4800
 Red. masses --      7.4548                 7.2154                 7.8548
 Frc consts  --      1.9779                 1.9274                 2.2000
 IR Inten    --     28.8667                40.8560                29.4826

                     43                     44                     45
                      A                      A                      A
 Frequencies --    722.3816               726.7201               727.9290
 Red. masses --     12.2363                10.1871                 8.6524
 Frc consts  --      3.7621                 3.1698                 2.7012
 IR Inten    --     44.4675                 3.1907                 7.2860

                     46                     47                     48
                      A                      A                      A
 Frequencies --    739.2871               774.2860               785.0553
 Red. masses --      2.5618                 9.4051                 8.8660
 Frc consts  --      0.8249                 3.3221                 3.2194
 IR Inten    --    133.4312                32.3140                53.0470

                     49                     50                     51
                      A                      A                      A
 Frequencies --    798.4632               799.0331               810.5135
 Red. masses --      2.5328                 8.0427                 3.7364
 Frc consts  --      0.9514                 3.0254                 1.4462
 IR Inten    --     62.6719                27.2924                 5.8700

                     52                     53                     54
                      A                      A                      A
 Frequencies --    814.5253               825.5178               847.3918
 Red. masses --      9.2885                 7.1971                 9.1008
 Frc consts  --      3.6308                 2.8897                 3.8503
 IR Inten    --      0.9540                72.4538                73.0852

                     55                     56                     57
                      A                      A                      A
 Frequencies --    858.3216               930.5856               945.9811
 Red. masses --      3.1168                 1.6980                 1.4885
 Frc consts  --      1.3529                 0.8663                 0.7848
 IR Inten    --      0.6817                 8.1863                 6.8734

                     58                     59                     60
                      A                      A                      A
 Frequencies --    947.7314               992.1317              1001.3485
 Red. masses --      1.5060                 9.0948                 2.2651
 Frc consts  --      0.7970                 5.2745                 1.3381
 IR Inten    --     16.1123                13.2007               303.0518

                     61                     62                     63
                      A                      A                      A
 Frequencies --   1013.3433              1034.6876              1038.5894
 Red. masses --      2.5787                 1.3470                 6.2200
 Frc consts  --      1.5601                 0.8496                 3.9530
 IR Inten    --    539.3832                 0.6932                 2.3486

                     64                     65                     66
                      A                      A                      A
 Frequencies --   1074.7421              1090.1254              1117.2169
 Red. masses --      2.0516                 3.7646                 2.4567
 Frc consts  --      1.3962                 2.6359                 1.8067
 IR Inten    --     27.7295                99.8902                26.3274

                     67                     68                     69
                      A                      A                      A
 Frequencies --   1172.7691              1185.3358              1207.0041
 Red. masses --      1.1618                 2.1363                 4.0654
 Frc consts  --      0.9415                 1.7685                 3.4896
 IR Inten    --      2.8778                 7.4331                54.6383

                     70                     71                     72
                      A                      A                      A
 Frequencies --   1211.1597              1234.8236              1264.1781
 Red. masses --      7.4243                 2.9115                 3.5548
 Frc consts  --      6.4166                 2.6157                 3.3472
 IR Inten    --     91.5185                53.8244              1754.1767

                     73                     74                     75
                      A                      A                      A
 Frequencies --   1286.6631              1299.1815              1317.1307
 Red. masses --      1.9289                 3.5002                 4.1723
 Frc consts  --      1.8815                 3.4808                 4.2646
 IR Inten    --      7.6310                 3.7603                 0.2562

                     76                     77                     78
                      A                      A                      A
 Frequencies --   1356.1964              1373.6988              1398.1649
 Red. masses --      3.1026                 3.6375                 5.0079
 Frc consts  --      3.3622                 4.0443                 5.7679
 IR Inten    --     52.4523               681.3024              2040.0497

                     79                     80                     81
                      A                      A                      A
 Frequencies --   1408.7274              1477.3466              1489.7566
 Red. masses --     11.6401                 4.8255                 2.6454
 Frc consts  --     13.6101                 6.2052                 3.4592
 IR Inten    --    500.8721                53.7340                15.0211

                     82                     83                     84
                      A                      A                      A
 Frequencies --   1516.9534              1529.2559              1530.3725
 Red. masses --     10.2124                 3.4474                 9.0230
 Frc consts  --     13.8459                 4.7501                12.4508
 IR Inten    --   5655.0302                58.4755               357.3783

                     85                     86                     87
                      A                      A                      A
 Frequencies --   1555.0606              1561.5954              1624.8413
 Red. masses --     10.0541                 7.4287                 8.4021
 Frc consts  --     14.3248                10.6733                13.0695
 IR Inten    --    263.2084                46.4943              1194.6147

                     88                     89                     90
                      A                      A                      A
 Frequencies --   1640.4128              1646.5927              1659.0315
 Red. masses --      7.7305                11.9755                11.9752
 Frc consts  --     12.2564                19.1300                19.4197
 IR Inten    --    418.9586               346.1108               135.8917

                     91                     92                     93
                      A                      A                      A
 Frequencies --   1666.1438              1683.0336              1693.5279
 Red. masses --      7.3699                 8.2912                 9.0844
 Frc consts  --     12.0541                13.8373                15.3508
 IR Inten    --    378.3829               483.5281               115.0699

                     94                     95                     96
                      A                      A                      A
 Frequencies --   3190.4161              3198.0720              3212.1889
 Red. masses --      1.0873                 1.0912                 1.0960
 Frc consts  --      6.5208                 6.5753                 6.6628
 IR Inten    --      0.0054                12.8891                13.6812

                     97                     98                     99
                      A                      A                      A
 Frequencies --   3223.9827              3227.4347              3228.3082
 Red. masses --      1.0935                 1.0922                 1.0921
 Frc consts  --      6.6969                 6.7029                 6.7060
 IR Inten    --     11.3813                 2.7003                 2.2901

 - Thermochemistry -
 -------------------
 Temperature   298.150 Kelvin.  Pressure   1.00000 Atm.
 Atom     1 has atomic number  6 and mass  12.00000

 Molecular mass:   641.69487 amu.
 Principal axes and moments of inertia in atomic units:
                           1         2         3
     Eigenvalues --  ******************************
           X            0.72662   0.68533   0.04847
           Y            0.50432  -0.57996   0.63977
           Z           -0.46657   0.44042   0.76703
 This molecule is an asymmetric top.
 Rotational symmetry number  1.
 Warning -- assumption of classical behavior for rotation
           may cause significant error
 Rotational temperatures (Kelvin)      0.00510     0.00331     0.00216
 Rotational constants (GHZ):           0.10631     0.06906     0.04494
 Zero-point vibrational energy     551345.6 (Joules/Mol)
                                  131.77476 (Kcal/Mol)
 Warning -- explicit consideration of  37 degrees of freedom as
           vibrations may cause significant error
 Vibrational temperatures:     19.38    32.17    39.47    63.97    67.14
          (Kelvin)             93.27    99.66   108.15   114.56   153.92
                              173.61   185.33   187.83   200.90   222.23
                              242.65   274.60   303.02   350.72   366.86
                              384.35   386.72   399.07   413.40   449.46
                              488.67   519.80   547.15   570.41   596.05
                              644.28   657.24   718.24   722.82   756.11
                              769.90   861.33   916.61   946.60   965.50
                              968.77   992.01  1039.34  1045.59  1047.33
                             1063.67  1114.02  1129.52  1148.81  1149.63
                             1166.15  1171.92  1187.73  1219.21  1234.93
                             1338.90  1361.05  1363.57  1427.45  1440.72
                             1457.97  1488.68  1494.30  1546.31  1568.45
                             1607.42  1687.35  1705.43  1736.61  1742.59
                             1776.63  1818.87  1851.22  1869.23  1895.05
                             1951.26  1976.44  2011.64  2026.84  2125.57
                             2143.42  2182.55  2200.26  2201.86  2237.38
                             2246.78  2337.78  2360.19  2369.08  2386.97
                             2397.21  2421.51  2436.61  4590.29  4601.31
                             4621.62  4638.59  4643.55  4644.81

 Zero-point correction=                           0.209996 (Hartree/Particle)
 Thermal correction to Energy=                    0.234874
 Thermal correction to Enthalpy=                  0.235818
 Thermal correction to Gibbs Free Energy=         0.149800
 Sum of electronic and zero-point Energies=         -11439.042368
 Sum of electronic and thermal Energies=            -11439.017491
 Sum of electronic and thermal Enthalpies=          -11439.016547
 Sum of electronic and thermal Free Energies=       -11439.102565

                     E (Thermal)             CV                S
                      KCal/Mol        Cal/Mol-Kelvin    Cal/Mol-Kelvin
 Total                  147.386             89.197            181.041
 Electronic               0.000              0.000              0.000
 Translational            0.889              2.981             45.259
 Rotational               0.889              2.981             38.119
 Vibrational            145.608             83.235             97.662
 Vibration     1          0.593              1.987              7.419
 Vibration     2          0.593              1.985              6.413
 Vibration     3          0.593              1.984              6.007
 Vibration     4          0.595              1.980              5.050
 Vibration     5          0.595              1.979              4.954
 Vibration     6          0.597              1.971              4.305
 Vibration     7          0.598              1.969              4.174
 Vibration     8          0.599              1.966              4.013
 Vibration     9          0.600              1.963              3.900
 Vibration    10          0.606              1.944              3.323
 Vibration    11          0.609              1.932              3.090
 Vibration    12          0.611              1.924              2.964
 Vibration    13          0.612              1.923              2.938
 Vibration    14          0.615              1.914              2.809
 Vibration    15          0.620              1.898              2.617
 Vibration    16          0.625              1.881              2.450
 Vibration    17          0.634              1.852              2.219
 Vibration    18          0.643              1.825              2.038
 Vibration    19          0.659              1.773              1.775
 Vibration    20          0.665              1.754              1.696
 Vibration    21          0.672              1.733              1.615
 Vibration    22          0.673              1.731              1.604
 Vibration    23          0.678              1.715              1.550
 Vibration    24          0.685              1.697              1.490
 Vibration    25          0.701              1.650              1.350
 Vibration    26          0.720              1.596              1.214
 Vibration    27          0.735              1.552              1.117
 Vibration    28          0.750              1.512              1.038
 Vibration    29          0.763              1.478              0.976
 Vibration    30          0.778              1.439              0.912
 Vibration    31          0.807              1.366              0.802
 Vibration    32          0.815              1.346              0.775
 Vibration    33          0.855              1.252              0.660
 Vibration    34          0.858              1.245              0.652
 Vibration    35          0.880              1.194              0.597
 Vibration    36          0.890              1.172              0.576
 Vibration    37          0.957              1.035              0.452

 Normal termination of Gaussian 09 at Sat Feb 12 22:17:44 2022.
 Gaussian 09:  ES64L-G09RevE.01 30-Nov-2015

 ----------------------------------------------------------------------
 #p cam-b3lyp chkbasis geom=allcheck Guess=Read int=ultrafine scrf=(SMD
 ,solvent=Acetonitrile) td=(NStates=30) EmpiricalDispersion=GD3BJ
 ----------------------------------------------------------------------

 Structure from the checkpoint file:  "cp.chk"
 -----
 Title
 -----
 Charge = -2 Multiplicity = 1

                         Standard orientation:
 ---------------------------------------------------------------------
 Center     Atomic      Atomic             Coordinates (Angstroms)
 Number     Number       Type             X           Y           Z
 ---------------------------------------------------------------------
      1          6           0       -3.619146   -1.187579   -0.092227
      2          6           0       -2.300590   -1.768228   -0.040181
      3          6           0       -1.158330   -1.014138   -0.081446
      4          6           0       -1.199449    0.396475   -0.179449
      5          6           0       -2.476352    1.006134   -0.230602
      6          6           0       -3.604707    0.267969   -0.189273
      7          6           0       -0.002241    1.115120   -0.196115
      8          6           0        1.211027    0.424340   -0.174215
      9          6           0        1.202761   -0.986840   -0.078185
     10          6           0        2.362472   -1.713975   -0.034277
     11          6           0        3.667012   -1.101818   -0.076736
     12          6           0        3.618334    0.353595   -0.162617
     13          6           0        2.473106    1.064803   -0.209119
     14          1           0       -2.530756    2.082557   -0.300554
     15          1           0        2.501952    2.142806   -0.269192
     16          8           0        0.029705   -1.654986   -0.026855
     17          8           0        4.723560   -1.737484   -0.044476
     18          8           0       -4.660081   -1.848495   -0.061060
     19          6           0       -0.018600    2.586092   -0.415088
     20          6           0        0.039587    3.018908   -1.736971
     21          6           0       -0.097923    3.519235    0.617576
     22          6           0        0.023998    4.367432   -2.042448
     23          1           0        0.098013    2.285966   -2.531837
     24          6           0       -0.116650    4.870558    0.292078
     25          6           0       -0.053893    5.300180   -1.020480
     26          1           0        0.072029    4.686308   -3.075662
     27          1           0       -0.181627    5.578912    1.105984
     28          1           0       -0.066330    6.358518   -1.248046
     29          6           0       -0.159820    3.098681    2.086664
     30          8           0       -0.329066    4.009046    2.921235
     31          8           0       -0.030382    1.877917    2.312281
     32         35           0       -2.186088   -3.649638    0.085222
     33         35           0        2.293203   -3.598159    0.082453
     34         35           0        5.285810    1.258348   -0.210912
     35         35           0       -5.293117    1.132171   -0.262792
 ---------------------------------------------------------------------

 SCF Done:  E(RCAM-B3LYP) =  -11439.2522786     A.U. after    9 cycles

 Excitation energies and oscillator strengths:

 Excited State   1:      Singlet-A      2.9888 eV  414.83 nm  f=0.9251  <S**2>=0.000
     154 -> 155        0.69565
 This state for optimization and/or second-order correction.
 Total Energy, E(TD-HF/TD-KS) =  -11439.1424411
 Copying the excited state density for this state as the 1-particle RhoCI density.

 Excited State   2:      Singlet-A      3.8511 eV  321.94 nm  f=0.0171  <S**2>=0.000
     152 -> 155        0.27603
     153 -> 155        0.62542

 Excited State   3:      Singlet-A      4.0405 eV  306.85 nm  f=0.0620  <S**2>=0.000
     152 -> 155        0.58602
     153 -> 155       -0.28892
     154 -> 156        0.13465
     154 -> 158        0.10424

 Excited State   4:      Singlet-A      4.3872 eV  282.60 nm  f=0.0007  <S**2>=0.000
     146 -> 162        0.23350
     147 -> 155       -0.12799
     148 -> 155        0.11210
     149 -> 155        0.59926
     149 -> 168        0.10230
     150 -> 155       -0.10870

 Excited State   5:      Singlet-A      4.4520 eV  278.49 nm  f=0.2359  <S**2>=0.000
     146 -> 155       -0.16809
     147 -> 155       -0.18486
     152 -> 155       -0.20797
     154 -> 156        0.42399
     154 -> 157       -0.28378
     154 -> 158        0.29453

 Excited State   6:      Singlet-A      4.4607 eV  277.95 nm  f=0.0246  <S**2>=0.000
     146 -> 155        0.60329
     146 -> 168        0.12201
     149 -> 162        0.21804
     154 -> 156        0.13370

 Excited State   7:      Singlet-A      4.5642 eV  271.64 nm  f=0.0229  <S**2>=0.000
     145 -> 155       -0.11767
     147 -> 155       -0.12190
     148 -> 155       -0.33494
     150 -> 155        0.37622
     152 -> 162        0.10048
     153 -> 156       -0.10305
     153 -> 158       -0.10945
     154 -> 160        0.36966

 Excited State   8:      Singlet-A      4.7262 eV  262.33 nm  f=0.0205  <S**2>=0.000
     144 -> 155       -0.13537
     145 -> 155       -0.22433
     148 -> 155        0.24579
     150 -> 155        0.39929
     152 -> 156       -0.25357
     153 -> 156        0.20254
     154 -> 160       -0.16483

 Excited State   9:      Singlet-A      4.7659 eV  260.15 nm  f=0.0037  <S**2>=0.000
     145 -> 155       -0.12480
     148 -> 155        0.14202
     150 -> 155        0.15605
     152 -> 156        0.20601
     153 -> 156       -0.14735
     153 -> 157       -0.12133
     153 -> 161       -0.16282
     154 -> 157        0.10666
     154 -> 159        0.46618

 Excited State  10:      Singlet-A      4.7801 eV  259.38 nm  f=0.0010  <S**2>=0.000
     150 -> 155       -0.12962
     152 -> 156       -0.22580
     153 -> 156        0.13017
     153 -> 159        0.12294
     153 -> 161       -0.13469
     154 -> 156       -0.16030
     154 -> 157       -0.26031
     154 -> 159        0.36865
     154 -> 161       -0.21284

 Excited State  11:      Singlet-A      4.7874 eV  258.98 nm  f=0.0027  <S**2>=0.000
     148 -> 155       -0.16585
     152 -> 156       -0.22653
     153 -> 156        0.14646
     153 -> 159       -0.16928
     154 -> 156        0.22033
     154 -> 157        0.31659
     154 -> 159        0.15372
     154 -> 161        0.28947

 Excited State  12:      Singlet-A      4.8440 eV  255.95 nm  f=0.0252  <S**2>=0.000
     150 -> 155       -0.13777
     151 -> 155        0.65636
     154 -> 160        0.11267

 Excited State  13:      Singlet-A      4.9080 eV  252.62 nm  f=0.0018  <S**2>=0.000
     144 -> 155       -0.11227
     148 -> 155        0.38743
     149 -> 155       -0.12908
     150 -> 155       -0.16144
     151 -> 155       -0.13388
     153 -> 157        0.10397
     153 -> 158       -0.10936
     154 -> 160        0.42793
     154 -> 161        0.11537

 Excited State  14:      Singlet-A      4.9676 eV  249.59 nm  f=0.0035  <S**2>=0.000
     144 -> 155        0.40532
     145 -> 155        0.27193
     147 -> 155        0.26551
     148 -> 155        0.23421
     149 -> 155        0.15960
     150 -> 155        0.24679

 Excited State  15:      Singlet-A      4.9725 eV  249.34 nm  f=0.0092  <S**2>=0.000
     145 -> 155       -0.11582
     147 -> 155        0.23908
     151 -> 156        0.12497
     153 -> 159        0.15344
     154 -> 156        0.36322
     154 -> 157        0.17890
     154 -> 158       -0.22438
     154 -> 160        0.12265
     154 -> 161       -0.31946

 Excited State  16:      Singlet-A      5.0155 eV  247.20 nm  f=0.0008  <S**2>=0.000
     147 -> 156        0.20185
     151 -> 156        0.53070
     151 -> 157        0.19825
     151 -> 158       -0.15706
     151 -> 172       -0.15023

 Excited State  17:      Singlet-A      5.0951 eV  243.34 nm  f=0.1531  <S**2>=0.000
     144 -> 155       -0.14139
     145 -> 155       -0.23059
     147 -> 155        0.48918
     148 -> 155       -0.14460
     154 -> 157       -0.26694
     154 -> 161        0.15957

 Excited State  18:      Singlet-A      5.1837 eV  239.18 nm  f=0.0022  <S**2>=0.000
     144 -> 155        0.48217
     145 -> 155       -0.46676
     150 -> 155       -0.11815

 Excited State  19:      Singlet-A      5.2806 eV  234.79 nm  f=0.0304  <S**2>=0.000
     154 -> 156       -0.16284
     154 -> 157        0.27354
     154 -> 158        0.53733
     154 -> 161       -0.23514
     154 -> 162       -0.10032

 Excited State  20:      Singlet-A      5.3692 eV  230.92 nm  f=0.0009  <S**2>=0.000
     144 -> 156        0.41595
     144 -> 157        0.15847
     145 -> 157       -0.30823
     145 -> 158       -0.20693
     149 -> 156        0.13811
     149 -> 157       -0.10365
     149 -> 158       -0.10634
     150 -> 156       -0.17880

 Excited State  21:      Singlet-A      5.3880 eV  230.11 nm  f=0.0001  <S**2>=0.000
     147 -> 161       -0.10743
     147 -> 164        0.11453
     148 -> 159       -0.22586
     150 -> 159        0.13306
     152 -> 161        0.24644
     153 -> 161        0.17858
     153 -> 164        0.18953
     154 -> 159        0.13097
     154 -> 163        0.44090

 Excited State  22:      Singlet-A      5.4045 eV  229.41 nm  f=0.0006  <S**2>=0.000
     153 -> 160       -0.20952
     154 -> 162        0.61985

 Excited State  23:      Singlet-A      5.4084 eV  229.24 nm  f=0.0002  <S**2>=0.000
     147 -> 159        0.10755
     147 -> 163        0.12126
     148 -> 161        0.21274
     150 -> 161       -0.12999
     152 -> 159       -0.29588
     153 -> 159       -0.26562
     153 -> 163        0.19891
     154 -> 161       -0.17353
     154 -> 164        0.34040

 Excited State  24:      Singlet-A      5.6333 eV  220.09 nm  f=0.9498  <S**2>=0.000
     152 -> 156        0.24151
     152 -> 157       -0.16126
     152 -> 158        0.21870
     153 -> 156        0.34547
     153 -> 157       -0.28050
     153 -> 158        0.29762
     154 -> 160        0.19784

 Excited State  25:      Singlet-A      5.7405 eV  215.98 nm  f=0.0112  <S**2>=0.000
     147 -> 157        0.11957
     151 -> 157        0.13031
     152 -> 156       -0.17762
     152 -> 157        0.48295
     152 -> 158        0.10528
     153 -> 157       -0.34381
     153 -> 158       -0.12760

 Excited State  26:      Singlet-A      5.8614 eV  211.53 nm  f=0.0007  <S**2>=0.000
     142 -> 162       -0.10437
     143 -> 155        0.67238

 Excited State  27:      Singlet-A      5.8690 eV  211.25 nm  f=0.0694  <S**2>=0.000
     144 -> 157        0.21289
     144 -> 158        0.13615
     145 -> 156        0.44665
     145 -> 157        0.11659
     145 -> 158       -0.12193
     147 -> 156        0.12289
     149 -> 156        0.20964
     149 -> 157        0.11633
     150 -> 156        0.24486
     150 -> 158       -0.13772

 Excited State  28:      Singlet-A      5.9623 eV  207.95 nm  f=0.0057  <S**2>=0.000
     144 -> 156        0.12257
     145 -> 156       -0.17460
     145 -> 157       -0.13985
     148 -> 156        0.24419
     150 -> 156        0.46957
     150 -> 157        0.19164
     151 -> 157        0.19838
     151 -> 158        0.11369

 Excited State  29:      Singlet-A      5.9911 eV  206.95 nm  f=0.0067  <S**2>=0.000
     147 -> 157        0.10072
     150 -> 156       -0.19389
     151 -> 157        0.49039
     151 -> 158        0.30105
     152 -> 157       -0.16020

 Excited State  30:      Singlet-A      5.9974 eV  206.73 nm  f=0.0001  <S**2>=0.000
     142 -> 155        0.66323
     143 -> 162       -0.10520

 The electronic state is 1-A.
 Alpha  occ. eigenvalues -- -482.90816-482.90814-482.90544-482.90543 -62.55003
 Alpha  occ. eigenvalues --  -62.55002 -62.54719 -62.54718 -56.36808 -56.36806
 Alpha  occ. eigenvalues --  -56.36535 -56.36534 -56.36458 -56.36456 -56.36441
 Alpha  occ. eigenvalues --  -56.36439 -56.36174 -56.36174 -56.36148 -56.36148
 Alpha  occ. eigenvalues --  -19.26697 -19.13824 -19.13817 -19.11111 -19.10931
 Alpha  occ. eigenvalues --  -10.32724 -10.32721 -10.31071 -10.31064 -10.30707
 Alpha  occ. eigenvalues --  -10.29253 -10.28265 -10.28256 -10.27471 -10.27468
 Alpha  occ. eigenvalues --  -10.25622 -10.25544 -10.25534 -10.25150 -10.25131
 Alpha  occ. eigenvalues --  -10.24267 -10.24131 -10.24031 -10.23897 -10.23470
 Alpha  occ. eigenvalues --   -8.75203  -8.75202  -8.74915  -8.74914  -6.58331
 Alpha  occ. eigenvalues --   -6.58330  -6.58072  -6.58072  -6.57234  -6.57233
 Alpha  occ. eigenvalues --   -6.57177  -6.57175  -6.56943  -6.56943  -6.56858
 Alpha  occ. eigenvalues --   -6.56857  -2.69979  -2.69977  -2.69715  -2.69715
 Alpha  occ. eigenvalues --   -2.69666  -2.69664  -2.69621  -2.69620  -2.69399
 Alpha  occ. eigenvalues --   -2.69398  -2.69332  -2.69332  -2.68746  -2.68746
 Alpha  occ. eigenvalues --   -2.68745  -2.68745  -2.68431  -2.68431  -2.68430
 Alpha  occ. eigenvalues --   -2.68429  -1.20107  -1.08663  -1.08226  -1.08205
 Alpha  occ. eigenvalues --   -0.99514  -0.96455  -0.95604  -0.93713  -0.90335
 Alpha  occ. eigenvalues --   -0.90032  -0.88882  -0.85973  -0.84244  -0.82622
 Alpha  occ. eigenvalues --   -0.81883  -0.81201  -0.78338  -0.78193  -0.72324
 Alpha  occ. eigenvalues --   -0.71326  -0.69535  -0.68298  -0.65494  -0.65019
 Alpha  occ. eigenvalues --   -0.61375  -0.61346  -0.59537  -0.58756  -0.55352
 Alpha  occ. eigenvalues --   -0.55300  -0.54730  -0.52531  -0.52188  -0.51932
 Alpha  occ. eigenvalues --   -0.50618  -0.49901  -0.48897  -0.48454  -0.48359
 Alpha  occ. eigenvalues --   -0.47492  -0.47167  -0.46671  -0.46635  -0.46062
 Alpha  occ. eigenvalues --   -0.45182  -0.44262  -0.43993  -0.42434  -0.42193
 Alpha  occ. eigenvalues --   -0.41541  -0.41439  -0.40486  -0.39434  -0.39198
 Alpha  occ. eigenvalues --   -0.38624  -0.37379  -0.35708  -0.34768  -0.34005
 Alpha  occ. eigenvalues --   -0.33864  -0.33455  -0.32785  -0.30878  -0.30426
 Alpha  occ. eigenvalues --   -0.30114  -0.29969  -0.29830  -0.29698  -0.29151
 Alpha  occ. eigenvalues --   -0.28520  -0.27170  -0.26266  -0.22343
 Alpha virt. eigenvalues --   -0.03348   0.02113   0.03183   0.04288   0.05006
 Alpha virt. eigenvalues --    0.05250   0.05703   0.06146   0.08103   0.09067
 Alpha virt. eigenvalues --    0.10126   0.11500   0.12024   0.12532   0.13377

 Mulliken charges:
               1
     1  C    0.058194
     2  C   -0.183479
     3  C    0.232991
     4  C    0.022452
     5  C   -0.275690
     6  C   -0.011858
     7  C    0.463667
     8  C    0.019402
     9  C    0.244067
    10  C   -0.189495
    11  C    0.062258
    12  C   -0.015733
    13  C   -0.270632
    14  H    0.186635
    15  H    0.186018
    16  O   -0.222292
    17  O   -0.398122
    18  O   -0.397782
    19  C   -0.195981
    20  C   -0.260448
    21  C   -0.067983
    22  C   -0.141338
    23  H    0.153784
    24  C   -0.183175
    25  C   -0.171744
    26  H    0.163461
    27  H    0.146096
    28  H    0.161006
    29  C    0.236676
    30  O   -0.502133
    31  O   -0.500309
    32  Br  -0.079842
    33  Br  -0.079890
    34  Br  -0.094495
    35  Br  -0.094286
 Sum of Mulliken charges =  -2.00000

 Dipole moment (field-independent basis, Debye):
    X=              0.6261    Y=              0.6798    Z=            -12.5230  Tot=             12.5571
 Quadrupole moment (field-independent basis, Debye-Ang):
   XX=           -352.3739   YY=           -282.5254   ZZ=           -251.2282
   XY=              2.3160   XZ=              2.0794   YZ=            -40.0224

 Normal termination of Gaussian 09 at Sun Feb 13 02:21:51 2022.
