                         Program Version 5.0.2 -  RELEASE  -
|  1> %maxcore 3200
|  2> %pal
|  3>  nprocs= 8
|  4> end
|  5> ! RI-wB2PLYP def2-TZVP def2/J def2-TZVP/C RIJCOSX CPCM TightSCF
|  6> %TDDFT DCORR 1
|  7>    NROOTS   30
|  8>   TDA      FALSE
|  9> END
| 10>
| 11>  %CPCM
| 12>    SMD          TRUE
| 13>    SMDsolvent   "ACETONITRILE"
| 14>  END
| 15>
| 16>
| 17> * xyz -2 1
| 18> C                  -3.61009600   -1.22547600   -0.10047400
| 19> C                  -2.28157200   -1.78732300   -0.04367800
| 20> C                  -1.14147600   -1.01942300   -0.07793700
| 21> C                  -1.19740200    0.39332000   -0.17183100
| 22> C                  -2.48014600    0.98582800   -0.22828100
| 23> C                  -3.60743700    0.22874000   -0.19442200
| 24> C                  -0.00374900    1.13013300   -0.18342200
| 25> C                   1.21890500    0.44334400   -0.16235200
| 26> C                   1.22168200   -0.97058000   -0.06966600
| 27> C                   2.39282500   -1.69007500   -0.02658500
| 28> C                   3.69676800   -1.07176300   -0.06393600
| 29> C                   3.63353600    0.38169500   -0.14847000
| 30> C                   2.47584800    1.09034200   -0.19499700
| 31> H                  -2.54584500    2.06402300   -0.29595800
| 32> H                   2.49611900    2.17094400   -0.25162800
| 33> O                   0.05374200   -1.65855700   -0.02115800
| 34> O                   4.76055000   -1.70480200   -0.02845600
| 35> O                  -4.64606200   -1.90363500   -0.07574000
| 36> C                  -0.03296600    2.59655400   -0.41280600
| 37> C                   0.07757000    3.03118300   -1.73518900
| 38> C                  -0.18215500    3.53709900    0.61364800
| 39> C                   0.04654700    4.38066900   -2.04761900
| 40> H                   0.18849700    2.29621500   -2.52456800
| 41> C                  -0.21802200    4.88879200    0.27750000
| 42> C                  -0.10177400    5.31702400   -1.03394000
| 43> H                   0.13728900    4.69664900   -3.07946700
| 44> H                  -0.33801300    5.59639400    1.08877900
| 45> H                  -0.12615100    6.37446700   -1.26794500
| 46> C                  -0.29027500    3.11699500    2.07522800
| 47> O                  -0.56159700    4.01615200    2.90065900
| 48> O                  -0.08619500    1.90139800    2.30893700
| 49> Br                 -2.14595200   -3.66828500    0.07735400
| 50> Br                  2.33728900   -3.57573000    0.08332600
| 51> Br                  5.29813400    1.29255000   -0.19218900
| 52> Br                 -5.30875900    1.06730400   -0.27614200
| 53> *
| 54>
| 55>
| 56>                          ****END OF INPUT****

CARTESIAN COORDINATES (ANGSTROEM)
---------------------------------
  C     -3.610096   -1.225476   -0.100474
  C     -2.281572   -1.787323   -0.043678
  C     -1.141476   -1.019423   -0.077937
  C     -1.197402    0.393320   -0.171831
  C     -2.480146    0.985828   -0.228281
  C     -3.607437    0.228740   -0.194422
  C     -0.003749    1.130133   -0.183422
  C      1.218905    0.443344   -0.162352
  C      1.221682   -0.970580   -0.069666
  C      2.392825   -1.690075   -0.026585
  C      3.696768   -1.071763   -0.063936
  C      3.633536    0.381695   -0.148470
  C      2.475848    1.090342   -0.194997
  H     -2.545845    2.064023   -0.295958
  H      2.496119    2.170944   -0.251628
  O      0.053742   -1.658557   -0.021158
  O      4.760550   -1.704802   -0.028456
  O     -4.646062   -1.903635   -0.075740
  C     -0.032966    2.596554   -0.412806
  C      0.077570    3.031183   -1.735189
  C     -0.182155    3.537099    0.613648
  C      0.046547    4.380669   -2.047619
  H      0.188497    2.296215   -2.524568
  C     -0.218022    4.888792    0.277500
  C     -0.101774    5.317024   -1.033940
  H      0.137289    4.696649   -3.079467
  H     -0.338013    5.596394    1.088779
  H     -0.126151    6.374467   -1.267945
  C     -0.290275    3.116995    2.075228
  O     -0.561597    4.016152    2.900659
  O     -0.086195    1.901398    2.308937
  Br    -2.145952   -3.668285    0.077354
  Br     2.337289   -3.575730    0.083326
  Br     5.298134    1.292550   -0.192189
  Br    -5.308759    1.067304   -0.276142

 Total Charge           Charge          ....   -2
 Multiplicity           Mult            ....    1
 Number of Electrons    NEL             ....  308
 Basis Dimension        Dim             .... 1003

ORBITAL ENERGIES
----------------

  NO   OCC          E(Eh)            E(eV)
   0   2.0000    -485.913284    -13222.3727
   1   2.0000    -485.913166    -13222.3695
   2   2.0000    -485.910233    -13222.2897
   3   2.0000    -485.910166    -13222.2878
   4   2.0000     -63.671708     -1732.5952
   5   2.0000     -63.671584     -1732.5919
   6   2.0000     -63.668512     -1732.5083
   7   2.0000     -63.668434     -1732.5062
   8   2.0000     -57.295119     -1559.0795
   9   2.0000     -57.294996     -1559.0761
  10   2.0000     -57.293362     -1559.0316
  11   2.0000     -57.293268     -1559.0291
  12   2.0000     -57.293240     -1559.0283
  13   2.0000     -57.293143     -1559.0257
  14   2.0000     -57.292013     -1558.9949
  15   2.0000     -57.291935     -1558.9928
  16   2.0000     -57.290109     -1558.9431
  17   2.0000     -57.290035     -1558.9411
  18   2.0000     -57.290032     -1558.9410
  19   2.0000     -57.289958     -1558.9390
  20   2.0000     -19.870084      -540.6925
  21   2.0000     -19.736422      -537.0553
  22   2.0000     -19.736226      -537.0500
  23   2.0000     -19.709072      -536.3111
  24   2.0000     -19.707940      -536.2803
  25   2.0000     -10.779874      -293.3353
  26   2.0000     -10.779670      -293.3297
  27   2.0000     -10.761599      -292.8380
  28   2.0000     -10.761446      -292.8338
  29   2.0000     -10.758509      -292.7539
  30   2.0000     -10.748730      -292.4878
  31   2.0000     -10.727136      -291.9002
  32   2.0000     -10.727087      -291.8989
  33   2.0000     -10.718488      -291.6649
  34   2.0000     -10.718366      -291.6616
  35   2.0000     -10.704991      -291.2976
  36   2.0000     -10.704873      -291.2944
  37   2.0000     -10.702681      -291.2348
  38   2.0000     -10.692962      -290.9703
  39   2.0000     -10.692925      -290.9693
  40   2.0000     -10.686866      -290.8044
  41   2.0000     -10.685456      -290.7660
  42   2.0000     -10.684922      -290.7515
  43   2.0000     -10.682192      -290.6772
  44   2.0000     -10.678941      -290.5888
  45   2.0000      -9.232413      -251.2267
  46   2.0000      -9.232296      -251.2235
  47   2.0000      -9.229251      -251.1407
  48   2.0000      -9.229154      -251.1381
  49   2.0000      -6.971782      -189.7118
  50   2.0000      -6.971666      -189.7087
  51   2.0000      -6.968856      -189.6322
  52   2.0000      -6.968756      -189.6295
  53   2.0000      -6.963061      -189.4745
  54   2.0000      -6.962936      -189.4711
  55   2.0000      -6.962751      -189.4661
  56   2.0000      -6.962628      -189.4627
  57   2.0000      -6.959870      -189.3877
  58   2.0000      -6.959777      -189.3852
  59   2.0000      -6.959294      -189.3720
  60   2.0000      -6.959206      -189.3696
  61   2.0000      -2.931421       -79.7680
  62   2.0000      -2.931313       -79.7651
  63   2.0000      -2.928549       -79.6899
  64   2.0000      -2.928454       -79.6873
  65   2.0000      -2.928440       -79.6869
  66   2.0000      -2.928312       -79.6834
  67   2.0000      -2.928063       -79.6767
  68   2.0000      -2.927932       -79.6731
  69   2.0000      -2.925476       -79.6063
  70   2.0000      -2.925379       -79.6036
  71   2.0000      -2.924806       -79.5880
  72   2.0000      -2.924720       -79.5857
  73   2.0000      -2.919515       -79.4440
  74   2.0000      -2.919504       -79.4437
  75   2.0000      -2.919389       -79.4406
  76   2.0000      -2.919382       -79.4404
  77   2.0000      -2.916067       -79.3502
  78   2.0000      -2.916057       -79.3499
  79   2.0000      -2.915977       -79.3478
  80   2.0000      -2.915974       -79.3477
  81   2.0000      -1.347245       -36.6604
  82   2.0000      -1.229953       -33.4687
  83   2.0000      -1.222410       -33.2635
  84   2.0000      -1.222124       -33.2557
  85   2.0000      -1.132826       -30.8258
  86   2.0000      -1.092025       -29.7155
  87   2.0000      -1.079246       -29.3678
  88   2.0000      -1.060563       -28.8594
  89   2.0000      -1.016853       -27.6700
  90   2.0000      -1.014975       -27.6189
  91   2.0000      -0.997045       -27.1310
  92   2.0000      -0.965665       -26.2771
  93   2.0000      -0.951953       -25.9039
  94   2.0000      -0.940097       -25.5813
  95   2.0000      -0.919935       -25.0327
  96   2.0000      -0.917193       -24.9581
  97   2.0000      -0.888134       -24.1674
  98   2.0000      -0.885118       -24.0853
  99   2.0000      -0.826627       -22.4937
 100   2.0000      -0.805838       -21.9280
 101   2.0000      -0.791105       -21.5271
 102   2.0000      -0.779143       -21.2016
 103   2.0000      -0.745002       -20.2725
 104   2.0000      -0.741561       -20.1789
 105   2.0000      -0.699797       -19.0424
 106   2.0000      -0.697558       -18.9815
 107   2.0000      -0.681389       -18.5415
 108   2.0000      -0.670234       -18.2380
 109   2.0000      -0.633900       -17.2493
 110   2.0000      -0.631845       -17.1934
 111   2.0000      -0.629057       -17.1175
 112   2.0000      -0.602449       -16.3935
 113   2.0000      -0.600655       -16.3447
 114   2.0000      -0.589492       -16.0409
 115   2.0000      -0.586811       -15.9679
 116   2.0000      -0.575663       -15.6646
 117   2.0000      -0.569777       -15.5044
 118   2.0000      -0.557116       -15.1599
 119   2.0000      -0.550892       -14.9905
 120   2.0000      -0.548959       -14.9379
 121   2.0000      -0.545342       -14.8395
 122   2.0000      -0.534949       -14.5567
 123   2.0000      -0.531436       -14.4611
 124   2.0000      -0.530337       -14.4312
 125   2.0000      -0.528514       -14.3816
 126   2.0000      -0.506372       -13.7791
 127   2.0000      -0.503572       -13.7029
 128   2.0000      -0.488829       -13.3017
 129   2.0000      -0.484623       -13.1873
 130   2.0000      -0.476505       -12.9664
 131   2.0000      -0.473676       -12.8894
 132   2.0000      -0.468259       -12.7420
 133   2.0000      -0.451962       -12.2985
 134   2.0000      -0.450784       -12.2665
 135   2.0000      -0.447645       -12.1810
 136   2.0000      -0.430226       -11.7070
 137   2.0000      -0.412533       -11.2256
 138   2.0000      -0.400732       -10.9045
 139   2.0000      -0.394713       -10.7407
 140   2.0000      -0.393026       -10.6948
 141   2.0000      -0.389336       -10.5944
 142   2.0000      -0.382452       -10.4070
 143   2.0000      -0.371838       -10.1182
 144   2.0000      -0.368566       -10.0292
 145   2.0000      -0.362311        -9.8590
 146   2.0000      -0.357446        -9.7266
 147   2.0000      -0.356784        -9.7086
 148   2.0000      -0.346425        -9.4267
 149   2.0000      -0.341883        -9.3031
 150   2.0000      -0.338282        -9.2051
 151   2.0000      -0.323229        -8.7955
 152   2.0000      -0.307494        -8.3673
 153   2.0000      -0.257488        -7.0066
 154   0.0000       0.010555         0.2872
 155   0.0000       0.069944         1.9033
 156   0.0000       0.081922         2.2292
 157   0.0000       0.095975         2.6116
 158   0.0000       0.104362         2.8398

MULLIKEN ATOMIC CHARGES
-----------------------
   0 C :    0.154215
   1 C :   -0.244270
   2 C :    0.302718
   3 C :    0.007089
   4 C :   -0.285736
   5 C :   -0.042655
   6 C :    0.532425
   7 C :   -0.003229
   8 C :    0.330190
   9 C :   -0.260236
  10 C :    0.165746
  11 C :   -0.052909
  12 C :   -0.267829
  13 H :    0.206810
  14 H :    0.205941
  15 O :   -0.256402
  16 O :   -0.475940
  17 O :   -0.476075
  18 C :   -0.167826
  19 C :   -0.310111
  20 C :   -0.070593
  21 C :   -0.146162
  22 H :    0.175993
  23 C :   -0.172548
  24 C :   -0.190824
  25 H :    0.180383
  26 H :    0.171102
  27 H :    0.177847
  28 C :    0.326475
  29 O :   -0.576514
  30 O :   -0.573351
  31 Br:   -0.084643
  32 Br:   -0.084165
  33 Br:   -0.097566
  34 Br:   -0.097351
Sum of atomic charges:   -2.0000000

LOEWDIN ATOMIC CHARGES
----------------------
   0 C :   -0.397021
   1 C :   -0.381114
   2 C :   -0.175326
   3 C :   -0.119277
   4 C :   -0.089864
   5 C :   -0.378743
   6 C :    0.050500
   7 C :   -0.119902
   8 C :   -0.175166
   9 C :   -0.381302
  10 C :   -0.396902
  11 C :   -0.379091
  12 C :   -0.090409
  13 H :    0.170919
  14 H :    0.170513
  15 O :    0.365293
  16 O :   -0.042124
  17 O :   -0.042457
  18 C :   -0.067077
  19 C :   -0.101024
  20 C :   -0.090903
  21 C :   -0.142064
  22 H :    0.163410
  23 C :   -0.108646
  24 C :   -0.147614
  25 H :    0.156100
  26 H :    0.157438
  27 H :    0.154510
  28 C :   -0.605807
  29 O :   -0.125791
  30 O :   -0.092683
  31 Br:    0.324780
  32 Br:    0.324931
  33 Br:    0.306177
  34 Br:    0.305737

  Mayer bond orders larger than 0.100000
B(  0-C ,  1-C ) :   1.0549 B(  0-C ,  5-C ) :   1.0376 B(  0-C , 17-O ) :   2.2098
B(  1-C ,  2-C ) :   1.4456 B(  1-C , 17-O ) :  -0.1177 B(  1-C , 31-Br) :   1.2293
B(  2-C ,  3-C ) :   1.2711 B(  2-C , 15-O ) :   1.1000 B(  2-C , 31-Br) :  -0.1236
B(  3-C ,  4-C ) :   1.1992 B(  3-C ,  6-C ) :   1.1960 B(  4-C ,  5-C ) :   1.6076
B(  4-C , 13-H ) :   0.9290 B(  5-C , 17-O ) :  -0.1179 B(  5-C , 34-Br) :   1.0992
B(  6-C ,  7-C ) :   1.1975 B(  6-C , 18-C ) :   0.5125 B(  6-C , 19-C ) :  -0.1100
B(  7-C ,  8-C ) :   1.2564 B(  7-C , 12-C ) :   1.2012 B(  8-C ,  9-C ) :   1.4318
B(  8-C , 15-O ) :   1.1002 B(  8-C , 32-Br) :  -0.1242 B(  9-C , 10-C ) :   1.0505
B(  9-C , 16-O ) :  -0.1170 B(  9-C , 32-Br) :   1.2330 B( 10-C , 11-C ) :   1.0372
B( 10-C , 16-O ) :   2.2057 B( 11-C , 12-C ) :   1.6052 B( 11-C , 16-O ) :  -0.1151
B( 11-C , 33-Br) :   1.1002 B( 12-C , 14-H ) :   0.9282 B( 18-C , 19-C ) :   1.4737
B( 18-C , 20-C ) :   1.3736 B( 19-C , 21-C ) :   1.4394 B( 19-C , 22-H ) :   0.9837
B( 20-C , 23-C ) :   1.4298 B( 20-C , 28-C ) :   0.8875 B( 20-C , 29-O ) :  -0.1982
B( 21-C , 24-C ) :   1.3783 B( 21-C , 25-H ) :   0.9770 B( 23-C , 24-C ) :   1.4044
B( 23-C , 26-H ) :   0.9598 B( 24-C , 27-H ) :   0.9786 B( 28-C , 29-O ) :   1.9061
B( 28-C , 30-O ) :   1.8013

MP2 TOTAL ENERGY:   -11434.974526000 Eh

-----------------------------------------------------------------------------
         ABSORPTION SPECTRUM VIA TRANSITION ELECTRIC DIPOLE MOMENTS
-----------------------------------------------------------------------------
State   Energy    Wavelength  fosc         T2        TX        TY        TZ
        (cm-1)      (nm)                 (au**2)    (au)      (au)      (au)
-----------------------------------------------------------------------------
   1   22795.0    438.7   0.983790109  14.20820   3.76811   0.09402   0.02720
   2   31988.4    312.6   0.035630603   0.36670  -0.01736   0.60407  -0.03867
   3   34484.9    290.0   0.013839256   0.13212  -0.04041   0.34235   0.11525
   4   37339.4    267.8   0.010695581   0.09430   0.30247  -0.05099   0.01448
   5   36611.7    273.1   0.037171376   0.33424  -0.06393   0.57448  -0.01123
   6   37309.8    268.0   0.682612758   6.02320   0.08309  -2.45258   0.03359
   7   37038.8    270.0   0.003905286   0.03471  -0.00641   0.18534  -0.01791
   8   41168.4    242.9   0.001035369   0.00828  -0.00299  -0.09091   0.00243
   9   41581.1    240.5   0.000290205   0.00230   0.02845  -0.03421  -0.01782
  10   40804.2    245.1   0.003246863   0.02620  -0.15363   0.03987  -0.03170
  11   41515.1    240.9   0.006022087   0.04775   0.07799  -0.13166  -0.15601
  12   40921.7    244.4   0.000984794   0.00792   0.07224  -0.04221  -0.03037
  13   40673.5    245.9   0.006833338   0.05531  -0.05190  -0.09958  -0.20664
  14   43191.2    231.5   0.007463330   0.05689   0.05017   0.05635  -0.22626
  15   45338.8    220.6   0.000752786   0.00547  -0.01691   0.02231  -0.06843
  16   45648.2    219.1   0.000441575   0.00318   0.01349   0.01538   0.05259
  17   44303.5    225.7   0.006328181   0.04702  -0.01680   0.02319  -0.21495
  18   44773.1    223.3   0.028624024   0.21047   0.03406  -0.29784  -0.34727
  19   43500.4    229.9   0.017503867   0.13247  -0.19078   0.25434  -0.17715
  20   44053.0    227.0   0.019434218   0.14523  -0.27810  -0.21749  -0.14350
  21   46867.1    213.4   1.038484296   7.29470   2.68764   0.26329  -0.04463
  22   43338.8    230.7   0.148776754   1.13014   0.62026  -0.84942   0.15465
  23   42293.6    236.4   0.005657901   0.04404   0.17260   0.09580   0.07123
  24   46710.0    214.1   0.120460909   0.84901   0.05762   0.63108  -0.66890
  25   50550.6    197.8   0.553472862   3.60451  -0.00018  -1.89645   0.08932
  26   50179.0    199.3   0.050334532   0.33023   0.51338  -0.15358  -0.20758
  27   48734.4    205.2   0.306706285   2.07187  -0.03283  -0.42076   1.37614
  28   50304.2    198.8   0.039198211   0.25653   0.15327   0.09809   0.47267
  29   48613.3    205.7   0.226435503   1.53343   0.25196  -0.14266  -1.20399
  30   51615.5    193.7   0.044853815   0.28609  -0.05288   0.03551   0.53106

FINAL SINGLE POINT ENERGY    -11433.274765862301

DIPOLE MOMENT
-------------
                                X             Y             Z
Electronic contribution:      2.23552     -63.37381      -2.23932
Nuclear contribution   :     -1.76550      63.66252      -2.85258
                        -----------------------------------------
Total Dipole Moment    :      0.47002       0.28871      -5.09190
                        -----------------------------------------
Magnitude (a.u.)       :      5.12169
Magnitude (Debye)      :     13.01831

Rotational constants in cm-1:     0.003520     0.002272     0.001480
Rotational constants in MHz :   105.521627    68.099067    44.374263

                             ****ORCA TERMINATED NORMALLY****
TOTAL RUN TIME: 0 days 1 hours 57 minutes 7 seconds 371 msec
