 Gaussian 09, Revision E.01,

 ----------------------------------------------------------------------
 #p m06/def2TZVP opt freq=noraman nosymm int=ultrafine scrf=(SMD,solven
 t=Acetonitrile)
 ----------------------------------------------------------------------

 -----
 Title
 -----
 Symbolic Z-matrix:
 Charge = -2 Multiplicity = 1

 SCF Done:  E(RM06) =  -11438.1242227     A.U. after   15 cycles
 SCF Done:  E(RM06) =  -11438.1321301     A.U. after   13 cycles
 SCF Done:  E(RM06) =  -11438.1324124     A.U. after   11 cycles
 SCF Done:  E(RM06) =  -11438.1217717     A.U. after   13 cycles
 SCF Done:  E(RM06) =  -11438.1325355     A.U. after   11 cycles
 SCF Done:  E(RM06) =  -11438.1326546     A.U. after   12 cycles
 SCF Done:  E(RM06) =  -11438.1326753     A.U. after   10 cycles
 SCF Done:  E(RM06) =  -11438.1326746     A.U. after   10 cycles
 SCF Done:  E(RM06) =  -11438.1326766     A.U. after    9 cycles
 SCF Done:  E(RM06) =  -11438.1326767     A.U. after    8 cycles
 SCF Done:  E(RM06) =  -11438.1326836     A.U. after    5 cycles
 SCF Done:  E(RM06) =  -11438.1326804     A.U. after   11 cycles
 SCF Done:  E(RM06) =  -11438.1326657     A.U. after   10 cycles
 SCF Done:  E(RM06) =  -11438.1326899     A.U. after   10 cycles
 SCF Done:  E(RM06) =  -11438.1326889     A.U. after   10 cycles
 SCF Done:  E(RM06) =  -11438.1326930     A.U. after   10 cycles
 SCF Done:  E(RM06) =  -11438.1326934     A.U. after    9 cycles
 SCF Done:  E(RM06) =  -11438.1326935     A.U. after    7 cycles
 Optimization completed.
    -- Stationary point found.
 Normal termination of Gaussian 09 at Sat Feb 12 13:46:11 2022.

 ------------------------------------------------------------------
 #P Geom=AllCheck Guess=TCheck SCRF=Check GenChk RM06/def2TZVP Freq
 ------------------------------------------------------------------

 Structure from the checkpoint file:  "cp.chk"
 -----
 Title
 -----
 Charge = -2 Multiplicity = 1

 SCF Done:  E(RM06) =  -11438.1326935     A.U. after    1 cycles

  Exact polarizability: 697.269  75.743 521.593 -80.054-179.220 488.310
 Approx polarizability: 745.087  77.268 572.380 -85.057-175.979 535.655

                      1                      2                      3
                      A                      A                      A
 Frequencies --     20.8149                21.8604                29.0940
 Red. masses --     12.2073                15.5681                48.9853
 Frc consts  --      0.0031                 0.0044                 0.0244
 IR Inten    --      6.7616                 3.6546                 0.1387

                      4                      5                      6
                      A                      A                      A
 Frequencies --     42.5964                45.0650                66.7353
 Red. masses --      8.3688                 7.8149                33.9420
 Frc consts  --      0.0089                 0.0094                 0.0891
 IR Inten    --      3.9801                 2.2433                 0.1898

                      7                      8                      9
                      A                      A                      A
 Frequencies --     72.2688                76.8436                80.0424
 Red. masses --     13.7597                16.9944                16.8495
 Frc consts  --      0.0423                 0.0591                 0.0636
 IR Inten    --      3.9693                 6.8824                 5.5057

                     10                     11                     12
                      A                      A                      A
 Frequencies --    104.5904               117.4760               127.9201
 Red. masses --     48.8512                 5.4764                16.9103
 Frc consts  --      0.3149                 0.0445                 0.1630
 IR Inten    --      1.1021                 3.2478                17.4457

                     13                     14                     15
                      A                      A                      A
 Frequencies --    129.5919               139.4603               152.5191
 Red. masses --     24.4897                 9.3083                14.9618
 Frc consts  --      0.2423                 0.1067                 0.2051
 IR Inten    --      5.0643                 1.8955                 0.0047

                     16                     17                     18
                      A                      A                      A
 Frequencies --    165.1650               188.2532               207.1240
 Red. masses --      9.1633                11.8210                18.8558
 Frc consts  --      0.1473                 0.2468                 0.4766
 IR Inten    --      4.8674                16.7445                 2.6635

                     19                     20                     21
                      A                      A                      A
 Frequencies --    240.3653               249.6822               262.1855
 Red. masses --      9.6576                 8.9181                 7.4067
 Frc consts  --      0.3287                 0.3276                 0.3000
 IR Inten    --     25.5311                 0.6311                 0.5654

                     22                     23                     24
                      A                      A                      A
 Frequencies --    266.9904               274.6768               283.0531
 Red. masses --     17.0251                16.2100                 8.9180
 Frc consts  --      0.7150                 0.7206                 0.4210
 IR Inten    --      3.7619                10.2380                36.5388

                     25                     26                     27
                      A                      A                      A
 Frequencies --    306.5686               334.4236               353.6941
 Red. masses --      7.5091                12.6785                11.8788
 Frc consts  --      0.4158                 0.8354                 0.8755
 IR Inten    --      4.2246                 3.6648                 7.7291

                     28                     29                     30
                      A                      A                      A
 Frequencies --    371.9023               390.0525               406.4883
 Red. masses --     11.1870                10.2602                 9.3914
 Frc consts  --      0.9116                 0.9197                 0.9143
 IR Inten    --      0.6239                 5.9832                 9.1085

                     31                     32                     33
                      A                      A                      A
 Frequencies --    437.1497               451.0218               490.2165
 Red. masses --      3.6151                 9.7842                 5.6927
 Frc consts  --      0.4070                 1.1727                 0.8060
 IR Inten    --      0.2179               125.8083               146.1656

                     34                     35                     36
                      A                      A                      A
 Frequencies --    491.2683               512.0807               528.4519
 Red. masses --      4.5400                 3.9999                 7.5914
 Frc consts  --      0.6456                 0.6180                 1.2491
 IR Inten    --     42.1368                 0.1311                 5.2944

                     37                     38                     39
                      A                      A                      A
 Frequencies --    589.3256               621.2542               650.2985
 Red. masses --      5.7198                 8.2041                10.3940
 Frc consts  --      1.1704                 1.8656                 2.5897
 IR Inten    --    151.2108                12.4103                73.7798

                     40                     41                     42
                      A                      A                      A
 Frequencies --    654.8359               660.2744               676.0215
 Red. masses --      9.2241                 6.0869                 7.7206
 Frc consts  --      2.3305                 1.5635                 2.0788
 IR Inten    --     10.9555                54.5260                27.9016

                     43                     44                     45
                      A                      A                      A
 Frequencies --    708.3752               711.7701               717.4915
 Red. masses --      9.8102                12.2524                 8.7157
 Frc consts  --      2.9004                 3.6572                 2.6435
 IR Inten    --      0.1525                45.6351                10.8715

                     46                     47                     48
                      A                      A                      A
 Frequencies --    726.1937               755.1770               770.4104
 Red. masses --      2.3782                 8.8820                 8.6009
 Frc consts  --      0.7389                 2.9844                 3.0077
 IR Inten    --    118.5604                24.4523                61.1892

                     49                     50                     51
                      A                      A                      A
 Frequencies --    781.6066               785.5967               790.0788
 Red. masses --      2.2441                 8.1461                10.0796
 Frc consts  --      0.8077                 2.9621                 3.7071
 IR Inten    --     27.8158                20.1442                 0.9017

                     52                     53                     54
                      A                      A                      A
 Frequencies --    796.2672               799.2541               835.5946
 Red. masses --      5.1967                 7.8001                 9.3099
 Frc consts  --      1.9413                 2.9357                 3.8299
 IR Inten    --      4.3114                78.9194                83.8739

                     55                     56                     57
                      A                      A                      A
 Frequencies --    843.8428               905.9838               909.9339
 Red. masses --      2.9644                 1.7472                 1.4673
 Frc consts  --      1.2437                 0.8449                 0.7158
 IR Inten    --      0.2626                 5.2096                 0.6857

                     58                     59                     60
                      A                      A                      A
 Frequencies --    910.6827               972.5725               977.2526
 Red. masses --      1.5044                 9.0068                 1.5519
 Frc consts  --      0.7351                 5.0195                 0.8732
 IR Inten    --     20.2259                11.3570                37.5296

                     61                     62                     63
                      A                      A                      A
 Frequencies --    995.1274              1010.4353              1024.7108
 Red. masses --      5.5527                 1.3333                 5.6860
 Frc consts  --      3.2397                 0.8020                 3.5177
 IR Inten    --    583.3412                 0.5474                 2.4238

                     64                     65                     66
                      A                      A                      A
 Frequencies --   1058.0341              1072.5731              1094.2559
 Red. masses --      1.8871                 3.3241                 2.3895
 Frc consts  --      1.2447                 2.2531                 1.6857
 IR Inten    --     27.9375                70.4890                21.7303

                     67                     68                     69
                      A                      A                      A
 Frequencies --   1145.2711              1165.9488              1188.0053
 Red. masses --      1.1255                 2.1460                 3.9454
 Frc consts  --      0.8698                 1.7189                 3.2808
 IR Inten    --      2.5232                13.0790                56.1727

                     70                     71                     72
                      A                      A                      A
 Frequencies --   1203.0120              1211.5225              1256.9716
 Red. masses --      8.7829                 2.5394                 2.4731
 Frc consts  --      7.4890                 2.1961                 2.3022
 IR Inten    --      0.2992                46.0312               710.3994

                     73                     74                     75
                      A                      A                      A
 Frequencies --   1259.3273              1282.0956              1322.5237
 Red. masses --      1.6901                 3.3579                 5.5207
 Frc consts  --      1.5792                 3.2521                 5.6892
 IR Inten    --     45.1435                 4.5757                10.6627

                     76                     77                     78
                      A                      A                      A
 Frequencies --   1341.6866              1353.1726              1398.4908
 Red. masses --      4.7619                 4.2553                 7.6397
 Frc consts  --      5.0505                 4.5908                 8.8033
 IR Inten    --     27.7512               439.7821              1028.2926

                     79                     80                     81
                      A                      A                      A
 Frequencies --   1400.4347              1453.4474              1462.3529
 Red. masses --     12.3299                 3.2843                 3.8283
 Frc consts  --     14.2473                 4.0879                 4.8235
 IR Inten    --    512.6199                27.8063                33.2706

                     82                     83                     84
                      A                      A                      A
 Frequencies --   1502.5211              1509.7531              1519.3206
 Red. masses --      3.6389                 9.0106                11.7094
 Frc consts  --      4.8402                12.1009                15.9251
 IR Inten    --     21.5038              1269.5481              3948.6822

                     85                     86                     87
                      A                      A                      A
 Frequencies --   1535.7905              1543.0511              1602.1841
 Red. masses --     10.6197                 8.4833                 8.6700
 Frc consts  --     14.7580                11.9008                13.1127
 IR Inten    --    247.4448                 6.9970              1627.9483

                     88                     89                     90
                      A                      A                      A
 Frequencies --   1619.5746              1646.9615              1657.1692
 Red. masses --      7.2944                 6.9336                11.7613
 Frc consts  --     11.2731                11.0810                19.0300
 IR Inten    --     40.7810               138.5106               788.4997

                     91                     92                     93
                      A                      A                      A
 Frequencies --   1661.7337              1662.3859              1691.9493
 Red. masses --      9.6103                12.6474                12.0299
 Frc consts  --     15.6354                20.5928                20.2903
 IR Inten    --     54.5310               586.5993               763.4424

                     94                     95                     96
                      A                      A                      A
 Frequencies --   3153.3531              3167.0703              3177.4579
 Red. masses --      1.0886                 1.0877                 1.0915
 Frc consts  --      6.3776                 6.4281                 6.4929
 IR Inten    --      6.8456                 8.4266                 3.6827

                     97                     98                     99
                      A                      A                      A
 Frequencies --   3178.1509              3181.0947              3187.3522
 Red. masses --      1.0914                 1.0917                 1.0972
 Frc consts  --      6.4952                 6.5087                 6.5672
 IR Inten    --      2.0710                 8.6441                28.6836

 - Thermochemistry -
 -------------------
 Temperature   298.150 Kelvin.  Pressure   1.00000 Atm.
 Atom     1 has atomic number  6 and mass  12.00000

 Molecular mass:   641.69487 amu.
 Principal axes and moments of inertia in atomic units:
                           1         2         3
     Eigenvalues --  ******************************
           X            0.72673   0.68485   0.05332
           Y            0.50403  -0.58437   0.63598
           Z           -0.46671   0.43532   0.76986
 This molecule is an asymmetric top.
 Rotational symmetry number  1.
 Warning -- assumption of classical behavior for rotation
           may cause significant error
 Rotational temperatures (Kelvin)      0.00510     0.00331     0.00216
 Rotational constants (GHZ):           0.10624     0.06905     0.04490
 Zero-point vibrational energy     543607.4 (Joules/Mol)
                                  129.92529 (Kcal/Mol)
 Warning -- explicit consideration of  37 degrees of freedom as
           vibrations may cause significant error
 Vibrational temperatures:     29.95    31.45    41.86    61.29    64.84
          (Kelvin)             96.02   103.98   110.56   115.16   150.48
                              169.02   184.05   186.45   200.65   219.44
                              237.64   270.85   298.00   345.83   359.24
                              377.23   384.14   395.20   407.25   441.08
                              481.16   508.89   535.08   561.20   584.85
                              628.96   648.92   705.31   706.82   736.77
                              760.32   847.91   893.85   935.63   942.16
                              949.99   972.64  1019.19  1024.08  1032.31
                             1044.83  1086.53  1108.45  1124.56  1130.30
                             1136.75  1145.65  1149.95  1202.23  1214.10
                             1303.51  1309.19  1310.27  1399.31  1406.05
                             1431.76  1453.79  1474.33  1522.27  1543.19
                             1574.39  1647.79  1677.54  1709.27  1730.86
                             1743.11  1808.50  1811.89  1844.65  1902.81
                             1930.39  1946.91  2012.11  2014.91  2091.18
                             2104.00  2161.79  2172.20  2185.96  2209.66
                             2220.10  2305.18  2330.20  2369.61  2384.29
                             2390.86  2391.80  2434.33  4536.97  4556.70
                             4571.65  4572.64  4576.88  4585.88

 Zero-point correction=                           0.207049 (Hartree/Particle)
 Thermal correction to Energy=                    0.232203
 Thermal correction to Enthalpy=                  0.233147
 Thermal correction to Gibbs Free Energy=         0.147049
 Sum of electronic and zero-point Energies=         -11437.925644
 Sum of electronic and thermal Energies=            -11437.900490
 Sum of electronic and thermal Enthalpies=          -11437.899546
 Sum of electronic and thermal Free Energies=       -11437.985645

                     E (Thermal)             CV                S
                      KCal/Mol        Cal/Mol-Kelvin    Cal/Mol-Kelvin
 Total                  145.710             90.409            181.210
 Electronic               0.000              0.000              0.000
 Translational            0.889              2.981             45.259
 Rotational               0.889              2.981             38.121
 Vibrational            143.932             84.447             97.830
 Vibration     1          0.593              1.986              6.555
 Vibration     2          0.593              1.985              6.458
 Vibration     3          0.593              1.984              5.890
 Vibration     4          0.595              1.980              5.135
 Vibration     5          0.595              1.979              5.023
 Vibration     6          0.598              1.970              4.247
 Vibration     7          0.598              1.967              4.091
 Vibration     8          0.599              1.965              3.970
 Vibration     9          0.600              1.963              3.890
 Vibration    10          0.605              1.946              3.367
 Vibration    11          0.608              1.935              3.141
 Vibration    12          0.611              1.925              2.977
 Vibration    13          0.612              1.924              2.952
 Vibration    14          0.615              1.914              2.811
 Vibration    15          0.619              1.900              2.641
 Vibration    16          0.624              1.885              2.490
 Vibration    17          0.633              1.856              2.245
 Vibration    18          0.641              1.830              2.069
 Vibration    19          0.657              1.779              1.800
 Vibration    20          0.662              1.763              1.733
 Vibration    21          0.669              1.742              1.647
 Vibration    22          0.672              1.734              1.616
 Vibration    23          0.677              1.720              1.567
 Vibration    24          0.682              1.705              1.515
 Vibration    25          0.697              1.661              1.381
 Vibration    26          0.716              1.607              1.239
 Vibration    27          0.730              1.568              1.150
 Vibration    28          0.744              1.530              1.072
 Vibration    29          0.758              1.491              1.000
 Vibration    30          0.771              1.456              0.939
 Vibration    31          0.797              1.389              0.836
 Vibration    32          0.810              1.359              0.793
 Vibration    33          0.846              1.272              0.683
 Vibration    34          0.847              1.269              0.680
 Vibration    35          0.867              1.223              0.629
 Vibration    36          0.883              1.187              0.591
 Vibration    37          0.947              1.055              0.468

 Optimization completed.
    -- Stationary point found.
 Normal termination of Gaussian 09 at Sat Feb 12 20:10:57 2022.
 Gaussian 09:  ES64L-G09RevE.01 30-Nov-2015

 ----------------------------------------------------------------------
 #p m06 chkbasis geom=allcheck Guess=Read int=ultrafine scrf=(SMD,solve
 nt=Acetonitrile) td=(NStates=30)
 ----------------------------------------------------------------------

 Structure from the checkpoint file:  "cp.chk"
 -----
 Title
 -----
 Charge = -2 Multiplicity = 1

                         Standard orientation:
 ---------------------------------------------------------------------
 Center     Atomic      Atomic             Coordinates (Angstroms)
 Number     Number       Type             X           Y           Z
 ---------------------------------------------------------------------
      1          6           0       -3.624549   -1.195130   -0.085904
      2          6           0       -2.300203   -1.768208   -0.038739
      3          6           0       -1.156972   -1.011950   -0.079364
      4          6           0       -1.200926    0.399989   -0.174105
      5          6           0       -2.479260    1.003650   -0.220120
      6          6           0       -3.608942    0.260586   -0.179058
      7          6           0       -0.003038    1.122057   -0.189909
      8          6           0        1.211037    0.427760   -0.169966
      9          6           0        1.200643   -0.984757   -0.077564
     10          6           0        2.362120   -1.713272   -0.035968
     11          6           0        3.672187   -1.107396   -0.073841
     12          6           0        3.621399    0.348149   -0.152386
     13          6           0        2.474155    1.063284   -0.198137
     14          1           0       -2.539986    2.084150   -0.286332
     15          1           0        2.508162    2.145642   -0.251460
     16          8           0        0.029237   -1.651473   -0.029001
     17          8           0        4.724577   -1.745084   -0.043535
     18          8           0       -4.660712   -1.858600   -0.052903
     19          6           0       -0.019189    2.587857   -0.420889
     20          6           0        0.040513    3.005008   -1.748888
     21          6           0       -0.100050    3.535600    0.600924
     22          6           0        0.026733    4.349839   -2.072760
     23          1           0        0.099700    2.257239   -2.534274
     24          6           0       -0.117250    4.882413    0.254607
     25          6           0       -0.051556    5.295759   -1.063113
     26          1           0        0.076675    4.655435   -3.111825
     27          1           0       -0.183084    5.602885    1.061948
     28          1           0       -0.062086    6.352844   -1.305130
     29          6           0       -0.162441    3.130394    2.073833
     30          8           0       -0.340549    4.047256    2.895768
     31          8           0       -0.022536    1.912437    2.306605
     32         35           0       -2.179062   -3.648827    0.082478
     33         35           0        2.289914   -3.597027    0.073495
     34         35           0        5.287732    1.251781   -0.190569
     35         35           0       -5.297040    1.121952   -0.247699
 ---------------------------------------------------------------------

 SCF Done:  E(RM06) =  -11438.1326004     A.U. after    9 cycles

 Excitation energies and oscillator strengths:

 Excited State   1:      Singlet-A      2.8293 eV  438.22 nm  f=0.8000  <S**2>=0.000
     154 -> 155        0.70030
 This state for optimization and/or second-order correction.
 Total Energy, E(TD-HF/TD-KS) =  -11438.0286256
 Copying the excited state density for this state as the 1-particle RhoCI density.

 Excited State   2:      Singlet-A      3.3271 eV  372.65 nm  f=0.0407  <S**2>=0.000
     152 -> 155       -0.15364
     153 -> 155        0.67979

 Excited State   3:      Singlet-A      3.4424 eV  360.17 nm  f=0.0339  <S**2>=0.000
     152 -> 155        0.67254
     153 -> 155        0.14895

 Excited State   4:      Singlet-A      3.7598 eV  329.76 nm  f=0.0051  <S**2>=0.000
     151 -> 155        0.68403
     152 -> 155       -0.11070

 Excited State   5:      Singlet-A      3.7810 eV  327.92 nm  f=0.0005  <S**2>=0.000
     148 -> 162        0.13672
     149 -> 155        0.64778
     150 -> 155       -0.21768

 Excited State   6:      Singlet-A      3.8622 eV  321.02 nm  f=0.0000  <S**2>=0.000
     148 -> 155        0.68122
     149 -> 162        0.14230

 Excited State   7:      Singlet-A      3.9149 eV  316.70 nm  f=0.1074  <S**2>=0.000
     154 -> 156        0.67463

 Excited State   8:      Singlet-A      3.9838 eV  311.22 nm  f=0.0335  <S**2>=0.000
     145 -> 155       -0.10887
     149 -> 155        0.21073
     150 -> 155        0.64933

 Excited State   9:      Singlet-A      4.1073 eV  301.86 nm  f=0.0365  <S**2>=0.000
     146 -> 155       -0.10970
     147 -> 155       -0.13146
     154 -> 157        0.65885
     154 -> 158        0.10097

 Excited State  10:      Singlet-A      4.1236 eV  300.67 nm  f=0.0172  <S**2>=0.000
     146 -> 155        0.55305
     147 -> 155       -0.35830
     153 -> 156       -0.12982
     154 -> 159        0.17397

 Excited State  11:      Singlet-A      4.2178 eV  293.96 nm  f=0.0013  <S**2>=0.000
     146 -> 155        0.12713
     152 -> 156        0.35813
     152 -> 157       -0.10629
     153 -> 156        0.51865
     153 -> 157       -0.14392

 Excited State  12:      Singlet-A      4.2689 eV  290.43 nm  f=0.0119  <S**2>=0.000
     144 -> 155        0.24252
     145 -> 155        0.42383
     146 -> 155       -0.26047
     147 -> 155       -0.32838
     154 -> 157       -0.14240
     154 -> 158        0.19037

 Excited State  13:      Singlet-A      4.3180 eV  287.13 nm  f=0.0019  <S**2>=0.000
     144 -> 155       -0.18805
     145 -> 155       -0.40338
     146 -> 155       -0.12232
     147 -> 155       -0.21964
     154 -> 157       -0.13002
     154 -> 158        0.42227

 Excited State  14:      Singlet-A      4.3692 eV  283.77 nm  f=0.0000  <S**2>=0.000
     153 -> 161        0.14588
     154 -> 160        0.66755

 Excited State  15:      Singlet-A      4.4292 eV  279.93 nm  f=0.0018  <S**2>=0.000
     144 -> 155        0.41992
     145 -> 155       -0.21559
     146 -> 155       -0.12592
     154 -> 159        0.47104

 Excited State  16:      Singlet-A      4.4361 eV  279.49 nm  f=0.1185  <S**2>=0.000
     144 -> 155        0.11918
     145 -> 155        0.15544
     146 -> 155        0.18752
     147 -> 155        0.37216
     154 -> 158        0.45713
     154 -> 161        0.15652
     154 -> 162       -0.14169

 Excited State  17:      Singlet-A      4.4522 eV  278.48 nm  f=0.0002  <S**2>=0.000
     144 -> 155        0.25686
     145 -> 155       -0.16911
     151 -> 156        0.53449
     151 -> 157       -0.16529
     151 -> 158       -0.11467
     154 -> 159       -0.17982

 Excited State  18:      Singlet-A      4.4672 eV  277.54 nm  f=0.0014  <S**2>=0.000
     144 -> 155       -0.37638
     145 -> 155        0.18701
     151 -> 156        0.31868
     151 -> 157       -0.11713
     154 -> 159        0.39671

 Excited State  19:      Singlet-A      4.5512 eV  272.42 nm  f=0.0056  <S**2>=0.000
     153 -> 160        0.18982
     154 -> 157        0.10926
     154 -> 158       -0.18850
     154 -> 161        0.61209

 Excited State  20:      Singlet-A      4.7540 eV  260.80 nm  f=0.0166  <S**2>=0.000
     152 -> 157        0.28201
     153 -> 156        0.18989
     153 -> 157        0.58441
     154 -> 159        0.10995

 Excited State  21:      Singlet-A      4.8668 eV  254.76 nm  f=0.2801  <S**2>=0.000
     151 -> 156        0.10523
     152 -> 156        0.53407
     152 -> 157        0.10003
     153 -> 156       -0.36002
     153 -> 158       -0.18895

 Excited State  22:      Singlet-A      4.9287 eV  251.56 nm  f=0.0002  <S**2>=0.000
     143 -> 155        0.69940

 Excited State  23:      Singlet-A      4.9535 eV  250.29 nm  f=0.0113  <S**2>=0.000
     152 -> 159       -0.13756
     153 -> 159        0.20725
     154 -> 162        0.61551

 Excited State  24:      Singlet-A      4.9925 eV  248.34 nm  f=0.0304  <S**2>=0.000
     146 -> 160       -0.10227
     151 -> 156       -0.10871
     151 -> 157       -0.33717
     151 -> 158        0.14026
     152 -> 157        0.37674
     152 -> 161       -0.15030
     153 -> 157       -0.14122
     153 -> 161        0.11197
     154 -> 163       -0.27925

 Excited State  25:      Singlet-A      5.0111 eV  247.42 nm  f=0.0310  <S**2>=0.000
     151 -> 156        0.11583
     151 -> 157        0.50439
     151 -> 158       -0.19201
     152 -> 157        0.12763
     152 -> 161       -0.16564
     153 -> 157       -0.10934
     154 -> 163       -0.28198

 Excited State  26:      Singlet-A      5.0464 eV  245.69 nm  f=0.0001  <S**2>=0.000
     146 -> 161        0.15946
     152 -> 160        0.39545
     153 -> 160       -0.30640
     153 -> 163        0.17620
     154 -> 161        0.14578
     154 -> 164       -0.32116

 Excited State  27:      Singlet-A      5.0667 eV  244.70 nm  f=0.0000  <S**2>=0.000
     142 -> 155        0.69322

 Excited State  28:      Singlet-A      5.0708 eV  244.51 nm  f=0.0004  <S**2>=0.000
     151 -> 158        0.10292
     152 -> 156        0.23275
     152 -> 158        0.16816
     153 -> 158        0.55042
     154 -> 159        0.10135
     154 -> 163       -0.12962

 Excited State  29:      Singlet-A      5.1145 eV  242.42 nm  f=0.0120  <S**2>=0.000
     144 -> 156        0.36425
     144 -> 157       -0.15644
     145 -> 156        0.12060
     145 -> 157        0.29281
     145 -> 158       -0.18653
     150 -> 156       -0.33704
     152 -> 157       -0.10366
     153 -> 158        0.15566

 Excited State  30:      Singlet-A      5.1483 eV  240.83 nm  f=0.1715  <S**2>=0.000
     151 -> 157        0.12783
     152 -> 157        0.42853
     152 -> 158        0.25548
     153 -> 156        0.10659
     153 -> 157       -0.22414
     153 -> 158        0.11398
     154 -> 163        0.33277

 The electronic state is 1-A.
 Alpha  occ. eigenvalues -- -483.17762-483.17759-483.17531-483.17520 -62.79016
 Alpha  occ. eigenvalues --  -62.79013 -62.78773 -62.78763 -56.50151 -56.50147
 Alpha  occ. eigenvalues --  -56.49918 -56.49908 -56.49774 -56.49771 -56.49754
 Alpha  occ. eigenvalues --  -56.49751 -56.49531 -56.49521 -56.49504 -56.49493
 Alpha  occ. eigenvalues --  -19.27642 -19.14892 -19.14877 -19.12112 -19.11854
 Alpha  occ. eigenvalues --  -10.31630 -10.31625 -10.29961 -10.29945 -10.29667
 Alpha  occ. eigenvalues --  -10.28133 -10.27042 -10.27027 -10.26224 -10.26218
 Alpha  occ. eigenvalues --  -10.24769 -10.24552 -10.24536 -10.24341 -10.24311
 Alpha  occ. eigenvalues --  -10.23509 -10.23398 -10.23134 -10.23120 -10.22732
 Alpha  occ. eigenvalues --   -8.83330  -8.83327  -8.83079  -8.83069  -6.61384
 Alpha  occ. eigenvalues --   -6.61381  -6.61164  -6.61154  -6.60151  -6.60148
 Alpha  occ. eigenvalues --   -6.60083  -6.60079  -6.59896  -6.59886  -6.59803
 Alpha  occ. eigenvalues --   -6.59793  -2.67150  -2.67147  -2.66925  -2.66915
 Alpha  occ. eigenvalues --   -2.66802  -2.66798  -2.66752  -2.66748  -2.66573
 Alpha  occ. eigenvalues --   -2.66563  -2.66502  -2.66491  -2.65751  -2.65750
 Alpha  occ. eigenvalues --   -2.65748  -2.65747  -2.65474  -2.65473  -2.65464
 Alpha  occ. eigenvalues --   -2.65463  -1.14108  -1.02464  -1.02210  -1.02191
 Alpha  occ. eigenvalues --   -0.94039  -0.89046  -0.88173  -0.86404  -0.83106
 Alpha  occ. eigenvalues --   -0.82878  -0.81850  -0.79169  -0.77325  -0.75559
 Alpha  occ. eigenvalues --   -0.75092  -0.74306  -0.71597  -0.71331  -0.65788
 Alpha  occ. eigenvalues --   -0.64799  -0.62996  -0.61716  -0.59003  -0.58578
 Alpha  occ. eigenvalues --   -0.55220  -0.55033  -0.53324  -0.52554  -0.49242
 Alpha  occ. eigenvalues --   -0.49213  -0.48753  -0.46721  -0.46166  -0.46125
 Alpha  occ. eigenvalues --   -0.44820  -0.43990  -0.43080  -0.42567  -0.42371
 Alpha  occ. eigenvalues --   -0.41748  -0.41545  -0.41017  -0.40892  -0.40320
 Alpha  occ. eigenvalues --   -0.39536  -0.38694  -0.38425  -0.36838  -0.36762
 Alpha  occ. eigenvalues --   -0.36155  -0.35998  -0.35072  -0.34288  -0.33858
 Alpha  occ. eigenvalues --   -0.33383  -0.32223  -0.30715  -0.29760  -0.28911
 Alpha  occ. eigenvalues --   -0.28778  -0.28320  -0.27770  -0.26364  -0.25948
 Alpha  occ. eigenvalues --   -0.25227  -0.25137  -0.24995  -0.24674  -0.24535
 Alpha  occ. eigenvalues --   -0.23364  -0.22512  -0.21818  -0.18961
 Alpha virt. eigenvalues --   -0.06447  -0.01770  -0.00785   0.00163   0.01017
 Alpha virt. eigenvalues --    0.01221   0.01838   0.02113   0.04209   0.05078
 Alpha virt. eigenvalues --    0.06117   0.07613   0.07977   0.08242   0.09576

 Mulliken charges:
               1
     1  C    0.298791
     2  C   -0.250151
     3  C    0.373304
     4  C   -0.089858
     5  C   -0.162497
     6  C   -0.082738
     7  C    0.415798
     8  C   -0.094743
     9  C    0.387857
    10  C   -0.256367
    11  C    0.302422
    12  C   -0.090169
    13  C   -0.151466
    14  H    0.210110
    15  H    0.209494
    16  O   -0.373186
    17  O   -0.512946
    18  O   -0.512726
    19  C   -0.260342
    20  C   -0.313904
    21  C   -0.186182
    22  C   -0.065259
    23  H    0.132834
    24  C   -0.079558
    25  C   -0.158612
    26  H    0.127276
    27  H    0.117325
    28  H    0.122787
    29  C    0.530161
    30  O   -0.607646
    31  O   -0.582834
    32  Br  -0.094370
    33  Br  -0.094514
    34  Br  -0.104180
    35  Br  -0.103915
 Sum of Mulliken charges =  -2.00000

 Dipole moment (field-independent basis, Debye):
    X=              0.6224    Y=             -0.0591    Z=            -12.1129  Tot=             12.1290
 Quadrupole moment (field-independent basis, Debye-Ang):
   XX=           -346.2215   YY=           -281.1197   ZZ=           -248.7312
   XY=              2.4318   XZ=              2.1570   YZ=            -39.2789

 Normal termination of Gaussian 09 at Sun Feb 13 00:37:53 2022.
