 Gaussian 09, Revision E.01,

 ----------------------------------------------------------------------
 #p m062x/def2TZVP opt freq=noraman nosymm int=ultrafine scrf=(SMD,solv
 ent=Acetonitrile)
 ----------------------------------------------------------------------

 -----
 Title
 -----
 Symbolic Z-matrix:
 Charge = -2 Multiplicity = 1

 SCF Done:  E(RM062X) =  -11438.9585606     A.U. after   15 cycles
 SCF Done:  E(RM062X) =  -11438.9663638     A.U. after   13 cycles
 SCF Done:  E(RM062X) =  -11438.9668531     A.U. after   12 cycles
 SCF Done:  E(RM062X) =  -11438.9576735     A.U. after   13 cycles
 SCF Done:  E(RM062X) =  -11438.9669315     A.U. after    9 cycles
 SCF Done:  E(RM062X) =  -11438.9670736     A.U. after   11 cycles
 SCF Done:  E(RM062X) =  -11438.9670946     A.U. after   11 cycles
 SCF Done:  E(RM062X) =  -11438.9670966     A.U. after   10 cycles
 SCF Done:  E(RM062X) =  -11438.9670999     A.U. after   10 cycles
 SCF Done:  E(RM062X) =  -11438.9671118     A.U. after   11 cycles
 SCF Done:  E(RM062X) =  -11438.9671242     A.U. after   11 cycles
 SCF Done:  E(RM062X) =  -11438.9662002     A.U. after   13 cycles
 SCF Done:  E(RM062X) =  -11438.9671278     A.U. after    7 cycles
 SCF Done:  E(RM062X) =  -11438.9671210     A.U. after   11 cycles
 SCF Done:  E(RM062X) =  -11438.9670699     A.U. after   12 cycles
 SCF Done:  E(RM062X) =  -11438.9671308     A.U. after   12 cycles
 SCF Done:  E(RM062X) =  -11438.9671310     A.U. after    9 cycles
 SCF Done:  E(RM062X) =  -11438.9671311     A.U. after    9 cycles
 Optimization completed.
    -- Stationary point found.
 Normal termination of Gaussian 09 at Sat Feb 12 18:26:40 2022.

 --------------------------------------------------------------------
 #P Geom=AllCheck Guess=TCheck SCRF=Check GenChk RM062X/def2TZVP Freq
 --------------------------------------------------------------------

 Structure from the checkpoint file:  "cp.chk"
 -----
 Title
 -----
 Charge = -2 Multiplicity = 1

 SCF Done:  E(RM062X) =  -11438.9671311     A.U. after    1 cycles

  Exact polarizability: 676.990  97.755 527.472 -72.010-179.636 465.846
 Approx polarizability: 577.980  59.855 475.702 -44.089-128.327 426.962

                      1                      2                      3
                      A                      A                      A
 Frequencies --     20.8275                24.5789                27.0741
 Red. masses --     19.6937                11.7662                28.2789
 Frc consts  --      0.0050                 0.0042                 0.0122
 IR Inten    --      1.1836                10.7839                 2.9190

                      4                      5                      6
                      A                      A                      A
 Frequencies --     43.9215                47.0479                68.0411
 Red. masses --     10.0660                 6.7758                32.3726
 Frc consts  --      0.0114                 0.0088                 0.0883
 IR Inten    --      5.5281                 0.5782                 0.3288

                      7                      8                      9
                      A                      A                      A
 Frequencies --     75.5615                80.0905                84.8442
 Red. masses --     18.5095                17.3823                13.9882
 Frc consts  --      0.0623                 0.0657                 0.0593
 IR Inten    --      4.0826                 7.9382                 2.5194

                     10                     11                     12
                      A                      A                      A
 Frequencies --    106.2048               119.0544               127.6429
 Red. masses --     48.6691                 5.7774                14.4512
 Frc consts  --      0.3234                 0.0482                 0.1387
 IR Inten    --      1.0874                 2.8537                16.1592

                     13                     14                     15
                      A                      A                      A
 Frequencies --    128.5128               135.7022               153.4990
 Red. masses --     22.2865                 9.1998                15.7960
 Frc consts  --      0.2169                 0.0998                 0.2193
 IR Inten    --      1.4709                 3.7558                 0.1556

                     16                     17                     18
                      A                      A                      A
 Frequencies --    167.9044               188.8332               209.4492
 Red. masses --      9.1033                11.6610                18.9579
 Frc consts  --      0.1512                 0.2450                 0.4900
 IR Inten    --      3.4834                12.7508                 2.0467

                     19                     20                     21
                      A                      A                      A
 Frequencies --    244.1190               253.4750               265.4026
 Red. masses --      9.4048                 9.0099                 7.5174
 Frc consts  --      0.3302                 0.3411                 0.3120
 IR Inten    --     15.9082                 0.5847                 0.7187

                     22                     23                     24
                      A                      A                      A
 Frequencies --    269.3585               278.1898               285.5171
 Red. masses --     17.5953                16.1220                 8.6885
 Frc consts  --      0.7522                 0.7351                 0.4173
 IR Inten    --      7.8078                11.5576                68.9210

                     25                     26                     27
                      A                      A                      A
 Frequencies --    309.3316               338.1177               358.1772
 Red. masses --      7.5940                12.7858                11.9083
 Frc consts  --      0.4281                 0.8612                 0.9001
 IR Inten    --      3.7434                 3.0072                 6.6798

                     28                     29                     30
                      A                      A                      A
 Frequencies --    376.3298               393.1137               410.9990
 Red. masses --     11.4628                10.2910                 9.6430
 Frc consts  --      0.9565                 0.9370                 0.9597
 IR Inten    --      0.7247                 6.8346                 6.9001

                     31                     32                     33
                      A                      A                      A
 Frequencies --    439.0584               453.4921               491.2591
 Red. masses --      3.6252                10.1203                 6.2168
 Frc consts  --      0.4117                 1.2263                 0.8840
 IR Inten    --      0.8886               203.7719               257.8153

                     34                     35                     36
                      A                      A                      A
 Frequencies --    495.2008               515.4810               529.2556
 Red. masses --      4.4022                 4.0093                 7.2854
 Frc consts  --      0.6360                 0.6277                 1.2024
 IR Inten    --     10.9642                 0.3882                 6.3142

                     37                     38                     39
                      A                      A                      A
 Frequencies --    594.6209               627.9668               655.1440
 Red. masses --      5.5968                 8.2343                10.4270
 Frc consts  --      1.1659                 1.9132                 2.6368
 IR Inten    --    190.2365                 8.6363                74.9092

                     40                     41                     42
                      A                      A                      A
 Frequencies --    663.5808               666.8030               681.5186
 Red. masses --      7.3316                 7.6657                 7.8262
 Frc consts  --      1.9021                 2.0082                 2.1417
 IR Inten    --     32.3737                38.8847                29.5604

                     43                     44                     45
                      A                      A                      A
 Frequencies --    713.1700               719.6752               723.5205
 Red. masses --     10.1715                12.4030                 8.8446
 Frc consts  --      3.0480                 3.7849                 2.7279
 IR Inten    --      0.7103                44.6588                 7.6441

                     46                     47                     48
                      A                      A                      A
 Frequencies --    734.2464               762.8889               777.9222
 Red. masses --      2.6669                 9.1342                 8.6942
 Frc consts  --      0.8471                 3.1322                 3.0999
 IR Inten    --    128.2091                17.6154                67.6773

                     49                     50                     51
                      A                      A                      A
 Frequencies --    792.4790               792.7680               793.5250
 Red. masses --      3.6330                 7.7474                 7.0567
 Frc consts  --      1.3443                 2.8688                 2.6180
 IR Inten    --     46.7822                22.5757                19.9910

                     52                     53                     54
                      A                      A                      A
 Frequencies --    801.3966               804.2787               841.6420
 Red. masses --      8.2894                 2.9351                 9.3147
 Frc consts  --      3.1367                 1.1186                 3.8875
 IR Inten    --     66.5521                 1.7469                80.1838

                     55                     56                     57
                      A                      A                      A
 Frequencies --    852.3818               924.1863               931.6499
 Red. masses --      3.3692                 1.6221                 1.4578
 Frc consts  --      1.4423                 0.8163                 0.7455
 IR Inten    --      0.9577                 8.9828                14.3398

                     58                     59                     60
                      A                      A                      A
 Frequencies --    934.2284               979.2906               993.6707
 Red. masses --      1.4483                 9.1612                 3.2639
 Frc consts  --      0.7447                 5.1764                 1.8987
 IR Inten    --     16.5621                13.8593               595.6062

                     61                     62                     63
                      A                      A                      A
 Frequencies --   1005.9019              1034.5526              1036.8665
 Red. masses --      1.9107                 1.3372                 6.0610
 Frc consts  --      1.1391                 0.8432                 3.8392
 IR Inten    --    404.3859                 0.9029                 2.1622

                     64                     65                     66
                      A                      A                      A
 Frequencies --   1069.9416              1085.8471              1105.9756
 Red. masses --      2.0518                 3.6668                 2.5867
 Frc consts  --      1.3839                 2.5473                 1.8642
 IR Inten    --     23.3277               122.6430                31.9657

                     67                     68                     69
                      A                      A                      A
 Frequencies --   1163.2767              1177.8705              1198.1755
 Red. masses --      1.1572                 2.0631                 3.8208
 Frc consts  --      0.9226                 1.6864                 3.2318
 IR Inten    --      3.3056                10.3460                52.2155

                     70                     71                     72
                      A                      A                      A
 Frequencies --   1211.7640              1234.4591              1263.7368
 Red. masses --      8.1403                 2.6930                 3.1277
 Frc consts  --      7.0425                 2.4179                 2.9430
 IR Inten    --     80.1903                47.8054              2151.2235

                     73                     74                     75
                      A                      A                      A
 Frequencies --   1274.5407              1295.2449              1307.7075
 Red. masses --      1.8022                 4.3779                 4.1931
 Frc consts  --      1.7249                 4.3273                 4.2248
 IR Inten    --     34.9421                 9.2029                 1.3234

                     76                     77                     78
                      A                      A                      A
 Frequencies --   1348.3044              1375.6224              1393.3265
 Red. masses --      3.0493                 3.5862                 5.5733
 Frc consts  --      3.2661                 3.9984                 6.3748
 IR Inten    --     52.4581               330.7450              2592.2080

                     79                     80                     81
                      A                      A                      A
 Frequencies --   1409.5424              1470.0307              1479.4102
 Red. masses --     11.4778                 3.2301                 3.5735
 Frc consts  --     13.4359                 4.1126                 4.6081
 IR Inten    --    537.4452                26.1990                37.9317

                     82                     83                     84
                      A                      A                      A
 Frequencies --   1512.4548              1519.3977              1532.9051
 Red. masses --      9.2346                 3.5096                10.2426
 Frc consts  --     12.4461                 4.7737                14.1804
 IR Inten    --   4768.2524               127.7620              1100.7334

                     85                     86                     87
                      A                      A                      A
 Frequencies --   1551.0715              1558.6407              1621.7945
 Red. masses --      9.9540                 8.5542                 8.7790
 Frc consts  --     14.1095                12.2439                13.6046
 IR Inten    --    264.3211                17.9515              1239.9186

                     88                     89                     90
                      A                      A                      A
 Frequencies --   1635.3288              1657.3998              1660.9817
 Red. masses --      7.2467                11.6367                 7.0902
 Frc consts  --     11.4183                18.8336                11.5249
 IR Inten    --    104.0273               798.9102                34.7819

                     91                     92                     93
                      A                      A                      A
 Frequencies --   1668.9331              1681.2483              1695.5844
 Red. masses --     12.2999                 8.9862                10.9591
 Frc consts  --     20.1850                14.9654                18.5636
 IR Inten    --    324.0472               341.6217               546.1914

                     94                     95                     96
                      A                      A                      A
 Frequencies --   3195.6941              3205.6332              3217.9367
 Red. masses --      1.0878                 1.0904                 1.0953
 Frc consts  --      6.5454                 6.6019                 6.6826
 IR Inten    --      0.8609                 7.5097                 9.0732

                     97                     98                     99
                      A                      A                      A
 Frequencies --   3220.9575              3221.3303              3228.9221
 Red. masses --      1.0922                 1.0923                 1.0942
 Frc consts  --      6.6763                 6.6783                 6.7217
 IR Inten    --      4.3168                 2.6462                10.3167

 - Thermochemistry -
 -------------------
 Temperature   298.150 Kelvin.  Pressure   1.00000 Atm.
 Atom     1 has atomic number  6 and mass  12.00000

 Molecular mass:   641.69487 amu.
 Principal axes and moments of inertia in atomic units:
                           1         2         3
     Eigenvalues --  ******************************
           X            0.70107   0.71255   0.02784
           Y            0.54703  -0.56244   0.62001
           Z           -0.45744   0.41945   0.78410
 This molecule is an asymmetric top.
 Rotational symmetry number  1.
 Warning -- assumption of classical behavior for rotation
           may cause significant error
 Rotational temperatures (Kelvin)      0.00509     0.00330     0.00215
 Rotational constants (GHZ):           0.10608     0.06881     0.04479
 Zero-point vibrational energy     549119.0 (Joules/Mol)
                                  131.24260 (Kcal/Mol)
 Warning -- explicit consideration of  37 degrees of freedom as
           vibrations may cause significant error
 Vibrational temperatures:     29.97    35.36    38.95    63.19    67.69
          (Kelvin)             97.90   108.72   115.23   122.07   152.80
                              171.29   183.65   184.90   195.24   220.85
                              241.58   271.69   301.35   351.23   364.69
                              381.85   387.55   400.25   410.79   445.06
                              486.48   515.34   541.45   565.60   591.34
                              631.71   652.47   706.81   712.48   741.66
                              761.48   855.53   903.50   942.60   954.74
                              959.38   980.55  1026.09  1035.45  1040.98
                             1056.42  1097.63  1119.26  1140.20  1140.61
                             1141.70  1153.03  1157.18  1210.93  1226.39
                             1329.70  1340.43  1344.14  1408.98  1429.67
                             1447.27  1488.49  1491.82  1539.41  1562.29
                             1591.25  1673.69  1694.69  1723.91  1743.46
                             1776.11  1818.23  1833.78  1863.57  1881.50
                             1939.91  1979.21  2004.68  2028.01  2115.04
                             2128.54  2176.08  2186.07  2205.51  2231.64
                             2242.53  2333.40  2352.87  2384.63  2389.78
                             2401.22  2418.94  2439.56  4597.89  4612.19
                             4629.89  4634.23  4634.77  4645.69

 Zero-point correction=                           0.209148 (Hartree/Particle)
 Thermal correction to Energy=                    0.234118
 Thermal correction to Enthalpy=                  0.235062
 Thermal correction to Gibbs Free Energy=         0.149483
 Sum of electronic and zero-point Energies=         -11438.757983
 Sum of electronic and thermal Energies=            -11438.733013
 Sum of electronic and thermal Enthalpies=          -11438.732069
 Sum of electronic and thermal Free Energies=       -11438.817648

                     E (Thermal)             CV                S
                      KCal/Mol        Cal/Mol-Kelvin    Cal/Mol-Kelvin
 Total                  146.911             89.753            180.117
 Electronic               0.000              0.000              0.000
 Translational            0.889              2.981             45.259
 Rotational               0.889              2.981             38.128
 Vibrational            145.134             83.791             96.729
 Vibration     1          0.593              1.986              6.554
 Vibration     2          0.593              1.985              6.225
 Vibration     3          0.593              1.984              6.033
 Vibration     4          0.595              1.980              5.074
 Vibration     5          0.595              1.979              4.938
 Vibration     6          0.598              1.969              4.209
 Vibration     7          0.599              1.965              4.003
 Vibration     8          0.600              1.963              3.889
 Vibration     9          0.601              1.960              3.776
 Vibration    10          0.605              1.944              3.337
 Vibration    11          0.609              1.933              3.116
 Vibration    12          0.611              1.926              2.981
 Vibration    13          0.611              1.925              2.968
 Vibration    14          0.614              1.918              2.864
 Vibration    15          0.619              1.899              2.628
 Vibration    16          0.625              1.882              2.459
 Vibration    17          0.633              1.855              2.239
 Vibration    18          0.642              1.826              2.048
 Vibration    19          0.659              1.772              1.773
 Vibration    20          0.665              1.757              1.706
 Vibration    21          0.671              1.736              1.626
 Vibration    22          0.674              1.730              1.600
 Vibration    23          0.679              1.714              1.545
 Vibration    24          0.683              1.701              1.500
 Vibration    25          0.699              1.656              1.366
 Vibration    26          0.718              1.599              1.221
 Vibration    27          0.733              1.558              1.130
 Vibration    28          0.747              1.521              1.054
 Vibration    29          0.760              1.485              0.988
 Vibration    30          0.775              1.446              0.923
 Vibration    31          0.799              1.385              0.830
 Vibration    32          0.812              1.353              0.785
 Vibration    33          0.847              1.269              0.680
 Vibration    34          0.851              1.261              0.670
 Vibration    35          0.871              1.216              0.621
 Vibration    36          0.884              1.185              0.589
 Vibration    37          0.952              1.043              0.459

 Normal termination of Gaussian 09 at Sun Feb 13 00:45:50 2022.
 Gaussian 09:  ES64L-G09RevE.01 30-Nov-2015

 ----------------------------------------------------------------------
 #p m062x chkbasis geom=allcheck Guess=Read int=ultrafine scrf=(SMD,sol
 vent=Acetonitrile) td=(NStates=30)
 ----------------------------------------------------------------------

 Structure from the checkpoint file:  "cp.chk"
 -----
 Title
 -----
 Charge = -2 Multiplicity = 1

                         Standard orientation:
 ---------------------------------------------------------------------
 Center     Atomic      Atomic             Coordinates (Angstroms)
 Number     Number       Type             X           Y           Z
 ---------------------------------------------------------------------
      1          6           0       -3.693754   -1.068536   -0.058538
      2          6           0       -2.390246   -1.692589   -0.020594
      3          6           0       -1.222870   -0.974662   -0.069719
      4          6           0       -1.219632    0.441323   -0.164851
      5          6           0       -2.479476    1.096396   -0.195721
      6          6           0       -3.632874    0.391605   -0.146378
      7          6           0        0.003608    1.119114   -0.196063
      8          6           0        1.196033    0.387792   -0.178401
      9          6           0        1.138195   -1.026665   -0.083178
     10          6           0        2.273401   -1.795540   -0.049006
     11          6           0        3.602559   -1.229568   -0.103817
     12          6           0        3.604353    0.231622   -0.192424
     13          6           0        2.482685    0.986430   -0.228492
     14          1           0       -2.499090    2.176755   -0.256242
     15          1           0        2.549452    2.064616   -0.293326
     16          8           0       -0.056613   -1.656625   -0.027284
     17          8           0        4.634544   -1.902060   -0.081553
     18          8           0       -4.753526   -1.695454   -0.021511
     19          6           0        0.036037    2.592479   -0.417652
     20          6           0       -0.071591    3.017948   -1.743022
     21          6           0        0.184825    3.532034    0.605983
     22          6           0       -0.035130    4.367366   -2.060184
     23          1           0       -0.182679    2.279172   -2.528577
     24          6           0        0.223986    4.883503    0.267909
     25          6           0        0.113113    5.306834   -1.047566
     26          1           0       -0.120953    4.680565   -3.093203
     27          1           0        0.343097    5.596887    1.072680
     28          1           0        0.142657    6.363307   -1.284194
     29          6           0        0.298107    3.123660    2.083609
     30          8           0        0.555102    4.040151    2.888126
     31          8           0        0.114973    1.915095    2.333499
     32         35           0       -2.335525   -3.574415    0.095784
     33         35           0        2.137049   -3.673292    0.066115
     34         35           0        5.305003    1.065469   -0.263871
     35         35           0       -5.296707    1.298997   -0.193992
 ---------------------------------------------------------------------

 SCF Done:  E(RM062X) =  -11438.9671213     A.U. after    8 cycles

 Excitation energies and oscillator strengths:

 Excited State   1:      Singlet-A      2.9221 eV  424.30 nm  f=0.9340  <S**2>=0.000
     154 -> 155        0.69767
 This state for optimization and/or second-order correction.
 Total Energy, E(TD-HF/TD-KS) =  -11438.8597354
 Copying the excited state density for this state as the 1-particle RhoCI density.

 Excited State   2:      Singlet-A      3.8057 eV  325.78 nm  f=0.0137  <S**2>=0.000
     152 -> 155        0.16659
     153 -> 155        0.66852

 Excited State   3:      Singlet-A      4.2227 eV  293.61 nm  f=0.0157  <S**2>=0.000
     152 -> 155        0.55617
     153 -> 155       -0.19610
     154 -> 156       -0.26814
     154 -> 157       -0.15180
     154 -> 158        0.17374

 Excited State   4:      Singlet-A      4.3386 eV  285.77 nm  f=0.0005  <S**2>=0.000
     144 -> 161       -0.24860
     145 -> 155        0.47198
     145 -> 168        0.13351
     146 -> 155        0.25836
     147 -> 155        0.20809
     148 -> 155       -0.13733
     149 -> 155       -0.13945

 Excited State   5:      Singlet-A      4.4144 eV  280.86 nm  f=0.0015  <S**2>=0.000
     144 -> 155        0.60161
     144 -> 168        0.15471
     145 -> 161       -0.23188

 Excited State   6:      Singlet-A      4.4729 eV  277.19 nm  f=0.3701  <S**2>=0.000
     147 -> 155        0.11272
     148 -> 155        0.10009
     149 -> 155        0.10574
     152 -> 155        0.34897
     154 -> 156        0.46165
     154 -> 157        0.21008
     154 -> 158       -0.24535

 Excited State   7:      Singlet-A      4.5543 eV  272.23 nm  f=0.0274  <S**2>=0.000
     148 -> 155        0.14353
     149 -> 155       -0.16656
     150 -> 155       -0.30942
     151 -> 155        0.37496
     154 -> 157        0.14010
     154 -> 159        0.36063

 Excited State   8:      Singlet-A      4.7324 eV  261.99 nm  f=0.0355  <S**2>=0.000
     145 -> 155        0.26385
     147 -> 155       -0.16290
     148 -> 155        0.10872
     149 -> 155        0.43451
     150 -> 155       -0.28454
     151 -> 155        0.12412
     154 -> 157       -0.16080
     154 -> 159       -0.16234

 Excited State   9:      Singlet-A      4.7503 eV  261.00 nm  f=0.0001  <S**2>=0.000
     149 -> 155        0.21609
     151 -> 155       -0.13000
     153 -> 160        0.13996
     154 -> 156       -0.28116
     154 -> 157        0.48261
     154 -> 162       -0.24343

 Excited State  10:      Singlet-A      4.7957 eV  258.53 nm  f=0.0002  <S**2>=0.000
     152 -> 162        0.10090
     153 -> 162       -0.19630
     153 -> 164       -0.13047
     154 -> 160        0.60976

 Excited State  11:      Singlet-A      4.8627 eV  254.97 nm  f=0.0025  <S**2>=0.000
     145 -> 155       -0.11251
     147 -> 156        0.14725
     148 -> 156        0.10265
     149 -> 155       -0.19856
     151 -> 155        0.24722
     152 -> 156        0.32718
     152 -> 172        0.10626
     153 -> 156       -0.17743
     154 -> 159       -0.29153
     154 -> 162       -0.11891

 Excited State  12:      Singlet-A      4.8914 eV  253.47 nm  f=0.0021  <S**2>=0.000
     147 -> 156        0.17466
     148 -> 156        0.11520
     149 -> 155        0.12406
     149 -> 156        0.11517
     151 -> 155       -0.20050
     152 -> 156        0.26956
     152 -> 157       -0.14122
     152 -> 158        0.11075
     152 -> 172        0.10581
     153 -> 160       -0.11415
     154 -> 159        0.34787
     154 -> 162        0.19734

 Excited State  13:      Singlet-A      4.9539 eV  250.27 nm  f=0.0044  <S**2>=0.000
     147 -> 155        0.18019
     151 -> 155        0.13837
     153 -> 160       -0.15926
     154 -> 156       -0.28714
     154 -> 157        0.14246
     154 -> 158       -0.31231
     154 -> 159       -0.16527
     154 -> 162        0.33235

 Excited State  14:      Singlet-A      4.9866 eV  248.63 nm  f=0.0018  <S**2>=0.000
     148 -> 155       -0.21498
     149 -> 155        0.25868
     150 -> 155        0.33631
     150 -> 156        0.18890
     150 -> 157       -0.10100
     151 -> 155        0.37527
     151 -> 156        0.15555

 Excited State  15:      Singlet-A      5.0166 eV  247.15 nm  f=0.0083  <S**2>=0.000
     145 -> 155        0.15144
     146 -> 155       -0.20976
     148 -> 155        0.44622
     149 -> 155       -0.16314
     150 -> 155        0.16079
     150 -> 156        0.21735
     150 -> 157       -0.10383
     151 -> 156        0.19007

 Excited State  16:      Singlet-A      5.0460 eV  245.71 nm  f=0.0002  <S**2>=0.000
     145 -> 155        0.11007
     146 -> 155       -0.25171
     148 -> 155        0.16708
     150 -> 155        0.33678
     150 -> 156       -0.28449
     150 -> 157        0.13098
     150 -> 172       -0.12115
     151 -> 155        0.20958
     151 -> 156       -0.24243
     151 -> 157        0.10507

 Excited State  17:      Singlet-A      5.0858 eV  243.79 nm  f=0.0689  <S**2>=0.000
     145 -> 155       -0.15668
     146 -> 155        0.16877
     147 -> 155        0.45713
     148 -> 155        0.22468
     149 -> 155        0.18461
     152 -> 155       -0.12538
     154 -> 157       -0.23242
     154 -> 162       -0.18726

 Excited State  18:      Singlet-A      5.1565 eV  240.44 nm  f=0.0050  <S**2>=0.000
     146 -> 155        0.50403
     147 -> 155       -0.30846
     148 -> 155        0.27601
     150 -> 155        0.18599

 Excited State  19:      Singlet-A      5.1912 eV  238.84 nm  f=0.0508  <S**2>=0.000
     147 -> 155        0.18289
     148 -> 155        0.10123
     154 -> 156        0.14446
     154 -> 157        0.23188
     154 -> 158        0.52251
     154 -> 161        0.12214
     154 -> 162        0.20728

 Excited State  20:      Singlet-A      5.3541 eV  231.57 nm  f=0.0002  <S**2>=0.000
     153 -> 159        0.18479
     154 -> 161        0.62217
     154 -> 162       -0.18020

 Excited State  21:      Singlet-A      5.3715 eV  230.82 nm  f=0.0002  <S**2>=0.000
     149 -> 160       -0.13990
     150 -> 160       -0.14032
     151 -> 160        0.17043
     152 -> 162        0.20530
     152 -> 164       -0.10795
     153 -> 157       -0.10456
     153 -> 162        0.24285
     153 -> 164        0.17112
     154 -> 160        0.14564
     154 -> 163        0.42904

 Excited State  22:      Singlet-A      5.3979 eV  229.69 nm  f=0.0000  <S**2>=0.000
     149 -> 162        0.13341
     150 -> 162        0.13187
     151 -> 162       -0.16208
     152 -> 160       -0.24230
     152 -> 163       -0.11526
     153 -> 160       -0.33497
     153 -> 163        0.17994
     154 -> 162       -0.18429
     154 -> 164        0.34129

 Excited State  23:      Singlet-A      5.4154 eV  228.95 nm  f=0.0014  <S**2>=0.000
     145 -> 156       -0.17164
     146 -> 156        0.31038
     146 -> 157       -0.25597
     147 -> 156        0.12534
     147 -> 157        0.17542
     147 -> 158        0.14974
     148 -> 157       -0.18878
     148 -> 158       -0.12068
     149 -> 156       -0.19561
     149 -> 158       -0.13576
     150 -> 156        0.16830
     151 -> 156       -0.11703
     151 -> 157        0.14823

 Excited State  24:      Singlet-A      5.5696 eV  222.61 nm  f=0.8585  <S**2>=0.000
     152 -> 156        0.14162
     152 -> 158       -0.10002
     153 -> 156        0.44387
     153 -> 157        0.28329
     153 -> 158       -0.34327
     154 -> 159       -0.20009

 Excited State  25:      Singlet-A      5.7858 eV  214.29 nm  f=0.0000  <S**2>=0.000
     141 -> 155        0.11195
     143 -> 155        0.66991
     145 -> 155        0.12516

 Excited State  26:      Singlet-A      5.8453 eV  212.11 nm  f=0.0164  <S**2>=0.000
     147 -> 157        0.11532
     148 -> 157        0.11224
     149 -> 157        0.11890
     150 -> 157        0.12264
     151 -> 157        0.13783
     152 -> 156        0.21005
     152 -> 157        0.49885
     153 -> 157       -0.22149

 Excited State  27:      Singlet-A      5.9114 eV  209.74 nm  f=0.0001  <S**2>=0.000
     140 -> 155       -0.14094
     142 -> 155        0.65809

 Excited State  28:      Singlet-A      5.9741 eV  207.54 nm  f=0.0005  <S**2>=0.000
     140 -> 161       -0.10536
     141 -> 155        0.65650
     143 -> 155       -0.12981

 Excited State  29:      Singlet-A      5.9955 eV  206.80 nm  f=0.0682  <S**2>=0.000
     146 -> 156        0.11619
     146 -> 157        0.12955
     146 -> 158        0.11417
     147 -> 156       -0.26555
     148 -> 156        0.40934
     148 -> 157       -0.12997
     148 -> 158        0.10649
     149 -> 157       -0.10271
     151 -> 156       -0.30894
     151 -> 158       -0.14232

 Excited State  30:      Singlet-A      6.0346 eV  205.46 nm  f=0.0066  <S**2>=0.000
     147 -> 157       -0.10105
     148 -> 156       -0.10156
     149 -> 156       -0.18623
     150 -> 157       -0.10483
     152 -> 156        0.28334
     152 -> 158       -0.28262
     153 -> 158        0.20381
     153 -> 161        0.30214
     154 -> 159        0.11277
     154 -> 168        0.15482

 The electronic state is 1-A.
 Alpha  occ. eigenvalues -- -485.36070-485.36049-485.35859-485.35846 -63.34544
 Alpha  occ. eigenvalues --  -63.34523 -63.34320 -63.34307 -57.16487 -57.16466
 Alpha  occ. eigenvalues --  -57.16271 -57.16260 -57.16258 -57.16246 -57.16239
 Alpha  occ. eigenvalues --  -57.16225 -57.16036 -57.16023 -57.16018 -57.16005
 Alpha  occ. eigenvalues --  -19.69711 -19.57274 -19.57253 -19.54078 -19.53908
 Alpha  occ. eigenvalues --  -10.62400 -10.62377 -10.60836 -10.60812 -10.60282
 Alpha  occ. eigenvalues --  -10.58740 -10.58089 -10.58059 -10.57266 -10.57252
 Alpha  occ. eigenvalues --  -10.55222 -10.55213 -10.55173 -10.54906 -10.54875
 Alpha  occ. eigenvalues --  -10.53870 -10.53677 -10.53559 -10.53428 -10.53028
 Alpha  occ. eigenvalues --   -9.01190  -9.01169  -9.00963  -9.00950  -6.83591
 Alpha  occ. eigenvalues --   -6.83569  -6.83387  -6.83374  -6.82744  -6.82723
 Alpha  occ. eigenvalues --   -6.82696  -6.82675  -6.82512  -6.82500  -6.82447
 Alpha  occ. eigenvalues --   -6.82435  -2.86971  -2.86949  -2.86768  -2.86755
 Alpha  occ. eigenvalues --   -2.86669  -2.86648  -2.86617  -2.86596  -2.86461
 Alpha  occ. eigenvalues --   -2.86448  -2.86392  -2.86379  -2.85829  -2.85828
 Alpha  occ. eigenvalues --   -2.85808  -2.85807  -2.85578  -2.85576  -2.85566
 Alpha  occ. eigenvalues --   -2.85564  -1.24485  -1.12940  -1.12683  -1.12654
 Alpha  occ. eigenvalues --   -1.03431  -0.98505  -0.97624  -0.95571  -0.91688
 Alpha  occ. eigenvalues --   -0.91554  -0.89957  -0.86860  -0.85334  -0.84086
 Alpha  occ. eigenvalues --   -0.82870  -0.82164  -0.79344  -0.79220  -0.73383
 Alpha  occ. eigenvalues --   -0.72118  -0.70258  -0.69021  -0.66062  -0.65633
 Alpha  occ. eigenvalues --   -0.61868  -0.61727  -0.60053  -0.59105  -0.56198
 Alpha  occ. eigenvalues --   -0.55546  -0.55469  -0.52835  -0.52270  -0.51784
 Alpha  occ. eigenvalues --   -0.51185  -0.50480  -0.49649  -0.48819  -0.48565
 Alpha  occ. eigenvalues --   -0.47929  -0.47838  -0.47267  -0.46823  -0.46618
 Alpha  occ. eigenvalues --   -0.46131  -0.44331  -0.43881  -0.42557  -0.42092
 Alpha  occ. eigenvalues --   -0.41565  -0.41341  -0.40307  -0.39841  -0.39227
 Alpha  occ. eigenvalues --   -0.38221  -0.37416  -0.35862  -0.34688  -0.33877
 Alpha  occ. eigenvalues --   -0.33661  -0.33238  -0.32597  -0.31389  -0.31205
 Alpha  occ. eigenvalues --   -0.30605  -0.30378  -0.30002  -0.29795  -0.29327
 Alpha  occ. eigenvalues --   -0.29207  -0.27682  -0.26184  -0.22133
 Alpha virt. eigenvalues --   -0.04687   0.00802   0.01846   0.02959   0.03867
 Alpha virt. eigenvalues --    0.04159   0.04769   0.04836   0.07174   0.08202
 Alpha virt. eigenvalues --    0.09095   0.10192   0.11000   0.11223   0.12153

 Mulliken charges:
               1
     1  C    0.144815
     2  C   -0.192009
     3  C    0.270349
     4  C    0.034439
     5  C   -0.269248
     6  C   -0.024522
     7  C    0.333372
     8  C    0.046966
     9  C    0.251858
    10  C   -0.183158
    11  C    0.137217
    12  C   -0.020284
    13  C   -0.287313
    14  H    0.225628
    15  H    0.227218
    16  O   -0.226123
    17  O   -0.422973
    18  O   -0.422974
    19  C   -0.259818
    20  C   -0.250306
    21  C   -0.036895
    22  C   -0.157910
    23  H    0.189060
    24  C   -0.179961
    25  C   -0.195168
    26  H    0.182750
    27  H    0.172450
    28  H    0.180493
    29  C    0.274121
    30  O   -0.537750
    31  O   -0.528581
    32  Br  -0.114474
    33  Br  -0.114587
    34  Br  -0.123117
    35  Br  -0.123564
 Sum of Mulliken charges =  -2.00000

 Dipole moment (field-independent basis, Debye):
    X=             -1.1925    Y=              0.2035    Z=            -12.5496  Tot=             12.6078
 Quadrupole moment (field-independent basis, Debye-Ang):
   XX=           -348.7099   YY=           -280.9345   ZZ=           -251.0609
   XY=             -3.8201   XZ=             -3.3524   YZ=            -40.5349

 Normal termination of Gaussian 09 at Sun Feb 13 06:19:30 2022.
