 Gaussian 09, Revision E.01,

 ----------------------------------------------------------------------
 #p PBEPBE/def2TZVP opt freq=noraman nosymm int=ultrafine scrf=(SMD,sol
 vent=Acetonitrile) EmpiricalDispersion=GD3BJ
 ----------------------------------------------------------------------

 -----
 Title
 -----
 Symbolic Z-matrix:
 Charge = -2 Multiplicity = 1

 SCF Done:  E(RPBE-PBE) =  -11436.4534574     A.U. after   19 cycles
 SCF Done:  E(RPBE-PBE) =  -11436.4554717     A.U. after   13 cycles
 SCF Done:  E(RPBE-PBE) =  -11436.4547814     A.U. after   13 cycles
 SCF Done:  E(RPBE-PBE) =  -11436.4555294     A.U. after    9 cycles
 SCF Done:  E(RPBE-PBE) =  -11436.4542189     A.U. after   13 cycles
 SCF Done:  E(RPBE-PBE) =  -11436.4556324     A.U. after    9 cycles
 SCF Done:  E(RPBE-PBE) =  -11436.4556546     A.U. after   12 cycles
 SCF Done:  E(RPBE-PBE) =  -11436.4556585     A.U. after   12 cycles
 SCF Done:  E(RPBE-PBE) =  -11436.4556754     A.U. after   11 cycles
 SCF Done:  E(RPBE-PBE) =  -11436.4556758     A.U. after    9 cycles
 SCF Done:  E(RPBE-PBE) =  -11436.4556761     A.U. after    9 cycles
 SCF Done:  E(RPBE-PBE) =  -11436.4556763     A.U. after    9 cycles
 SCF Done:  E(RPBE-PBE) =  -11436.4556763     A.U. after    8 cycles
 Optimization completed.
    -- Stationary point found.
 Normal termination of Gaussian 09 at Sat Feb 12 05:38:57 2022.

 ---------------------------------------------------------------------
 #P Geom=AllCheck Guess=TCheck SCRF=Check GenChk RPBEPBE/def2TZVP Freq
 ---------------------------------------------------------------------

 Structure from the checkpoint file:  "cp.chk"
 -----
 Title
 -----
 Charge = -2 Multiplicity = 1

 SCF Done:  E(RPBE-PBE) =  -11436.4556763     A.U. after    1 cycles

  Exact polarizability: 751.250  70.178 577.462 -82.716-194.975 512.875
 Approx polarizability:1210.018 190.884 909.306-211.943-334.891 788.344

                      1                      2                      3
                      A                      A                      A
 Frequencies --     17.7682                22.9846                25.4999
 Red. masses --     12.0370                15.5816                45.7519
 Frc consts  --      0.0022                 0.0048                 0.0175
 IR Inten    --      8.0024                 3.3854                 0.4079

                      4                      5                      6
                      A                      A                      A
 Frequencies --     43.4768                46.0761                65.0950
 Red. masses --      6.3753                10.8151                32.6162
 Frc consts  --      0.0071                 0.0135                 0.0814
 IR Inten    --      0.9300                 3.7827                 0.0478

                      7                      8                      9
                      A                      A                      A
 Frequencies --     72.1309                74.3247                81.0345
 Red. masses --     18.4565                17.4458                12.5617
 Frc consts  --      0.0566                 0.0568                 0.0486
 IR Inten    --      3.2778                 9.1101                 3.8187

                     10                     11                     12
                      A                      A                      A
 Frequencies --    101.4042               110.6519               120.7868
 Red. masses --     49.1331                 5.5624                17.5301
 Frc consts  --      0.2977                 0.0401                 0.1507
 IR Inten    --      2.3773                 3.2796                35.3997

                     13                     14                     15
                      A                      A                      A
 Frequencies --    121.9210               135.4444               147.1194
 Red. masses --     23.7176                 9.8629                14.8670
 Frc consts  --      0.2077                 0.1066                 0.1896
 IR Inten    --     10.3930                 2.4314                 0.0220

                     16                     17                     18
                      A                      A                      A
 Frequencies --    157.0321               179.2914               200.1030
 Red. masses --      8.9329                12.0109                19.5650
 Frc consts  --      0.1298                 0.2275                 0.4616
 IR Inten    --     10.1659                24.9502                 2.6626

                     19                     20                     21
                      A                      A                      A
 Frequencies --    224.7238               239.8708               251.3807
 Red. masses --      9.7783                 8.6293                15.3296
 Frc consts  --      0.2909                 0.2925                 0.5707
 IR Inten    --     44.5295                 1.0850                 1.6391

                     22                     23                     24
                      A                      A                      A
 Frequencies --    254.1867               260.5701               272.8806
 Red. masses --      7.5521                16.4352                 9.6080
 Frc consts  --      0.2875                 0.6575                 0.4215
 IR Inten    --      0.0385                 6.2105                14.9396

                     25                     26                     27
                      A                      A                      A
 Frequencies --    295.8869               321.4917               341.3056
 Red. masses --      7.5709                12.3530                11.8705
 Frc consts  --      0.3905                 0.7523                 0.8147
 IR Inten    --      4.3293                 7.8556                 9.4492

                     28                     29                     30
                      A                      A                      A
 Frequencies --    362.7221               378.0267               392.8721
 Red. masses --     11.2851                10.1221                 9.3920
 Frc consts  --      0.8748                 0.8522                 0.8541
 IR Inten    --      0.9399                 6.3716                16.8331

                     31                     32                     33
                      A                      A                      A
 Frequencies --    422.5340               434.1030               476.1639
 Red. masses --      3.7318                 9.0494                 6.1283
 Frc consts  --      0.3925                 1.0047                 0.8187
 IR Inten    --      1.6100                87.0021               145.5459

                     34                     35                     36
                      A                      A                      A
 Frequencies --    477.1940               498.9262               510.6337
 Red. masses --      4.7369                 4.1213                 7.6637
 Frc consts  --      0.6355                 0.6044                 1.1774
 IR Inten    --      7.9654                 0.5253                 4.5216

                     37                     38                     39
                      A                      A                      A
 Frequencies --    567.5174               603.7497               611.1561
 Red. masses --      5.9815                 8.4864                 9.2501
 Frc consts  --      1.1351                 1.8226                 2.0356
 IR Inten    --    127.5978                18.9485                28.8661

                     40                     41                     42
                      A                      A                      A
 Frequencies --    623.9149               637.2183               655.9093
 Red. masses --     10.3063                 5.9930                 7.9182
 Frc consts  --      2.3638                 1.4338                 2.0071
 IR Inten    --     89.5743                66.6789                27.6525

                     43                     44                     45
                      A                      A                      A
 Frequencies --    674.4113               683.3807               693.0966
 Red. masses --      9.5934                12.3522                 8.7398
 Frc consts  --      2.5708                 3.3987                 2.4736
 IR Inten    --      0.4372                37.4260                11.0361

                     46                     47                     48
                      A                      A                      A
 Frequencies --    695.9218               713.4285               745.6705
 Red. masses --      2.6579                 8.7532                 8.7770
 Frc consts  --      0.7584                 2.6249                 2.8754
 IR Inten    --    114.2862                34.5626                72.2735

                     49                     50                     51
                      A                      A                      A
 Frequencies --    754.7518               756.3156               760.1083
 Red. masses --      2.0723                 7.8962                 8.3169
 Frc consts  --      0.6955                 2.6612                 2.8311
 IR Inten    --     15.6948                 2.6836                15.9001

                     52                     53                     54
                      A                      A                      A
 Frequencies --    765.5944               770.5472               802.0580
 Red. masses --      7.4097                 6.2396                 8.6818
 Frc consts  --      2.5589                 2.1828                 3.2906
 IR Inten    --     62.2312                 0.1262                42.2477

                     55                     56                     57
                      A                      A                      A
 Frequencies --    806.8131               863.9722               864.7710
 Red. masses --      3.2320                 1.4534                 1.5085
 Frc consts  --      1.2395                 0.6392                 0.6647
 IR Inten    --      2.9760                 1.8034                22.3308

                     58                     59                     60
                      A                      A                      A
 Frequencies --    872.1943               932.4235               943.1101
 Red. masses --      1.6571                 1.4403                 8.8707
 Frc consts  --      0.7427                 0.7378                 4.6487
 IR Inten    --      6.0964                 5.0975                13.6198

                     61                     62                     63
                      A                      A                      A
 Frequencies --    957.3036               961.4781               983.4474
 Red. masses --      1.3013                 7.3835                 6.0338
 Frc consts  --      0.7026                 4.0215                 3.4383
 IR Inten    --      7.2138               459.4774                 2.5507

                     64                     65                     66
                      A                      A                      A
 Frequencies --   1027.9989              1032.1608              1066.4343
 Red. masses --      1.9626                 3.5434                 2.6253
 Frc consts  --      1.2220                 2.2242                 1.7591
 IR Inten    --     35.2227                40.1035                20.6074

                     67                     68                     69
                      A                      A                      A
 Frequencies --   1126.1970              1133.5528              1151.4532
 Red. masses --      1.1653                 2.0344                 3.9724
 Frc consts  --      0.8708                 1.5402                 3.1031
 IR Inten    --      2.2580                 5.8541                29.3778

                     70                     71                     72
                      A                      A                      A
 Frequencies --   1160.9471              1161.7410              1212.6904
 Red. masses --      7.8220                 3.0483                 3.1417
 Frc consts  --      6.2115                 2.4240                 2.7222
 IR Inten    --     29.8744                84.3285                65.2933

                     73                     74                     75
                      A                      A                      A
 Frequencies --   1227.5108              1244.6515              1287.7627
 Red. masses --      1.6887                 2.7575                 3.3125
 Frc consts  --      1.4992                 2.5169                 3.2365
 IR Inten    --      6.9282                 1.0026                30.4093

                     76                     77                     78
                      A                      A                      A
 Frequencies --   1297.7178              1319.9785              1335.9311
 Red. masses --      2.9393                12.1840                 9.0193
 Frc consts  --      2.9165                12.5076                 9.4840
 IR Inten    --    729.5434               381.0973                21.4304

                     79                     80                     81
                      A                      A                      A
 Frequencies --   1361.9614              1403.1434              1418.9353
 Red. masses --      8.5197                 6.2592                 2.4451
 Frc consts  --      9.3112                 7.2606                 2.9005
 IR Inten    --    196.6484               101.1796                 7.0920

                     82                     83                     84
                      A                      A                      A
 Frequencies --   1452.1760              1454.4524              1469.4713
 Red. masses --      3.4784                 9.2441                11.5282
 Frc consts  --      4.3218                11.5217                14.6668
 IR Inten    --     17.1869               124.9722              2736.4109

                     85                     86                     87
                      A                      A                      A
 Frequencies --   1472.7671              1488.2075              1548.8449
 Red. masses --      8.2341                 8.5756                 8.2810
 Frc consts  --     10.5229                11.1902                11.7044
 IR Inten    --    161.0899                 1.6441              1318.8639

                     88                     89                     90
                      A                      A                      A
 Frequencies --   1557.8803              1563.5747              1566.5018
 Red. masses --      7.7632                12.1798                12.7007
 Frc consts  --     11.1009                17.5439                18.3628
 IR Inten    --    381.0194               226.7461               704.7672

                     91                     92                     93
                      A                      A                      A
 Frequencies --   1576.0837              1593.4414              1603.4175
 Red. masses --      7.9909                 7.8911                 9.3959
 Frc consts  --     11.6951                11.8048                14.2325
 IR Inten    --    602.8854               380.3484                18.4965

                     94                     95                     96
                      A                      A                      A
 Frequencies --   3097.3506              3104.3260              3115.0263
 Red. masses --      1.0852                 1.0887                 1.0913
 Frc consts  --      6.1340                 6.1815                 6.2393
 IR Inten    --      0.3441                11.3529                13.6900

                     97                     98                     99
                      A                      A                      A
 Frequencies --   3122.6251              3128.2985              3128.8704
 Red. masses --      1.0974                 1.0906                 1.0905
 Frc consts  --      6.3044                 6.2881                 6.2900
 IR Inten    --     34.6362                 2.8756                 1.5419

 - Thermochemistry -
 -------------------
 Temperature   298.150 Kelvin.  Pressure   1.00000 Atm.
 Atom     1 has atomic number  6 and mass  12.00000

 Molecular mass:   641.69487 amu.
 Principal axes and moments of inertia in atomic units:
                           1         2         3
     Eigenvalues --  ******************************
           X            0.72055   0.69205   0.04335
           Y            0.51432  -0.57534   0.63598
           Z           -0.46507   0.43595   0.77049
 This molecule is an asymmetric top.
 Rotational symmetry number  1.
 Warning -- assumption of classical behavior for rotation
           may cause significant error
 Rotational temperatures (Kelvin)      0.00504     0.00326     0.00212
 Rotational constants (GHZ):           0.10496     0.06791     0.04427
 Zero-point vibrational energy     525471.4 (Joules/Mol)
                                  125.59069 (Kcal/Mol)
 Warning -- explicit consideration of  39 degrees of freedom as
           vibrations may cause significant error
 Vibrational temperatures:     25.56    33.07    36.69    62.55    66.29
          (Kelvin)             93.66   103.78   106.94   116.59   145.90
                              159.20   173.79   175.42   194.87   211.67
                              225.93   257.96   287.90   323.33   345.12
                              361.68   365.72   374.90   392.61   425.71
                              462.55   491.06   521.88   543.90   565.25
                              607.93   624.58   685.09   686.57   717.84
                              734.69   816.53   868.66   879.32   897.67
                              916.81   943.71   970.33   983.23   997.21
                             1001.27  1026.46  1072.85  1085.92  1088.17
                             1093.62  1101.52  1108.64  1153.98  1160.82
                             1243.06  1244.21  1254.89  1341.55  1356.92
                             1377.34  1383.35  1414.96  1479.06  1485.05
                             1534.36  1620.34  1630.93  1656.68  1670.34
                             1671.48  1744.79  1766.11  1790.77  1852.80
                             1867.12  1899.15  1922.10  1959.56  2018.81
                             2041.53  2089.35  2092.63  2114.24  2118.98
                             2141.20  2228.44  2241.44  2249.63  2253.84
                             2267.63  2292.60  2306.96  4456.39  4466.43
                             4481.82  4492.76  4500.92  4501.74

 Zero-point correction=                           0.200142 (Hartree/Particle)
 Thermal correction to Energy=                    0.225987
 Thermal correction to Enthalpy=                  0.226931
 Thermal correction to Gibbs Free Energy=         0.139267
 Sum of electronic and zero-point Energies=         -11436.255535
 Sum of electronic and thermal Energies=            -11436.229690
 Sum of electronic and thermal Enthalpies=          -11436.228745
 Sum of electronic and thermal Free Energies=       -11436.316409

                     E (Thermal)             CV                S
                      KCal/Mol        Cal/Mol-Kelvin    Cal/Mol-Kelvin
 Total                  141.809             92.951            184.504
 Electronic               0.000              0.000              0.000
 Translational            0.889              2.981             45.259
 Rotational               0.889              2.981             38.163
 Vibrational            140.031             86.990            101.082
 Vibration     1          0.593              1.986              6.869
 Vibration     2          0.593              1.985              6.358
 Vibration     3          0.593              1.985              6.152
 Vibration     4          0.595              1.980              5.094
 Vibration     5          0.595              1.979              4.979
 Vibration     6          0.597              1.971              4.296
 Vibration     7          0.598              1.967              4.094
 Vibration     8          0.599              1.966              4.035
 Vibration     9          0.600              1.962              3.866
 Vibration    10          0.604              1.948              3.427
 Vibration    11          0.606              1.941              3.257
 Vibration    12          0.609              1.932              3.088
 Vibration    13          0.609              1.931              3.070
 Vibration    14          0.613              1.918              2.867
 Vibration    15          0.617              1.906              2.709
 Vibration    16          0.621              1.895              2.585
 Vibration    17          0.629              1.868              2.336
 Vibration    18          0.638              1.840              2.132
 Vibration    19          0.649              1.803              1.921
 Vibration    20          0.657              1.779              1.804
 Vibration    21          0.663              1.760              1.721
 Vibration    22          0.665              1.756              1.701
 Vibration    23          0.669              1.745              1.658
 Vibration    24          0.676              1.723              1.578
 Vibration    25          0.690              1.681              1.440
 Vibration    26          0.707              1.632              1.303
 Vibration    27          0.721              1.593              1.206
 Vibration    28          0.737              1.549              1.110
 Vibration    29          0.748              1.517              1.047
 Vibration    30          0.760              1.485              0.989
 Vibration    31          0.785              1.421              0.883
 Vibration    32          0.795              1.396              0.845
 Vibration    33          0.833              1.303              0.720
 Vibration    34          0.834              1.301              0.718
 Vibration    35          0.854              1.252              0.661
 Vibration    36          0.866              1.226              0.632
 Vibration    37          0.923              1.102              0.509
 Vibration    38          0.962              1.024              0.443
 Vibration    39          0.970              1.008              0.431

 Optimization completed.
    -- Stationary point found.
 Normal termination of Gaussian 09 at Sat Feb 12 08:52:26 2022.
 Gaussian 09:  ES64L-G09RevE.01 30-Nov-2015

 ----------------------------------------------------------------------
 #p PBEPBE chkbasis geom=allcheck Guess=Read int=ultrafine scrf=(SMD,so
 lvent=Acetonitrile) td=(NStates=30) EmpiricalDispersion=GD3BJ
 ----------------------------------------------------------------------

 Structure from the checkpoint file:  "cp.chk"
 -----
 Title
 -----
 Charge = -2 Multiplicity = 1

                         Standard orientation:
 ---------------------------------------------------------------------
 Center     Atomic      Atomic             Coordinates (Angstroms)
 Number     Number       Type             X           Y           Z
 ---------------------------------------------------------------------
      1          6           0       -3.675842   -1.167870   -0.089954
      2          6           0       -2.347188   -1.755009   -0.026910
      3          6           0       -1.182420   -1.007027   -0.057179
      4          6           0       -1.214540    0.415046   -0.149403
      5          6           0       -2.490482    1.037430   -0.212351
      6          6           0       -3.638522    0.294363   -0.184124
      7          6           0       -0.000424    1.138147   -0.146872
      8          6           0        1.218335    0.423158   -0.146041
      9          6           0        1.196138   -0.999264   -0.057748
     10          6           0        2.366157   -1.739434   -0.031867
     11          6           0        3.690689   -1.142237   -0.088431
     12          6           0        3.642881    0.320335   -0.171300
     13          6           0        2.489729    1.055133   -0.200061
     14          1           0       -2.534934    2.124429   -0.278228
     15          1           0        2.526387    2.142815   -0.258577
     16          8           0        0.009081   -1.675527    0.004639
     17          8           0        4.753454   -1.799965   -0.071299
     18          8           0       -4.733511   -1.833666   -0.070076
     19          6           0       -0.004243    2.606569   -0.400607
     20          6           0        0.019448    3.033479   -1.738711
     21          6           0       -0.032745    3.559372    0.633608
     22          6           0        0.016786    4.392992   -2.053497
     23          1           0        0.040741    2.287634   -2.536467
     24          6           0       -0.037500    4.920567    0.300646
     25          6           0       -0.011824    5.343192   -1.027998
     26          1           0        0.036773    4.707286   -3.098942
     27          1           0       -0.061339    5.638007    1.123187
     28          1           0       -0.013922    6.408879   -1.266910
     29          6           0       -0.055066    3.121864    2.101116
     30          8           0       -0.111095    4.028740    2.974515
     31          8           0       -0.012445    1.869402    2.294641
     32         35           0       -2.248172   -3.650547    0.094558
     33         35           0        2.281099   -3.636706    0.073592
     34         35           0        5.328691    1.218735   -0.244501
     35         35           0       -5.331155    1.179210   -0.273858
 ---------------------------------------------------------------------

 SCF Done:  E(RPBE-PBE) =  -11436.4555751     A.U. after    9 cycles

 Excitation energies and oscillator strengths:

 Excited State   1:      Singlet-A      2.1977 eV  564.15 nm  f=0.0235  <S**2>=0.000
     152 -> 155       -0.31687
     153 -> 155        0.62567
 This state for optimization and/or second-order correction.
 Total Energy, E(TD-HF/TD-KS) =  -11436.3748106
 Copying the excited state density for this state as the 1-particle RhoCI density.

 Excited State   2:      Singlet-A      2.4862 eV  498.68 nm  f=0.5376  <S**2>=0.000
     148 -> 155        0.13101
     154 -> 155        0.68493

 Excited State   3:      Singlet-A      2.5709 eV  482.25 nm  f=0.0624  <S**2>=0.000
     152 -> 155        0.62361
     153 -> 155        0.30091

 Excited State   4:      Singlet-A      2.6300 eV  471.43 nm  f=0.0003  <S**2>=0.000
     150 -> 155        0.70674

 Excited State   5:      Singlet-A      2.6962 eV  459.84 nm  f=0.0046  <S**2>=0.000
     149 -> 155        0.57704
     151 -> 155        0.40149

 Excited State   6:      Singlet-A      2.7112 eV  457.30 nm  f=0.0139  <S**2>=0.000
     149 -> 155       -0.40783
     151 -> 155        0.56357

 Excited State   7:      Singlet-A      2.8603 eV  433.46 nm  f=0.0601  <S**2>=0.000
     148 -> 155        0.69200
     154 -> 155       -0.12175

 Excited State   8:      Singlet-A      2.9387 eV  421.90 nm  f=0.0181  <S**2>=0.000
     154 -> 156        0.69508

 Excited State   9:      Singlet-A      3.0950 eV  400.59 nm  f=0.0001  <S**2>=0.000
     153 -> 156        0.70546

 Excited State  10:      Singlet-A      3.2064 eV  386.68 nm  f=0.0109  <S**2>=0.000
     154 -> 157        0.67699
     154 -> 158       -0.18763

 Excited State  11:      Singlet-A      3.3215 eV  373.27 nm  f=0.0000  <S**2>=0.000
     153 -> 157        0.70400

 Excited State  12:      Singlet-A      3.3668 eV  368.25 nm  f=0.0362  <S**2>=0.000
     146 -> 155        0.69765

 Excited State  13:      Singlet-A      3.4769 eV  356.59 nm  f=0.0004  <S**2>=0.000
     152 -> 156       -0.28694
     154 -> 159        0.63560

 Excited State  14:      Singlet-A      3.4839 eV  355.88 nm  f=0.0056  <S**2>=0.000
     151 -> 156       -0.10200
     152 -> 156        0.62369
     154 -> 159        0.29270

 Excited State  15:      Singlet-A      3.5293 eV  351.30 nm  f=0.0026  <S**2>=0.000
     145 -> 155       -0.30110
     147 -> 155        0.58619
     154 -> 158       -0.11716
     154 -> 162       -0.17184

 Excited State  16:      Singlet-A      3.5538 eV  348.87 nm  f=0.0005  <S**2>=0.000
     145 -> 155        0.63609
     147 -> 155        0.26982

 Excited State  17:      Singlet-A      3.5701 eV  347.29 nm  f=0.0002  <S**2>=0.000
     153 -> 158        0.67838
     154 -> 161       -0.13473

 Excited State  18:      Singlet-A      3.5892 eV  345.44 nm  f=0.0014  <S**2>=0.000
     153 -> 159        0.67416
     154 -> 158       -0.10060
     154 -> 160       -0.16708

 Excited State  19:      Singlet-A      3.6003 eV  344.37 nm  f=0.0161  <S**2>=0.000
     151 -> 156        0.66641
     152 -> 156        0.11271
     152 -> 157        0.12958

 Excited State  20:      Singlet-A      3.6112 eV  343.33 nm  f=0.0159  <S**2>=0.000
     150 -> 156        0.56713
     153 -> 159        0.10549
     153 -> 161       -0.11717
     154 -> 158        0.31975
     154 -> 160        0.15711

 Excited State  21:      Singlet-A      3.6216 eV  342.35 nm  f=0.0231  <S**2>=0.000
     150 -> 156       -0.41527
     153 -> 159        0.12124
     153 -> 161       -0.17739
     154 -> 157        0.10812
     154 -> 158        0.47117
     154 -> 160        0.11254

 Excited State  22:      Singlet-A      3.6561 eV  339.12 nm  f=0.0055  <S**2>=0.000
     153 -> 159        0.13327
     154 -> 158       -0.16147
     154 -> 160        0.63610
     154 -> 161       -0.13512

 Excited State  23:      Singlet-A      3.6686 eV  337.96 nm  f=0.0001  <S**2>=0.000
     144 -> 155        0.69725

 Excited State  24:      Singlet-A      3.6805 eV  336.87 nm  f=0.0015  <S**2>=0.000
     149 -> 156       -0.45918
     152 -> 157        0.51115
     154 -> 161       -0.10129

 Excited State  25:      Singlet-A      3.6860 eV  336.37 nm  f=0.0057  <S**2>=0.000
     149 -> 156        0.53471
     152 -> 157        0.43812

 Excited State  26:      Singlet-A      3.7660 eV  329.22 nm  f=0.0006  <S**2>=0.000
     153 -> 160        0.69085
     153 -> 161       -0.13221

 Excited State  27:      Singlet-A      3.8183 eV  324.71 nm  f=0.0246  <S**2>=0.000
     151 -> 157        0.14472
     152 -> 158       -0.21754
     153 -> 158        0.11595
     154 -> 160        0.12550
     154 -> 161        0.59212

 Excited State  28:      Singlet-A      3.8303 eV  323.69 nm  f=0.0002  <S**2>=0.000
     143 -> 155        0.70147

 Excited State  29:      Singlet-A      3.8496 eV  322.07 nm  f=0.0581  <S**2>=0.000
     150 -> 157       -0.11333
     151 -> 157        0.10955
     152 -> 161       -0.11032
     153 -> 160        0.11355
     153 -> 161        0.62229
     154 -> 158        0.19627

 Excited State  30:      Singlet-A      3.8559 eV  321.55 nm  f=0.0196  <S**2>=0.000
     151 -> 157        0.63717
     151 -> 158       -0.16287
     152 -> 158        0.19247
     153 -> 161       -0.11404

 The electronic state is 1-A.
 Alpha  occ. eigenvalues -- -480.99700-480.99699-480.99577-480.99576 -61.80148
 Alpha  occ. eigenvalues --  -61.80148 -61.80014 -61.80012 -55.71586 -55.71586
 Alpha  occ. eigenvalues --  -55.71465 -55.71463 -55.71196 -55.71196 -55.71170
 Alpha  occ. eigenvalues --  -55.71170 -55.71062 -55.71060 -55.71027 -55.71025
 Alpha  occ. eigenvalues --  -18.81541 -18.69170 -18.69169 -18.67400 -18.66813
 Alpha  occ. eigenvalues --   -9.95605  -9.95602  -9.93916  -9.93915  -9.93793
 Alpha  occ. eigenvalues --   -9.92279  -9.92273  -9.92170  -9.91827  -9.91825
 Alpha  occ. eigenvalues --   -9.89574  -9.89552  -9.89540  -9.88940  -9.88931
 Alpha  occ. eigenvalues --   -9.88349  -9.88216  -9.88152  -9.88038  -9.87624
 Alpha  occ. eigenvalues --   -8.39667  -8.39667  -8.39530  -8.39528  -6.27424
 Alpha  occ. eigenvalues --   -6.27424  -6.27320  -6.27318  -6.26267  -6.26267
 Alpha  occ. eigenvalues --   -6.26183  -6.26183  -6.26125  -6.26124  -6.26013
 Alpha  occ. eigenvalues --   -6.26012  -2.47584  -2.47584  -2.47473  -2.47471
 Alpha  occ. eigenvalues --   -2.47298  -2.47298  -2.47242  -2.47242  -2.47181
 Alpha  occ. eigenvalues --   -2.47179  -2.47105  -2.47103  -2.46384  -2.46383
 Alpha  occ. eigenvalues --   -2.46382  -2.46382  -2.46219  -2.46217  -2.46217
 Alpha  occ. eigenvalues --   -2.46215  -1.01548  -0.91127  -0.90369  -0.90353
 Alpha  occ. eigenvalues --   -0.82877  -0.79369  -0.78726  -0.77008  -0.74252
 Alpha  occ. eigenvalues --   -0.73823  -0.73160  -0.70653  -0.68805  -0.67012
 Alpha  occ. eigenvalues --   -0.66756  -0.65884  -0.63409  -0.63187  -0.57996
 Alpha  occ. eigenvalues --   -0.57065  -0.55380  -0.54328  -0.51783  -0.51343
 Alpha  occ. eigenvalues --   -0.48219  -0.48056  -0.46510  -0.45583  -0.42478
 Alpha  occ. eigenvalues --   -0.42251  -0.41652  -0.40382  -0.40100  -0.39707
 Alpha  occ. eigenvalues --   -0.38436  -0.37832  -0.36750  -0.36459  -0.36173
 Alpha  occ. eigenvalues --   -0.36045  -0.35851  -0.34584  -0.34519  -0.34256
 Alpha  occ. eigenvalues --   -0.33636  -0.33043  -0.32675  -0.31649  -0.31006
 Alpha  occ. eigenvalues --   -0.30982  -0.30405  -0.29506  -0.28859  -0.28589
 Alpha  occ. eigenvalues --   -0.28023  -0.27143  -0.25643  -0.25045  -0.24111
 Alpha  occ. eigenvalues --   -0.23998  -0.23598  -0.23124  -0.22517  -0.22089
 Alpha  occ. eigenvalues --   -0.20992  -0.20877  -0.19438  -0.18777  -0.18520
 Alpha  occ. eigenvalues --   -0.18349  -0.17807  -0.16491  -0.15939
 Alpha virt. eigenvalues --   -0.09067  -0.05254  -0.04318  -0.03417  -0.03307
 Alpha virt. eigenvalues --   -0.02678  -0.02583  -0.01539  -0.00321   0.00406
 Alpha virt. eigenvalues --    0.03426   0.04349   0.05086   0.05446   0.06139

 Mulliken charges:
               1
     1  C   -0.018451
     2  C   -0.098664
     3  C    0.162675
     4  C    0.058928
     5  C   -0.358274
     6  C    0.101751
     7  C    0.440995
     8  C    0.061459
     9  C    0.167352
    10  C   -0.101269
    11  C   -0.016930
    12  C    0.100061
    13  C   -0.357950
    14  H    0.146330
    15  H    0.146233
    16  O   -0.144381
    17  O   -0.368785
    18  O   -0.368677
    19  C   -0.084706
    20  C   -0.278130
    21  C   -0.004922
    22  C   -0.125838
    23  H    0.127394
    24  C   -0.212876
    25  C   -0.147091
    26  H    0.140440
    27  H    0.118328
    28  H    0.138019
    29  C    0.177564
    30  O   -0.456885
    31  O   -0.443834
    32  Br  -0.116696
    33  Br  -0.116789
    34  Br  -0.133171
    35  Br  -0.133210
 Sum of Mulliken charges =  -2.00000

 Dipole moment (field-independent basis, Debye):
    X=              0.2131    Y=              0.3204    Z=            -11.4698  Tot=             11.4763
 Quadrupole moment (field-independent basis, Debye-Ang):
   XX=           -349.8401   YY=           -279.5615   ZZ=           -248.9759
   XY=              0.7815   XZ=              0.7124   YZ=            -37.9149

 Normal termination of Gaussian 09 at Sat Feb 12 11:35:31 2022.
