 Gaussian 09, Revision E.01,

 ----------------------------------------------------------------------
 #p m06l/def2TZVP opt freq=noraman nosymm int=ultrafine scrf=(SMD,solve
 nt=Acetonitrile)
 ----------------------------------------------------------------------

 -----
 Title
 -----
 Symbolic Z-matrix:
 Charge = -2 Multiplicity = 1

 SCF Done:  E(RM06L) =  -11438.7031819     A.U. after   19 cycles
 SCF Done:  E(RM06L) =  -11438.7085800     A.U. after   15 cycles
 SCF Done:  E(RM06L) =  -11438.7086007     A.U. after   13 cycles
 SCF Done:  E(RM06L) =  -11438.7011428     A.U. after   14 cycles
 SCF Done:  E(RM06L) =  -11438.7087402     A.U. after   12 cycles
 SCF Done:  E(RM06L) =  -11438.7089607     A.U. after   12 cycles
 SCF Done:  E(RM06L) =  -11438.7089683     A.U. after   11 cycles
 SCF Done:  E(RM06L) =  -11438.7089700     A.U. after   10 cycles
 SCF Done:  E(RM06L) =  -11438.7089747     A.U. after   11 cycles
 SCF Done:  E(RM06L) =  -11438.7089769     A.U. after   12 cycles
 SCF Done:  E(RM06L) =  -11438.7089877     A.U. after   11 cycles
 SCF Done:  E(RM06L) =  -11438.7089967     A.U. after   11 cycles
 SCF Done:  E(RM06L) =  -11438.7089972     A.U. after   12 cycles
 SCF Done:  E(RM06L) =  -11438.7089984     A.U. after   12 cycles
 SCF Done:  E(RM06L) =  -11438.7090004     A.U. after   11 cycles
 SCF Done:  E(RM06L) =  -11438.7090007     A.U. after   10 cycles
 SCF Done:  E(RM06L) =  -11438.7090008     A.U. after   10 cycles
 SCF Done:  E(RM06L) =  -11438.7090008     A.U. after    7 cycles
 Optimization completed.
    -- Stationary point found.
 Normal termination of Gaussian 09 at Sat Feb 12 07:36:14 2022.

 -------------------------------------------------------------------
 #P Geom=AllCheck Guess=TCheck SCRF=Check GenChk RM06L/def2TZVP Freq
 -------------------------------------------------------------------

 Structure from the checkpoint file:  "cp.chk"
 -----
 Title
 -----
 Charge = -2 Multiplicity = 1

 SCF Done:  E(RM06L) =  -11438.7090008     A.U. after    1 cycles

  Exact polarizability: 727.372  72.975 536.710 -89.714-188.355 505.425
 Approx polarizability:1070.715 165.632 769.192-191.560-294.165 714.017

                      1                      2                      3
                      A                      A                      A
 Frequencies --     15.1720                21.9699                28.9893
 Red. masses --     10.4982                19.3721                49.2009
 Frc consts  --      0.0014                 0.0055                 0.0244
 IR Inten    --      8.7053                 0.9670                 0.0300

                      4                      5                      6
                      A                      A                      A
 Frequencies --     45.1978                46.1927                67.9418
 Red. masses --      6.7636                10.1955                32.6905
 Frc consts  --      0.0081                 0.0128                 0.0889
 IR Inten    --      3.6398                 4.0991                 0.2558

                      7                      8                      9
                      A                      A                      A
 Frequencies --     68.5219                77.0251                81.0788
 Red. masses --     13.3465                17.8280                17.3672
 Frc consts  --      0.0369                 0.0623                 0.0673
 IR Inten    --      3.9437                 5.8301                 5.6717

                     10                     11                     12
                      A                      A                      A
 Frequencies --    105.0520               116.5307               127.8891
 Red. masses --     51.1815                 5.5140                22.8218
 Frc consts  --      0.3328                 0.0441                 0.2199
 IR Inten    --      0.9393                 3.4693                 7.4716

                     13                     14                     15
                      A                      A                      A
 Frequencies --    130.0382               138.4819               150.9046
 Red. masses --     17.2121                 9.3507                15.3414
 Frc consts  --      0.1715                 0.1057                 0.2058
 IR Inten    --     16.2745                 2.4212                 0.0148

                     16                     17                     18
                      A                      A                      A
 Frequencies --    166.9568               188.4963               206.3589
 Red. masses --      9.2434                11.8748                18.7142
 Frc consts  --      0.1518                 0.2486                 0.4695
 IR Inten    --      4.3927                17.5979                 3.5576

                     19                     20                     21
                      A                      A                      A
 Frequencies --    241.9821               248.4735               262.0463
 Red. masses --      9.4868                 9.4152                14.8568
 Frc consts  --      0.3273                 0.3425                 0.6011
 IR Inten    --     33.6437                 1.7231                 2.0373

                     22                     23                     24
                      A                      A                      A
 Frequencies --    264.5666               270.5838               283.5889
 Red. masses --      7.7364                16.3632                 8.8123
 Frc consts  --      0.3190                 0.7059                 0.4176
 IR Inten    --      0.0648                 7.8951                20.6495

                     25                     26                     27
                      A                      A                      A
 Frequencies --    308.7934               334.3791               356.5014
 Red. masses --      7.4853                12.7757                11.7970
 Frc consts  --      0.4205                 0.8416                 0.8834
 IR Inten    --      3.4889                 4.1056                 9.5177

                     28                     29                     30
                      A                      A                      A
 Frequencies --    378.5093               391.8407               408.4788
 Red. masses --     11.2390                10.3202                 9.4144
 Frc consts  --      0.9487                 0.9336                 0.9255
 IR Inten    --      0.5494                 6.2855                13.9998

                     31                     32                     33
                      A                      A                      A
 Frequencies --    436.5244               449.9093               492.2349
 Red. masses --      3.6812                 9.8835                 6.3481
 Frc consts  --      0.4133                 1.1787                 0.9062
 IR Inten    --      0.1288                99.8414               173.7873

                     34                     35                     36
                      A                      A                      A
 Frequencies --    495.5803               517.2657               532.6111
 Red. masses --      4.5684                 4.2072                 7.4415
 Frc consts  --      0.6611                 0.6632                 1.2437
 IR Inten    --      5.3255                 0.3261                 6.6044

                     37                     38                     39
                      A                      A                      A
 Frequencies --    591.5130               625.3636               644.7558
 Red. masses --      5.8129                 8.3714                 9.6712
 Frc consts  --      1.1983                 1.9289                 2.3688
 IR Inten    --    127.1430                 8.2828                63.8492

                     40                     41                     42
                      A                      A                      A
 Frequencies --    646.5558               661.8231               677.6130
 Red. masses --     10.1970                 6.0316                 7.7676
 Frc consts  --      2.5115                 1.5566                 2.1014
 IR Inten    --     44.3807                67.3500                29.2549

                     43                     44                     45
                      A                      A                      A
 Frequencies --    704.0799               706.4442               717.2293
 Red. masses --      9.6045                12.1713                 8.7497
 Frc consts  --      2.8052                 3.5789                 2.6519
 IR Inten    --      0.0547                44.8171                10.1709

                     46                     47                     48
                      A                      A                      A
 Frequencies --    725.2645               747.8620               767.8730
 Red. masses --      2.6070                 8.5724                 8.7593
 Frc consts  --      0.8079                 2.8249                 3.0430
 IR Inten    --    108.7338                29.2634                73.4758

                     49                     50                     51
                      A                      A                      A
 Frequencies --    782.6091               785.4975               786.3857
 Red. masses --      9.9830                 2.4151                 6.5942
 Frc consts  --      3.6025                 0.8780                 2.4026
 IR Inten    --      0.0794                19.0236                16.6919

                     52                     53                     54
                      A                      A                      A
 Frequencies --    794.2618               797.3869               831.7159
 Red. masses --      7.7818                 5.1255                 8.7970
 Frc consts  --      2.8924                 1.9201                 3.5854
 IR Inten    --     72.7415                 0.7949                59.9578

                     55                     56                     57
                      A                      A                      A
 Frequencies --    840.3929               902.0161               903.8289
 Red. masses --      3.3957                 1.4483                 1.4623
 Frc consts  --      1.4130                 0.6943                 0.7038
 IR Inten    --      2.1040                 6.6109                17.5373

                     58                     59                     60
                      A                      A                      A
 Frequencies --    907.6987               974.4442               979.6673
 Red. masses --      1.6021                 8.8244                 1.6810
 Frc consts  --      0.7777                 4.9368                 0.9506
 IR Inten    --      6.4316                10.4559                65.8663

                     61                     62                     63
                      A                      A                      A
 Frequencies --    994.3106              1013.4299              1016.9239
 Red. masses --      4.4147                 1.3015                 6.2530
 Frc consts  --      2.5715                 0.7876                 3.8099
 IR Inten    --    459.7897                 0.4469                 2.5042

                     64                     65                     66
                      A                      A                      A
 Frequencies --   1064.4825              1070.4281              1104.3734
 Red. masses --      2.1571                 3.7011                 2.5845
 Frc consts  --      1.4401                 2.4986                 1.8572
 IR Inten    --     23.7654                59.0481                23.4220

                     67                     68                     69
                      A                      A                      A
 Frequencies --   1165.4871              1173.0977              1188.8975
 Red. masses --      1.1281                 2.1377                 3.9156
 Frc consts  --      0.9028                 1.7333                 3.2609
 IR Inten    --      3.3037                 4.3493                36.8984

                     70                     71                     72
                      A                      A                      A
 Frequencies --   1198.5646              1209.1969              1260.1652
 Red. masses --      8.3080                 2.9542                 3.1412
 Frc consts  --      7.0319                 2.5450                 2.9390
 IR Inten    --     28.3580                65.3247               129.1680

                     73                     74                     75
                      A                      A                      A
 Frequencies --   1271.8893              1290.5759              1329.6414
 Red. masses --      1.6867                 3.0718                 3.2358
 Frc consts  --      1.6076                 3.0145                 3.3706
 IR Inten    --      5.3574                 2.3589                30.7991

                     76                     77                     78
                      A                      A                      A
 Frequencies --   1347.0011              1360.1861              1380.9417
 Red. masses --      3.0249                 7.4517                12.4587
 Frc consts  --      3.2337                 8.1227                13.9982
 IR Inten    --    838.9297                15.4283               453.4794

                     79                     80                     81
                      A                      A                      A
 Frequencies --   1403.9629              1448.9150              1466.5042
 Red. masses --      7.8801                 6.2574                 2.3777
 Frc consts  --      9.1515                 7.7398                 3.0128
 IR Inten    --    257.9555                75.2696                10.8163

                     82                     83                     84
                      A                      A                      A
 Frequencies --   1502.6499              1504.6246              1515.8946
 Red. masses --      3.6446                 7.1818                11.3146
 Frc consts  --      4.8486                 9.5794                15.3189
 IR Inten    --     39.6513                 6.2705              3486.8427

                     85                     86                     87
                      A                      A                      A
 Frequencies --   1527.1858              1534.5045              1595.9473
 Red. masses --      8.7151                 7.9871                 7.8170
 Frc consts  --     11.9759                11.0809                11.7307
 IR Inten    --    179.9391                14.3122              1741.5586

                     88                     89                     90
                      A                      A                      A
 Frequencies --   1610.8325              1628.8411              1631.8551
 Red. masses --      6.7311                12.7215                12.5239
 Frc consts  --     10.2905                19.8860                19.6496
 IR Inten    --     97.8808               393.0236               651.3165

                     91                     92                     93
                      A                      A                      A
 Frequencies --   1637.4066              1651.2757              1664.4627
 Red. masses --      6.7553                 8.4051                10.4270
 Frc consts  --     10.6711                13.5030                17.0199
 IR Inten    --    280.5952               548.0204               371.4378

                     94                     95                     96
                      A                      A                      A
 Frequencies --   3170.4031              3178.8095              3191.7058
 Red. masses --      1.0865                 1.0878                 1.0913
 Frc consts  --      6.4347                 6.4766                 6.5500
 IR Inten    --      4.7779                11.4050                15.4277

                     97                     98                     99
                      A                      A                      A
 Frequencies --   3195.0683              3196.6663              3200.3264
 Red. masses --      1.0911                 1.0908                 1.0978
 Frc consts  --      6.5627                 6.5676                 6.6244
 IR Inten    --      3.2319                 2.2267                39.1397

 - Thermochemistry -
 -------------------
 Temperature   298.150 Kelvin.  Pressure   1.00000 Atm.
 Atom     1 has atomic number  6 and mass  12.00000

 Molecular mass:   641.69487 amu.
 Principal axes and moments of inertia in atomic units:
                           1         2         3
     Eigenvalues --  ******************************
           X            0.73333   0.67746   0.05713
           Y            0.49181  -0.58662   0.64343
           Z           -0.46941   0.44375   0.76337
 This molecule is an asymmetric top.
 Rotational symmetry number  1.
 Warning -- assumption of classical behavior for rotation
           may cause significant error
 Rotational temperatures (Kelvin)      0.00510     0.00330     0.00215
 Rotational constants (GHZ):           0.10617     0.06872     0.04475
 Zero-point vibrational energy     543441.9 (Joules/Mol)
                                  129.88572 (Kcal/Mol)
 Warning -- explicit consideration of  37 degrees of freedom as
           vibrations may cause significant error
 Vibrational temperatures:     21.83    31.61    41.71    65.03    66.46
          (Kelvin)             97.75    98.59   110.82   116.65   151.15
                              167.66   184.00   187.10   199.24   217.12
                              240.21   271.20   296.90   348.16   357.50
                              377.03   380.65   389.31   408.02   444.28
                              481.10   512.93   544.59   563.77   587.71
                              628.06   647.32   708.22   713.03   744.23
                              766.31   851.05   899.76   927.66   930.25
                              952.21   974.93  1013.01  1016.41  1031.93
                             1043.49  1076.01  1104.80  1126.00  1130.15
                             1131.43  1142.76  1147.26  1196.65  1209.14
                             1297.80  1300.41  1305.97  1402.01  1409.52
                             1430.59  1458.10  1463.12  1531.55  1540.11
                             1588.94  1676.87  1687.82  1710.56  1724.46
                             1739.76  1813.09  1829.96  1856.85  1913.06
                             1938.03  1957.00  1986.86  2019.99  2084.66
                             2109.97  2161.98  2164.82  2181.03  2197.28
                             2207.81  2296.21  2317.63  2343.54  2347.87
                             2355.86  2375.81  2394.79  4561.50  4573.59
                             4592.15  4596.98  4599.28  4604.55

 Zero-point correction=                           0.206986 (Hartree/Particle)
 Thermal correction to Energy=                    0.232144
 Thermal correction to Enthalpy=                  0.233088
 Thermal correction to Gibbs Free Energy=         0.146751
 Sum of electronic and zero-point Energies=         -11438.502015
 Sum of electronic and thermal Energies=            -11438.476857
 Sum of electronic and thermal Enthalpies=          -11438.475912
 Sum of electronic and thermal Free Energies=       -11438.562249

                     E (Thermal)             CV                S
                      KCal/Mol        Cal/Mol-Kelvin    Cal/Mol-Kelvin
 Total                  145.673             90.426            181.711
 Electronic               0.000              0.000              0.000
 Translational            0.889              2.981             45.259
 Rotational               0.889              2.981             38.129
 Vibrational            143.895             84.464             98.323
 Vibration     1          0.593              1.986              7.183
 Vibration     2          0.593              1.985              6.448
 Vibration     3          0.593              1.984              5.897
 Vibration     4          0.595              1.979              5.017
 Vibration     5          0.595              1.979              4.974
 Vibration     6          0.598              1.970              4.212
 Vibration     7          0.598              1.969              4.195
 Vibration     8          0.599              1.964              3.965
 Vibration     9          0.600              1.962              3.865
 Vibration    10          0.605              1.945              3.358
 Vibration    11          0.608              1.936              3.157
 Vibration    12          0.611              1.925              2.978
 Vibration    13          0.612              1.923              2.945
 Vibration    14          0.614              1.915              2.825
 Vibration    15          0.618              1.902              2.661
 Vibration    16          0.624              1.883              2.469
 Vibration    17          0.633              1.856              2.243
 Vibration    18          0.641              1.831              2.076
 Vibration    19          0.658              1.776              1.788
 Vibration    20          0.662              1.765              1.741
 Vibration    21          0.669              1.742              1.648
 Vibration    22          0.671              1.738              1.631
 Vibration    23          0.674              1.727              1.592
 Vibration    24          0.682              1.704              1.512
 Vibration    25          0.698              1.657              1.369
 Vibration    26          0.716              1.607              1.239
 Vibration    27          0.732              1.562              1.137
 Vibration    28          0.749              1.516              1.045
 Vibration    29          0.759              1.488              0.993
 Vibration    30          0.773              1.452              0.932
 Vibration    31          0.797              1.391              0.838
 Vibration    32          0.809              1.361              0.796
 Vibration    33          0.848              1.267              0.678
 Vibration    34          0.851              1.260              0.669
 Vibration    35          0.872              1.212              0.616
 Vibration    36          0.888              1.178              0.581
 Vibration    37          0.949              1.050              0.464

 Optimization completed.
    -- Stationary point found.
 Normal termination of Gaussian 09 at Sat Feb 12 11:42:33 2022.
 Gaussian 09:  ES64L-G09RevE.01 30-Nov-2015

 ----------------------------------------------------------------------
 #p m06l chkbasis geom=allcheck Guess=Read int=ultrafine scrf=(SMD,solv
 ent=Acetonitrile) td=(NStates=30)
 ----------------------------------------------------------------------

 Structure from the checkpoint file:  "cp.chk"
 -----
 Title
 -----
 Charge = -2 Multiplicity = 1

                         Standard orientation:
 ---------------------------------------------------------------------
 Center     Atomic      Atomic             Coordinates (Angstroms)
 Number     Number       Type             X           Y           Z
 ---------------------------------------------------------------------
      1          6           0       -3.610096   -1.225476   -0.100474
      2          6           0       -2.281572   -1.787323   -0.043678
      3          6           0       -1.141476   -1.019423   -0.077937
      4          6           0       -1.197402    0.393320   -0.171831
      5          6           0       -2.480146    0.985828   -0.228281
      6          6           0       -3.607437    0.228740   -0.194422
      7          6           0       -0.003749    1.130133   -0.183422
      8          6           0        1.218905    0.443344   -0.162352
      9          6           0        1.221682   -0.970580   -0.069666
     10          6           0        2.392825   -1.690075   -0.026585
     11          6           0        3.696768   -1.071763   -0.063936
     12          6           0        3.633536    0.381695   -0.148470
     13          6           0        2.475848    1.090342   -0.194997
     14          1           0       -2.545845    2.064023   -0.295958
     15          1           0        2.496119    2.170944   -0.251628
     16          8           0        0.053742   -1.658557   -0.021158
     17          8           0        4.760550   -1.704802   -0.028456
     18          8           0       -4.646062   -1.903635   -0.075740
     19          6           0       -0.032966    2.596554   -0.412806
     20          6           0        0.077570    3.031183   -1.735189
     21          6           0       -0.182155    3.537099    0.613648
     22          6           0        0.046547    4.380669   -2.047619
     23          1           0        0.188497    2.296215   -2.524568
     24          6           0       -0.218022    4.888792    0.277500
     25          6           0       -0.101774    5.317024   -1.033940
     26          1           0        0.137289    4.696649   -3.079467
     27          1           0       -0.338013    5.596394    1.088779
     28          1           0       -0.126151    6.374467   -1.267945
     29          6           0       -0.290275    3.116995    2.075228
     30          8           0       -0.561597    4.016152    2.900659
     31          8           0       -0.086195    1.901398    2.308937
     32         35           0       -2.145952   -3.668285    0.077354
     33         35           0        2.337289   -3.575730    0.083326
     34         35           0        5.298134    1.292550   -0.192189
     35         35           0       -5.308759    1.067304   -0.276142
 ---------------------------------------------------------------------

 SCF Done:  E(RM06L) =  -11438.7089457     A.U. after    9 cycles

 Excitation energies and oscillator strengths:

 Excited State   1:      Singlet-A      2.4876 eV  498.40 nm  f=0.0292  <S**2>=0.000
     152 -> 155       -0.24116
     153 -> 155        0.65859
 This state for optimization and/or second-order correction.
 Total Energy, E(TD-HF/TD-KS) =  -11438.6175269
 Copying the excited state density for this state as the 1-particle RhoCI density.

 Excited State   2:      Singlet-A      2.6802 eV  462.60 nm  f=0.6723  <S**2>=0.000
     154 -> 155        0.69206

 Excited State   3:      Singlet-A      2.7979 eV  443.13 nm  f=0.0542  <S**2>=0.000
     151 -> 155        0.10012
     152 -> 155        0.64688
     153 -> 155        0.24162

 Excited State   4:      Singlet-A      2.9536 eV  419.77 nm  f=0.0064  <S**2>=0.000
     151 -> 155        0.69050
     152 -> 155       -0.11656

 Excited State   5:      Singlet-A      3.0404 eV  407.79 nm  f=0.0003  <S**2>=0.000
     150 -> 155        0.70691

 Excited State   6:      Singlet-A      3.1186 eV  397.57 nm  f=0.0000  <S**2>=0.000
     149 -> 155        0.70677

 Excited State   7:      Singlet-A      3.1385 eV  395.04 nm  f=0.0400  <S**2>=0.000
     148 -> 155        0.69814

 Excited State   8:      Singlet-A      3.2684 eV  379.34 nm  f=0.0234  <S**2>=0.000
     154 -> 156        0.69584

 Excited State   9:      Singlet-A      3.5266 eV  351.57 nm  f=0.0018  <S**2>=0.000
     153 -> 156        0.70546

 Excited State  10:      Singlet-A      3.5480 eV  349.45 nm  f=0.0152  <S**2>=0.000
     154 -> 157        0.67229
     154 -> 158       -0.20250

 Excited State  11:      Singlet-A      3.6648 eV  338.31 nm  f=0.0411  <S**2>=0.000
     146 -> 155        0.69931

 Excited State  12:      Singlet-A      3.7486 eV  330.75 nm  f=0.0138  <S**2>=0.000
     145 -> 155       -0.31320
     147 -> 155        0.59210
     154 -> 162       -0.15949

 Excited State  13:      Singlet-A      3.7786 eV  328.12 nm  f=0.0001  <S**2>=0.000
     153 -> 157        0.70379

 Excited State  14:      Singlet-A      3.8477 eV  322.23 nm  f=0.0012  <S**2>=0.000
     145 -> 155        0.62847
     147 -> 155        0.27234
     154 -> 162       -0.11326

 Excited State  15:      Singlet-A      3.8763 eV  319.85 nm  f=0.0063  <S**2>=0.000
     152 -> 156        0.69618

 Excited State  16:      Singlet-A      3.9272 eV  315.70 nm  f=0.0848  <S**2>=0.000
     144 -> 155       -0.11613
     153 -> 159        0.11539
     154 -> 157        0.17872
     154 -> 158        0.63069

 Excited State  17:      Singlet-A      3.9487 eV  313.99 nm  f=0.0005  <S**2>=0.000
     144 -> 155        0.68971

 Excited State  18:      Singlet-A      3.9925 eV  310.54 nm  f=0.0192  <S**2>=0.000
     151 -> 156        0.63738
     153 -> 158        0.27550

 Excited State  19:      Singlet-A      4.0062 eV  309.48 nm  f=0.0075  <S**2>=0.000
     151 -> 156       -0.26674
     153 -> 158        0.62076
     154 -> 159        0.17917

 Excited State  20:      Singlet-A      4.0570 eV  305.61 nm  f=0.0001  <S**2>=0.000
     154 -> 160        0.70504

 Excited State  21:      Singlet-A      4.1094 eV  301.71 nm  f=0.0154  <S**2>=0.000
     152 -> 157        0.62752
     154 -> 159        0.29242

 Excited State  22:      Singlet-A      4.1609 eV  297.97 nm  f=0.0120  <S**2>=0.000
     151 -> 157       -0.12347
     152 -> 157       -0.27675
     152 -> 158        0.14000
     153 -> 158       -0.14606
     154 -> 159        0.55385
     154 -> 161       -0.18665

 Excited State  23:      Singlet-A      4.1812 eV  296.53 nm  f=0.0010  <S**2>=0.000
     150 -> 156        0.70046

 Excited State  24:      Singlet-A      4.2039 eV  294.92 nm  f=0.0023  <S**2>=0.000
     154 -> 159        0.15041
     154 -> 161        0.67558

 Excited State  25:      Singlet-A      4.2109 eV  294.44 nm  f=0.0000  <S**2>=0.000
     143 -> 155        0.70644

 Excited State  26:      Singlet-A      4.2559 eV  291.32 nm  f=0.0000  <S**2>=0.000
     149 -> 156        0.69254
     151 -> 157        0.12643

 Excited State  27:      Singlet-A      4.2652 eV  290.69 nm  f=0.0222  <S**2>=0.000
     149 -> 156       -0.13788
     151 -> 157        0.62980
     151 -> 158       -0.16109
     152 -> 158        0.19601

 Excited State  28:      Singlet-A      4.3030 eV  288.14 nm  f=0.0516  <S**2>=0.000
     153 -> 159        0.68232

 Excited State  29:      Singlet-A      4.3254 eV  286.64 nm  f=0.0008  <S**2>=0.000
     153 -> 160        0.70447

 Excited State  30:      Singlet-A      4.3261 eV  286.60 nm  f=0.0000  <S**2>=0.000
     142 -> 155        0.70602

 The electronic state is 1-A.
 Alpha  occ. eigenvalues -- -482.09731-482.09720-482.09526-482.09514 -62.35446
 Alpha  occ. eigenvalues --  -62.35435 -62.35229 -62.35217 -56.06122 -56.06112
 Alpha  occ. eigenvalues --  -56.05917 -56.05905 -56.05737 -56.05726 -56.05708
 Alpha  occ. eigenvalues --  -56.05697 -56.05520 -56.05508 -56.05485 -56.05473
 Alpha  occ. eigenvalues --  -19.02838 -18.90271 -18.90263 -18.87803 -18.87474
 Alpha  occ. eigenvalues --  -10.11925 -10.11914 -10.10182 -10.10173 -10.09915
 Alpha  occ. eigenvalues --  -10.08247 -10.07948 -10.07945 -10.07268 -10.07260
 Alpha  occ. eigenvalues --  -10.05553 -10.05418 -10.05408 -10.05109 -10.05102
 Alpha  occ. eigenvalues --  -10.04377 -10.04285 -10.04060 -10.03923 -10.03573
 Alpha  occ. eigenvalues --   -8.67814  -8.67802  -8.67591  -8.67580  -6.45231
 Alpha  occ. eigenvalues --   -6.45220  -6.45041  -6.45030  -6.43956  -6.43945
 Alpha  occ. eigenvalues --   -6.43857  -6.43846  -6.43729  -6.43718  -6.43604
 Alpha  occ. eigenvalues --   -6.43592  -2.52276  -2.52265  -2.52078  -2.52066
 Alpha  occ. eigenvalues --   -2.51994  -2.51982  -2.51934  -2.51922  -2.51790
 Alpha  occ. eigenvalues --   -2.51779  -2.51712  -2.51700  -2.50977  -2.50976
 Alpha  occ. eigenvalues --   -2.50965  -2.50964  -2.50729  -2.50727  -2.50717
 Alpha  occ. eigenvalues --   -2.50715  -1.07944  -0.96726  -0.96284  -0.96268
 Alpha  occ. eigenvalues --   -0.88414  -0.83644  -0.82668  -0.81053  -0.77354
 Alpha  occ. eigenvalues --   -0.77327  -0.76007  -0.73318  -0.71822  -0.70623
 Alpha  occ. eigenvalues --   -0.69256  -0.68840  -0.66314  -0.66048  -0.60922
 Alpha  occ. eigenvalues --   -0.59321  -0.57770  -0.56773  -0.53980  -0.53532
 Alpha  occ. eigenvalues --   -0.49835  -0.49777  -0.48216  -0.47095  -0.43879
 Alpha  occ. eigenvalues --   -0.43681  -0.43102  -0.41475  -0.41314  -0.41006
 Alpha  occ. eigenvalues --   -0.39861  -0.39044  -0.37737  -0.37583  -0.37186
 Alpha  occ. eigenvalues --   -0.36953  -0.36797  -0.35724  -0.35563  -0.35087
 Alpha  occ. eigenvalues --   -0.34349  -0.33923  -0.33487  -0.32264  -0.31872
 Alpha  occ. eigenvalues --   -0.31726  -0.31250  -0.30255  -0.29597  -0.29336
 Alpha  occ. eigenvalues --   -0.28644  -0.27886  -0.26354  -0.25679  -0.24731
 Alpha  occ. eigenvalues --   -0.24619  -0.24134  -0.23713  -0.22736  -0.22291
 Alpha  occ. eigenvalues --   -0.21317  -0.21020  -0.19704  -0.19601  -0.19317
 Alpha  occ. eigenvalues --   -0.18540  -0.18101  -0.16866  -0.15874
 Alpha virt. eigenvalues --   -0.08238  -0.03965  -0.02983  -0.02157  -0.01185
 Alpha virt. eigenvalues --   -0.00971  -0.00444  -0.00111   0.02120   0.02820
 Alpha virt. eigenvalues --    0.05433   0.07098   0.07283   0.08347   0.09429

 Mulliken charges:
               1
     1  C    0.588426
     2  C   -0.390111
     3  C    0.448577
     4  C    0.003258
     5  C   -0.236860
     6  C   -0.162541
     7  C    0.719533
     8  C   -0.024734
     9  C    0.501344
    10  C   -0.415317
    11  C    0.602587
    12  C   -0.184991
    13  C   -0.191990
    14  H    0.162344
    15  H    0.161124
    16  O   -0.505733
    17  O   -0.671661
    18  O   -0.671623
    19  C   -0.178844
    20  C   -0.440036
    21  C   -0.220986
    22  C    0.002386
    23  H    0.088398
    24  C   -0.028346
    25  C   -0.143159
    26  H    0.089637
    27  H    0.090582
    28  H    0.084881
    29  C    0.738306
    30  O   -0.732220
    31  O   -0.713239
    32  Br  -0.087664
    33  Br  -0.088441
    34  Br  -0.096682
    35  Br  -0.096204
 Sum of Mulliken charges =  -2.00000

 Dipole moment (field-independent basis, Debye):
    X=              1.1188    Y=             -0.2273    Z=            -11.7829  Tot=             11.8380
 Quadrupole moment (field-independent basis, Debye-Ang):
   XX=           -347.2430   YY=           -281.9592   ZZ=           -247.6409
   XY=              3.8701   XZ=              3.4070   YZ=            -37.9357

 Normal termination of Gaussian 09 at Sat Feb 12 15:18:30 2022.
