                         Program Version 5.0.2 -  RELEASE  -
|  1> %maxcore 20000
|  2> %pal
|  3>  nprocs= 4
|  4> end
|  5> ! RI-B2GP-PLYP   def2-TZVP def2/J def2-TZVP/C RIJCOSX CPCM TightSCF
|  6> %TDDFT
|  7>    NROOTS   30
|  8>    dcorr 4
|  9>    TDA      FALSE
| 10> END
| 11>
| 12>  %CPCM
| 13>    SMD          TRUE
| 14>    SMDsolvent   "ACETONITRILE"
| 15>  END
| 16>
| 17>
| 18> * xyz -2 1
| 19> C                  -3.61009600   -1.22547600   -0.10047400
| 20> C                  -2.28157200   -1.78732300   -0.04367800
| 21> C                  -1.14147600   -1.01942300   -0.07793700
| 22> C                  -1.19740200    0.39332000   -0.17183100
| 23> C                  -2.48014600    0.98582800   -0.22828100
| 24> C                  -3.60743700    0.22874000   -0.19442200
| 25> C                  -0.00374900    1.13013300   -0.18342200
| 26> C                   1.21890500    0.44334400   -0.16235200
| 27> C                   1.22168200   -0.97058000   -0.06966600
| 28> C                   2.39282500   -1.69007500   -0.02658500
| 29> C                   3.69676800   -1.07176300   -0.06393600
| 30> C                   3.63353600    0.38169500   -0.14847000
| 31> C                   2.47584800    1.09034200   -0.19499700
| 32> H                  -2.54584500    2.06402300   -0.29595800
| 33> H                   2.49611900    2.17094400   -0.25162800
| 34> O                   0.05374200   -1.65855700   -0.02115800
| 35> O                   4.76055000   -1.70480200   -0.02845600
| 36> O                  -4.64606200   -1.90363500   -0.07574000
| 37> C                  -0.03296600    2.59655400   -0.41280600
| 38> C                   0.07757000    3.03118300   -1.73518900
| 39> C                  -0.18215500    3.53709900    0.61364800
| 40> C                   0.04654700    4.38066900   -2.04761900
| 41> H                   0.18849700    2.29621500   -2.52456800
| 42> C                  -0.21802200    4.88879200    0.27750000
| 43> C                  -0.10177400    5.31702400   -1.03394000
| 44> H                   0.13728900    4.69664900   -3.07946700
| 45> H                  -0.33801300    5.59639400    1.08877900
| 46> H                  -0.12615100    6.37446700   -1.26794500
| 47> C                  -0.29027500    3.11699500    2.07522800
| 48> O                  -0.56159700    4.01615200    2.90065900
| 49> O                  -0.08619500    1.90139800    2.30893700
| 50> Br                 -2.14595200   -3.66828500    0.07735400
| 51> Br                  2.33728900   -3.57573000    0.08332600
| 52> Br                  5.29813400    1.29255000   -0.19218900
| 53> Br                 -5.30875900    1.06730400   -0.27614200
| 54> *
| 55>
| 56>
| 57>                          ****END OF INPUT****

CARTESIAN COORDINATES (ANGSTROEM)
---------------------------------
  C     -3.610096   -1.225476   -0.100474
  C     -2.281572   -1.787323   -0.043678
  C     -1.141476   -1.019423   -0.077937
  C     -1.197402    0.393320   -0.171831
  C     -2.480146    0.985828   -0.228281
  C     -3.607437    0.228740   -0.194422
  C     -0.003749    1.130133   -0.183422
  C      1.218905    0.443344   -0.162352
  C      1.221682   -0.970580   -0.069666
  C      2.392825   -1.690075   -0.026585
  C      3.696768   -1.071763   -0.063936
  C      3.633536    0.381695   -0.148470
  C      2.475848    1.090342   -0.194997
  H     -2.545845    2.064023   -0.295958
  H      2.496119    2.170944   -0.251628
  O      0.053742   -1.658557   -0.021158
  O      4.760550   -1.704802   -0.028456
  O     -4.646062   -1.903635   -0.075740
  C     -0.032966    2.596554   -0.412806
  C      0.077570    3.031183   -1.735189
  C     -0.182155    3.537099    0.613648
  C      0.046547    4.380669   -2.047619
  H      0.188497    2.296215   -2.524568
  C     -0.218022    4.888792    0.277500
  C     -0.101774    5.317024   -1.033940
  H      0.137289    4.696649   -3.079467
  H     -0.338013    5.596394    1.088779
  H     -0.126151    6.374467   -1.267945
  C     -0.290275    3.116995    2.075228
  O     -0.561597    4.016152    2.900659
  O     -0.086195    1.901398    2.308937
  Br    -2.145952   -3.668285    0.077354
  Br     2.337289   -3.575730    0.083326
  Br     5.298134    1.292550   -0.192189
  Br    -5.308759    1.067304   -0.276142

 Total Charge           Charge          ....   -2
 Multiplicity           Mult            ....    1
 Number of Electrons    NEL             ....  308
 Basis Dimension        Dim             .... 1003

ORBITAL ENERGIES
----------------

  NO   OCC          E(Eh)            E(eV)
   0   2.0000    -486.907057    -13249.4146
   1   2.0000    -486.906934    -13249.4113
   2   2.0000    -486.903890    -13249.3284
   3   2.0000    -486.903827    -13249.3267
   4   2.0000     -63.992359     -1741.3206
   5   2.0000     -63.992231     -1741.3171
   6   2.0000     -63.989071     -1741.2311
   7   2.0000     -63.988996     -1741.2291
   8   2.0000     -57.547185     -1565.9385
   9   2.0000     -57.547057     -1565.9350
  10   2.0000     -57.545770     -1565.9000
  11   2.0000     -57.545659     -1565.8970
  12   2.0000     -57.545643     -1565.8966
  13   2.0000     -57.545529     -1565.8935
  14   2.0000     -57.543976     -1565.8512
  15   2.0000     -57.543901     -1565.8491
  16   2.0000     -57.542407     -1565.8085
  17   2.0000     -57.542357     -1565.8071
  18   2.0000     -57.542333     -1565.8065
  19   2.0000     -57.542283     -1565.8051
  20   2.0000     -20.011202      -544.5325
  21   2.0000     -19.878080      -540.9101
  22   2.0000     -19.877883      -540.9047
  23   2.0000     -19.850259      -540.1530
  24   2.0000     -19.849356      -540.1284
  25   2.0000     -10.867215      -295.7119
  26   2.0000     -10.867008      -295.7063
  27   2.0000     -10.849402      -295.2272
  28   2.0000     -10.849246      -295.2230
  29   2.0000     -10.846864      -295.1582
  30   2.0000     -10.834401      -294.8190
  31   2.0000     -10.815305      -294.2994
  32   2.0000     -10.815257      -294.2981
  33   2.0000     -10.807261      -294.0805
  34   2.0000     -10.807133      -294.0771
  35   2.0000     -10.792552      -293.6803
  36   2.0000     -10.792420      -293.6767
  37   2.0000     -10.790271      -293.6182
  38   2.0000     -10.782047      -293.3944
  39   2.0000     -10.782014      -293.3935
  40   2.0000     -10.775167      -293.2072
  41   2.0000     -10.773529      -293.1626
  42   2.0000     -10.772880      -293.1450
  43   2.0000     -10.770760      -293.0873
  44   2.0000     -10.767393      -292.9957
  45   2.0000      -9.326849      -253.7965
  46   2.0000      -9.326730      -253.7932
  47   2.0000      -9.323624      -253.7087
  48   2.0000      -9.323526      -253.7060
  49   2.0000      -7.033348      -191.3871
  50   2.0000      -7.033230      -191.3839
  51   2.0000      -7.030350      -191.3055
  52   2.0000      -7.030247      -191.3028
  53   2.0000      -7.025303      -191.1682
  54   2.0000      -7.025176      -191.1647
  55   2.0000      -7.024995      -191.1598
  56   2.0000      -7.024868      -191.1564
  57   2.0000      -7.022049      -191.0797
  58   2.0000      -7.021956      -191.0771
  59   2.0000      -7.021479      -191.0642
  60   2.0000      -7.021391      -191.0618
  61   2.0000      -2.938162       -79.9515
  62   2.0000      -2.938053       -79.9485
  63   2.0000      -2.935241       -79.8720
  64   2.0000      -2.935235       -79.8718
  65   2.0000      -2.935143       -79.8693
  66   2.0000      -2.935102       -79.8682
  67   2.0000      -2.934804       -79.8601
  68   2.0000      -2.934668       -79.8564
  69   2.0000      -2.932211       -79.7895
  70   2.0000      -2.932112       -79.7868
  71   2.0000      -2.931469       -79.7693
  72   2.0000      -2.931383       -79.7670
  73   2.0000      -2.926375       -79.6307
  74   2.0000      -2.926358       -79.6303
  75   2.0000      -2.926245       -79.6272
  76   2.0000      -2.926235       -79.6269
  77   2.0000      -2.922853       -79.5349
  78   2.0000      -2.922844       -79.5346
  79   2.0000      -2.922763       -79.5324
  80   2.0000      -2.922761       -79.5324
  81   2.0000      -1.318594       -35.8808
  82   2.0000      -1.201342       -32.6902
  83   2.0000      -1.193584       -32.4791
  84   2.0000      -1.193318       -32.4718
  85   2.0000      -1.104390       -30.0520
  86   2.0000      -1.054597       -28.6971
  87   2.0000      -1.041235       -28.3334
  88   2.0000      -1.022994       -27.8371
  89   2.0000      -0.977464       -26.5981
  90   2.0000      -0.974303       -26.5121
  91   2.0000      -0.955626       -26.0039
  92   2.0000      -0.924134       -25.1470
  93   2.0000      -0.911863       -24.8130
  94   2.0000      -0.901742       -24.5376
  95   2.0000      -0.878129       -23.8951
  96   2.0000      -0.875610       -23.8266
  97   2.0000      -0.847318       -23.0567
  98   2.0000      -0.844902       -22.9910
  99   2.0000      -0.787334       -21.4245
 100   2.0000      -0.764722       -20.8091
 101   2.0000      -0.749974       -20.4078
 102   2.0000      -0.738430       -20.0937
 103   2.0000      -0.703726       -19.1494
 104   2.0000      -0.700479       -19.0610
 105   2.0000      -0.657639       -17.8953
 106   2.0000      -0.655032       -17.8243
 107   2.0000      -0.639717       -17.4076
 108   2.0000      -0.627503       -17.0752
 109   2.0000      -0.591751       -16.1024
 110   2.0000      -0.589251       -16.0343
 111   2.0000      -0.583330       -15.8732
 112   2.0000      -0.560381       -15.2487
 113   2.0000      -0.558514       -15.1979
 114   2.0000      -0.547546       -14.8995
 115   2.0000      -0.546353       -14.8670
 116   2.0000      -0.534917       -14.5558
 117   2.0000      -0.527794       -14.3620
 118   2.0000      -0.516227       -14.0472
 119   2.0000      -0.508362       -13.8332
 120   2.0000      -0.503213       -13.6931
 121   2.0000      -0.501363       -13.6428
 122   2.0000      -0.492467       -13.4007
 123   2.0000      -0.488613       -13.2958
 124   2.0000      -0.484894       -13.1946
 125   2.0000      -0.481954       -13.1146
 126   2.0000      -0.465623       -12.6702
 127   2.0000      -0.462089       -12.5741
 128   2.0000      -0.448623       -12.2077
 129   2.0000      -0.437881       -11.9153
 130   2.0000      -0.434742       -11.8299
 131   2.0000      -0.431989       -11.7550
 132   2.0000      -0.424254       -11.5445
 133   2.0000      -0.411018       -11.1844
 134   2.0000      -0.406322       -11.0566
 135   2.0000      -0.402387       -10.9495
 136   2.0000      -0.386519       -10.5177
 137   2.0000      -0.369285       -10.0488
 138   2.0000      -0.357517        -9.7285
 139   2.0000      -0.351739        -9.5713
 140   2.0000      -0.350228        -9.5302
 141   2.0000      -0.346634        -9.4324
 142   2.0000      -0.340254        -9.2588
 143   2.0000      -0.331969        -9.0333
 144   2.0000      -0.328612        -8.9420
 145   2.0000      -0.320901        -8.7322
 146   2.0000      -0.316326        -8.6077
 147   2.0000      -0.314587        -8.5604
 148   2.0000      -0.303984        -8.2718
 149   2.0000      -0.300061        -8.1651
 150   2.0000      -0.296416        -8.0659
 151   2.0000      -0.282938        -7.6991
 152   2.0000      -0.267361        -7.2753
 153   2.0000      -0.221538        -6.0284
 154   0.0000      -0.010717        -0.2916
 155   0.0000       0.045613         1.2412
 156   0.0000       0.057453         1.5634
 157   0.0000       0.070978         1.9314
 158   0.0000       0.078338         2.1317

MULLIKEN ATOMIC CHARGES
-----------------------
   0 C :    0.203580
   1 C :   -0.234781
   2 C :    0.315025
   3 C :    0.003050
   4 C :   -0.317876
   5 C :   -0.004851
   6 C :    0.655014
   7 C :    0.006023
   8 C :    0.352223
   9 C :   -0.255107
  10 C :    0.217213
  11 C :   -0.019148
  12 C :   -0.298953
  13 H :    0.184435
  14 H :    0.184178
  15 O :   -0.281977
  16 O :   -0.520156
  17 O :   -0.520315
  18 C :   -0.066335
  19 C :   -0.350460
  20 C :   -0.103933
  21 C :   -0.124127
  22 H :    0.156006
  23 C :   -0.163498
  24 C :   -0.174919
  25 H :    0.162187
  26 H :    0.158064
  27 H :    0.159311
  28 C :    0.391271
  29 O :   -0.616754
  30 O :   -0.616915
  31 Br:   -0.113175
  32 Br:   -0.112667
  33 Br:   -0.125859
  34 Br:   -0.125774
Sum of atomic charges:   -2.0000000

LOEWDIN ATOMIC CHARGES
----------------------
   0 C :   -0.390305
   1 C :   -0.375927
   2 C :   -0.171735
   3 C :   -0.114790
   4 C :   -0.088623
   5 C :   -0.374474
   6 C :    0.051485
   7 C :   -0.115338
   8 C :   -0.171560
   9 C :   -0.376107
  10 C :   -0.390186
  11 C :   -0.374835
  12 C :   -0.089175
  13 H :    0.166814
  14 H :    0.166413
  15 O :    0.355932
  16 O :   -0.050945
  17 O :   -0.051276
  18 C :   -0.063400
  19 C :   -0.098380
  20 C :   -0.088678
  21 C :   -0.139146
  22 H :    0.158997
  23 C :   -0.105399
  24 C :   -0.144997
  25 H :    0.151993
  26 H :    0.153949
  27 H :    0.150372
  28 C :   -0.590389
  29 O :   -0.135749
  30 O :   -0.103085
  31 Br:    0.321873
  32 Br:    0.322041
  33 Br:    0.302536
  34 Br:    0.302090

  Mayer bond orders larger than 0.100000
B(  0-C ,  1-C ) :   1.0490 B(  0-C ,  5-C ) :   1.0454 B(  0-C , 17-O ) :   2.1376
B(  1-C ,  2-C ) :   1.4378 B(  1-C , 17-O ) :  -0.1123 B(  1-C , 31-Br) :   1.1883
B(  2-C ,  3-C ) :   1.3099 B(  2-C , 15-O ) :   1.0927 B(  2-C , 31-Br) :  -0.1221
B(  3-C ,  4-C ) :   1.2080 B(  3-C ,  6-C ) :   1.1869 B(  4-C ,  5-C ) :   1.5888
B(  4-C , 13-H ) :   0.9522 B(  5-C , 17-O ) :  -0.1118 B(  5-C , 34-Br) :   1.0486
B(  6-C ,  7-C ) :   1.1821 B(  6-C , 18-C ) :   0.4474 B(  6-C , 19-C ) :  -0.1363
B(  7-C ,  8-C ) :   1.2847 B(  7-C , 12-C ) :   1.2032 B(  8-C ,  9-C ) :   1.4209
B(  8-C , 15-O ) :   1.0931 B(  8-C , 32-Br) :  -0.1237 B(  9-C , 10-C ) :   1.0438
B(  9-C , 16-O ) :  -0.1116 B(  9-C , 32-Br) :   1.1934 B( 10-C , 11-C ) :   1.0443
B( 10-C , 16-O ) :   2.1340 B( 11-C , 12-C ) :   1.5874 B( 11-C , 16-O ) :  -0.1094
B( 11-C , 33-Br) :   1.0502 B( 12-C , 14-H ) :   0.9515 B( 18-C , 19-C ) :   1.4909
B( 18-C , 20-C ) :   1.3930 B( 19-C , 21-C ) :   1.4406 B( 19-C , 22-H ) :   0.9956
B( 20-C , 23-C ) :   1.4433 B( 20-C , 28-C ) :   0.8933 B( 20-C , 29-O ) :  -0.1951
B( 21-C , 24-C ) :   1.3744 B( 21-C , 25-H ) :   0.9835 B( 23-C , 24-C ) :   1.3973
B( 23-C , 26-H ) :   0.9691 B( 24-C , 27-H ) :   0.9863 B( 28-C , 29-O ) :   1.8606
B( 28-C , 30-O ) :   1.7607

MP2 TOTAL ENERGY:   -11436.057222920 Eh

-----------------------------------------------------------------------------
         ABSORPTION SPECTRUM VIA TRANSITION ELECTRIC DIPOLE MOMENTS
-----------------------------------------------------------------------------
State   Energy    Wavelength  fosc         T2        TX        TY        TZ
        (cm-1)      (nm)                 (au**2)    (au)      (au)      (au)
-----------------------------------------------------------------------------
   1   20906.0    478.3   0.887090246  13.96925   3.73623   0.09527   0.02701
   2   27597.4    362.4   0.019875376   0.23710  -0.01850   0.48622  -0.01848
   3   30422.0    328.7   0.007649671   0.08278   0.04136  -0.25380  -0.12905
   4   34618.7    288.9   0.018050467   0.17165   0.39441  -0.12529   0.01985
   5   32667.9    306.1   0.488898567   4.92689   0.10479  -2.21706   0.02329
   6   31696.1    315.5   0.077044133   0.80022  -0.02510  -0.89419  -0.00243
   7   31784.3    314.6   0.000314724   0.00326  -0.00234   0.05477  -0.01594
   8   37844.5    264.2   0.000976462   0.00849  -0.00183  -0.09211   0.00270
   9   37566.2    266.2   0.001260380   0.01105  -0.01888  -0.10307   0.00809
  10   35021.8    285.5   0.002628535   0.02471  -0.13975   0.07180  -0.00485
  11   35991.4    277.8   0.000338125   0.00309  -0.00409   0.04827   0.02731
  12   38048.8    262.8   0.006216407   0.05379  -0.07294  -0.16930  -0.14072
  13   37251.7    268.4   0.003988751   0.03525   0.03962   0.07557   0.16724
  14   37289.0    268.2   0.004951664   0.04372   0.01845  -0.18683  -0.09205
  15   38840.9    257.5   0.008014051   0.06793  -0.16183  -0.20426  -0.00411
  16   43456.8    230.1   0.000404149   0.00306   0.01073  -0.05164  -0.01672
  17   42798.7    233.7   0.000553689   0.00426  -0.03974   0.03275   0.04009
  18   41425.3    241.4   0.002263459   0.01799  -0.04947   0.02777   0.12153
  19   39204.1    255.1   0.006871469   0.05770   0.00917  -0.08631  -0.22398
  20   41816.1    239.1   0.022022213   0.17338  -0.00785   0.35249   0.22150
  21   36263.3    275.8   0.004700562   0.04267  -0.05009  -0.15858   0.12254
  22   33403.6    299.4   0.006118096   0.06030   0.24319   0.00020   0.03402
  23   39517.8    253.1   0.076186299   0.63469  -0.09904   0.56359  -0.55430
  24   43162.1    231.7   0.947476057   7.22672   2.68655   0.09406  -0.01741
  25   30323.6    329.8   0.001175587   0.01276   0.03390  -0.10383  -0.02888
  26   44936.6    222.5   0.022578651   0.16541  -0.34329  -0.17102  -0.13535
  27   47459.1    210.7   0.658205091   4.56581   0.12220  -2.12587   0.17758
  28   48184.2    207.5   0.005259575   0.03594  -0.11636  -0.04967  -0.14117
  29   45972.8    217.5   0.082218068   0.58876   0.05879   0.49093  -0.58677
  30   42829.4    233.5   0.000070290   0.00054  -0.01068  -0.01572   0.01338

FINAL SINGLE POINT ENERGY    -11433.736457188776

DIPOLE MOMENT
-------------
                                X             Y             Z
Electronic contribution:      2.23589     -63.42185      -2.22420
Nuclear contribution   :     -1.76550      63.66252      -2.85258
                        -----------------------------------------
Total Dipole Moment    :      0.47039       0.24067      -5.07678
                        -----------------------------------------
Magnitude (a.u.)       :      5.10421
Magnitude (Debye)      :     12.97386

Rotational constants in cm-1:     0.003520     0.002272     0.001480
Rotational constants in MHz :   105.521627    68.099067    44.374263

                             ****ORCA TERMINATED NORMALLY****
TOTAL RUN TIME: 0 days 4 hours 5 minutes 42 seconds 309 msec
