                         Program Version 5.0.2 -  RELEASE  -
|  1> %maxcore 20000
|  2> %pal
|  3>  nprocs= 4
|  4> end
|  5> ! RI-wPBEPP86   def2-TZVP def2/J def2-TZVP/C RIJCOSX CPCM TightSCF
|  6> %TDDFT
|  7>    NROOTS   30
|  8>    dcorr 1
|  9>    TDA      FALSE
| 10> END
| 11>
| 12>  %CPCM
| 13>    SMD          TRUE
| 14>    SMDsolvent   "ACETONITRILE"
| 15>  END
| 16>
| 17>
| 18> * xyz -2 1
| 19> C                  -3.61009600   -1.22547600   -0.10047400
| 20> C                  -2.28157200   -1.78732300   -0.04367800
| 21> C                  -1.14147600   -1.01942300   -0.07793700
| 22> C                  -1.19740200    0.39332000   -0.17183100
| 23> C                  -2.48014600    0.98582800   -0.22828100
| 24> C                  -3.60743700    0.22874000   -0.19442200
| 25> C                  -0.00374900    1.13013300   -0.18342200
| 26> C                   1.21890500    0.44334400   -0.16235200
| 27> C                   1.22168200   -0.97058000   -0.06966600
| 28> C                   2.39282500   -1.69007500   -0.02658500
| 29> C                   3.69676800   -1.07176300   -0.06393600
| 30> C                   3.63353600    0.38169500   -0.14847000
| 31> C                   2.47584800    1.09034200   -0.19499700
| 32> H                  -2.54584500    2.06402300   -0.29595800
| 33> H                   2.49611900    2.17094400   -0.25162800
| 34> O                   0.05374200   -1.65855700   -0.02115800
| 35> O                   4.76055000   -1.70480200   -0.02845600
| 36> O                  -4.64606200   -1.90363500   -0.07574000
| 37> C                  -0.03296600    2.59655400   -0.41280600
| 38> C                   0.07757000    3.03118300   -1.73518900
| 39> C                  -0.18215500    3.53709900    0.61364800
| 40> C                   0.04654700    4.38066900   -2.04761900
| 41> H                   0.18849700    2.29621500   -2.52456800
| 42> C                  -0.21802200    4.88879200    0.27750000
| 43> C                  -0.10177400    5.31702400   -1.03394000
| 44> H                   0.13728900    4.69664900   -3.07946700
| 45> H                  -0.33801300    5.59639400    1.08877900
| 46> H                  -0.12615100    6.37446700   -1.26794500
| 47> C                  -0.29027500    3.11699500    2.07522800
| 48> O                  -0.56159700    4.01615200    2.90065900
| 49> O                  -0.08619500    1.90139800    2.30893700
| 50> Br                 -2.14595200   -3.66828500    0.07735400
| 51> Br                  2.33728900   -3.57573000    0.08332600
| 52> Br                  5.29813400    1.29255000   -0.19218900
| 53> Br                 -5.30875900    1.06730400   -0.27614200
| 54> *
| 55>
| 56>
| 57>                          ****END OF INPUT****

CARTESIAN COORDINATES (ANGSTROEM)
---------------------------------
  C     -3.610096   -1.225476   -0.100474
  C     -2.281572   -1.787323   -0.043678
  C     -1.141476   -1.019423   -0.077937
  C     -1.197402    0.393320   -0.171831
  C     -2.480146    0.985828   -0.228281
  C     -3.607437    0.228740   -0.194422
  C     -0.003749    1.130133   -0.183422
  C      1.218905    0.443344   -0.162352
  C      1.221682   -0.970580   -0.069666
  C      2.392825   -1.690075   -0.026585
  C      3.696768   -1.071763   -0.063936
  C      3.633536    0.381695   -0.148470
  C      2.475848    1.090342   -0.194997
  H     -2.545845    2.064023   -0.295958
  H      2.496119    2.170944   -0.251628
  O      0.053742   -1.658557   -0.021158
  O      4.760550   -1.704802   -0.028456
  O     -4.646062   -1.903635   -0.075740
  C     -0.032966    2.596554   -0.412806
  C      0.077570    3.031183   -1.735189
  C     -0.182155    3.537099    0.613648
  C      0.046547    4.380669   -2.047619
  H      0.188497    2.296215   -2.524568
  C     -0.218022    4.888792    0.277500
  C     -0.101774    5.317024   -1.033940
  H      0.137289    4.696649   -3.079467
  H     -0.338013    5.596394    1.088779
  H     -0.126151    6.374467   -1.267945
  C     -0.290275    3.116995    2.075228
  O     -0.561597    4.016152    2.900659
  O     -0.086195    1.901398    2.308937
  Br    -2.145952   -3.668285    0.077354
  Br     2.337289   -3.575730    0.083326
  Br     5.298134    1.292550   -0.192189
  Br    -5.308759    1.067304   -0.276142

 Total Charge           Charge          ....   -2
 Multiplicity           Mult            ....    1
 Number of Electrons    NEL             ....  308
 Basis Dimension        Dim             .... 1003

ORBITAL ENERGIES
----------------

  NO   OCC          E(Eh)            E(eV)
   0   2.0000    -487.367310    -13261.9387
   1   2.0000    -487.367181    -13261.9352
   2   2.0000    -487.364546    -13261.8635
   3   2.0000    -487.364479    -13261.8617
   4   2.0000     -64.196351     -1746.8715
   5   2.0000     -64.196219     -1746.8679
   6   2.0000     -64.193465     -1746.7930
   7   2.0000     -64.193386     -1746.7908
   8   2.0000     -57.712974     -1570.4499
   9   2.0000     -57.712842     -1570.4463
  10   2.0000     -57.711647     -1570.4137
  11   2.0000     -57.711533     -1570.4107
  12   2.0000     -57.711516     -1570.4102
  13   2.0000     -57.711399     -1570.4070
  14   2.0000     -57.710164     -1570.3734
  15   2.0000     -57.710085     -1570.3712
  16   2.0000     -57.708682     -1570.3331
  17   2.0000     -57.708641     -1570.3320
  18   2.0000     -57.708604     -1570.3310
  19   2.0000     -57.708563     -1570.3298
  20   2.0000     -20.134182      -547.8790
  21   2.0000     -19.997975      -544.1726
  22   2.0000     -19.997756      -544.1666
  23   2.0000     -19.969696      -543.4031
  24   2.0000     -19.968195      -543.3622
  25   2.0000     -10.961950      -298.2898
  26   2.0000     -10.961731      -298.2839
  27   2.0000     -10.942594      -297.7631
  28   2.0000     -10.942425      -297.7585
  29   2.0000     -10.937587      -297.6269
  30   2.0000     -10.931510      -297.4615
  31   2.0000     -10.909537      -296.8636
  32   2.0000     -10.909487      -296.8622
  33   2.0000     -10.901156      -296.6355
  34   2.0000     -10.901017      -296.6317
  35   2.0000     -10.886278      -296.2307
  36   2.0000     -10.886146      -296.2271
  37   2.0000     -10.884262      -296.1758
  38   2.0000     -10.874288      -295.9044
  39   2.0000     -10.874233      -295.9029
  40   2.0000     -10.867403      -295.7171
  41   2.0000     -10.866093      -295.6814
  42   2.0000     -10.865168      -295.6562
  43   2.0000     -10.862305      -295.5783
  44   2.0000     -10.859273      -295.4958
  45   2.0000      -9.447003      -257.0660
  46   2.0000      -9.446880      -257.0627
  47   2.0000      -9.444173      -256.9890
  48   2.0000      -9.444069      -256.9862
  49   2.0000      -7.137162      -194.2120
  50   2.0000      -7.137041      -194.2088
  51   2.0000      -7.134544      -194.1408
  52   2.0000      -7.134436      -194.1379
  53   2.0000      -7.129342      -193.9993
  54   2.0000      -7.129212      -193.9957
  55   2.0000      -7.129107      -193.9929
  56   2.0000      -7.128977      -193.9893
  57   2.0000      -7.126463      -193.9209
  58   2.0000      -7.126364      -193.9182
  59   2.0000      -7.126008      -193.9085
  60   2.0000      -7.125915      -193.9060
  61   2.0000      -3.016506       -82.0833
  62   2.0000      -3.016395       -82.0803
  63   2.0000      -3.013973       -82.0144
  64   2.0000      -3.013870       -82.0116
  65   2.0000      -3.013536       -82.0025
  66   2.0000      -3.013400       -81.9988
  67   2.0000      -3.013154       -81.9921
  68   2.0000      -3.013014       -81.9883
  69   2.0000      -3.010884       -81.9303
  70   2.0000      -3.010779       -81.9275
  71   2.0000      -3.010223       -81.9123
  72   2.0000      -3.010133       -81.9099
  73   2.0000      -3.004714       -81.7624
  74   2.0000      -3.004697       -81.7620
  75   2.0000      -3.004581       -81.7588
  76   2.0000      -3.004570       -81.7585
  77   2.0000      -3.001591       -81.6774
  78   2.0000      -3.001579       -81.6771
  79   2.0000      -3.001495       -81.6748
  80   2.0000      -3.001491       -81.6747
  81   2.0000      -1.388431       -37.7811
  82   2.0000      -1.268866       -34.5276
  83   2.0000      -1.261082       -34.3158
  84   2.0000      -1.260798       -34.3080
  85   2.0000      -1.169757       -31.8307
  86   2.0000      -1.120836       -30.4995
  87   2.0000      -1.106832       -30.1184
  88   2.0000      -1.088089       -29.6084
  89   2.0000      -1.041105       -28.3299
  90   2.0000      -1.036943       -28.2167
  91   2.0000      -1.017090       -27.6764
  92   2.0000      -0.984748       -26.7963
  93   2.0000      -0.973394       -26.4874
  94   2.0000      -0.963452       -26.2169
  95   2.0000      -0.937747       -25.5174
  96   2.0000      -0.935465       -25.4553
  97   2.0000      -0.907088       -24.6831
  98   2.0000      -0.904218       -24.6050
  99   2.0000      -0.846182       -23.0258
 100   2.0000      -0.822834       -22.3905
 101   2.0000      -0.807982       -21.9863
 102   2.0000      -0.795817       -21.6553
 103   2.0000      -0.759997       -20.6806
 104   2.0000      -0.757069       -20.6009
 105   2.0000      -0.713525       -19.4160
 106   2.0000      -0.710899       -19.3446
 107   2.0000      -0.695119       -18.9152
 108   2.0000      -0.683068       -18.5872
 109   2.0000      -0.646020       -17.5791
 110   2.0000      -0.643230       -17.5032
 111   2.0000      -0.639763       -17.4088
 112   2.0000      -0.613515       -16.6946
 113   2.0000      -0.611547       -16.6410
 114   2.0000      -0.599616       -16.3164
 115   2.0000      -0.598946       -16.2981
 116   2.0000      -0.586977       -15.9725
 117   2.0000      -0.580783       -15.8039
 118   2.0000      -0.566900       -15.4261
 119   2.0000      -0.559967       -15.2375
 120   2.0000      -0.556092       -15.1320
 121   2.0000      -0.554372       -15.0852
 122   2.0000      -0.545627       -14.8473
 123   2.0000      -0.538678       -14.6582
 124   2.0000      -0.538501       -14.6534
 125   2.0000      -0.535295       -14.5661
 126   2.0000      -0.514849       -14.0097
 127   2.0000      -0.511186       -13.9101
 128   2.0000      -0.496422       -13.5083
 129   2.0000      -0.489302       -13.3146
 130   2.0000      -0.482939       -13.1414
 131   2.0000      -0.480567       -13.0769
 132   2.0000      -0.474563       -12.9135
 133   2.0000      -0.457942       -12.4612
 134   2.0000      -0.457430       -12.4473
 135   2.0000      -0.452476       -12.3125
 136   2.0000      -0.435950       -11.8628
 137   2.0000      -0.418297       -11.3824
 138   2.0000      -0.405826       -11.0431
 139   2.0000      -0.399988       -10.8842
 140   2.0000      -0.398136       -10.8338
 141   2.0000      -0.394635       -10.7386
 142   2.0000      -0.388257       -10.5650
 143   2.0000      -0.381676       -10.3859
 144   2.0000      -0.377839       -10.2815
 145   2.0000      -0.369928       -10.0663
 146   2.0000      -0.366382        -9.9698
 147   2.0000      -0.363553        -9.8928
 148   2.0000      -0.349402        -9.5077
 149   2.0000      -0.345226        -9.3941
 150   2.0000      -0.341494        -9.2925
 151   2.0000      -0.328057        -8.9269
 152   2.0000      -0.311710        -8.4821
 153   2.0000      -0.261816        -7.1244
 154   0.0000       0.003745         0.1019
 155   0.0000       0.062929         1.7124
 156   0.0000       0.075152         2.0450
 157   0.0000       0.089669         2.4400
 158   0.0000       0.097149         2.6436

MULLIKEN ATOMIC CHARGES
-----------------------
   0 C :    0.245534
   1 C :   -0.294265
   2 C :    0.350307
   3 C :   -0.004341
   4 C :   -0.303422
   5 C :   -0.054534
   6 C :    0.565222
   7 C :   -0.013185
   8 C :    0.383275
   9 C :   -0.312848
  10 C :    0.258226
  11 C :   -0.067246
  12 C :   -0.283284
  13 H :    0.217255
  14 H :    0.217072
  15 O :   -0.260698
  16 O :   -0.524018
  17 O :   -0.524306
  18 C :   -0.154068
  19 C :   -0.348202
  20 C :   -0.069272
  21 C :   -0.144114
  22 H :    0.185518
  23 C :   -0.173396
  24 C :   -0.200979
  25 H :    0.186878
  26 H :    0.183223
  27 H :    0.184173
  28 C :    0.387836
  29 O :   -0.620063
  30 O :   -0.608383
  31 Br:   -0.094927
  32 Br:   -0.094457
  33 Br:   -0.107336
  34 Br:   -0.107179
Sum of atomic charges:   -2.0000000

LOEWDIN ATOMIC CHARGES
----------------------
   0 C :   -0.393412
   1 C :   -0.380854
   2 C :   -0.172817
   3 C :   -0.121573
   4 C :   -0.089214
   5 C :   -0.379728
   6 C :    0.050571
   7 C :   -0.122197
   8 C :   -0.172624
   9 C :   -0.381021
  10 C :   -0.393273
  11 C :   -0.380097
  12 C :   -0.089733
  13 H :    0.172981
  14 H :    0.172636
  15 O :    0.359775
  16 O :   -0.047211
  17 O :   -0.047572
  18 C :   -0.069994
  19 C :   -0.101991
  20 C :   -0.092300
  21 C :   -0.142008
  22 H :    0.165721
  23 C :   -0.107914
  24 C :   -0.147954
  25 H :    0.158307
  26 H :    0.160045
  27 H :    0.156661
  28 C :   -0.594768
  29 O :   -0.133313
  30 O :   -0.100357
  31 Br:    0.325961
  32 Br:    0.326131
  33 Br:    0.306791
  34 Br:    0.306346

  Mayer bond orders larger than 0.100000
B(  0-C ,  1-C ) :   1.0609 B(  0-C ,  5-C ) :   1.0539 B(  0-C , 17-O ) :   2.1005
B(  1-C ,  2-C ) :   1.4363 B(  1-C , 31-Br) :   1.2577 B(  2-C ,  3-C ) :   1.3053
B(  2-C , 15-O ) :   1.1040 B(  2-C , 31-Br) :  -0.1526 B(  3-C ,  4-C ) :   1.2257
B(  3-C ,  6-C ) :   1.2135 B(  4-C ,  5-C ) :   1.5987 B(  4-C , 13-H ) :   0.9216
B(  5-C , 34-Br) :   1.1143 B(  6-C ,  7-C ) :   1.2116 B(  6-C , 18-C ) :   0.4700
B(  6-C , 19-C ) :  -0.1464 B(  7-C ,  8-C ) :   1.2842 B(  7-C , 12-C ) :   1.2273
B(  8-C ,  9-C ) :   1.4205 B(  8-C , 15-O ) :   1.1045 B(  8-C , 32-Br) :  -0.1537
B(  9-C , 10-C ) :   1.0557 B(  9-C , 32-Br) :   1.2622 B( 10-C , 11-C ) :   1.0528
B( 10-C , 16-O ) :   2.0973 B( 11-C , 12-C ) :   1.5954 B( 11-C , 33-Br) :   1.1159
B( 12-C , 14-H ) :   0.9210 B( 18-C , 19-C ) :   1.5175 B( 18-C , 20-C ) :   1.3899
B( 19-C , 21-C ) :   1.4377 B( 19-C , 22-H ) :   0.9820 B( 20-C , 23-C ) :   1.4418
B( 20-C , 28-C ) :   0.9054 B( 20-C , 29-O ) :  -0.1718 B( 21-C , 24-C ) :   1.3726
B( 21-C , 25-H ) :   0.9771 B( 23-C , 24-C ) :   1.3987 B( 23-C , 26-H ) :   0.9591
B( 24-C , 27-H ) :   0.9796 B( 28-C , 29-O ) :   1.8423 B( 28-C , 30-O ) :   1.7547

MP2 TOTAL ENERGY:   -11436.615294919 Eh

-----------------------------------------------------------------------------
         ABSORPTION SPECTRUM VIA TRANSITION ELECTRIC DIPOLE MOMENTS
-----------------------------------------------------------------------------
State   Energy    Wavelength  fosc         T2        TX        TY        TZ
        (cm-1)      (nm)                 (au**2)    (au)      (au)      (au)
-----------------------------------------------------------------------------
   1   20935.6    477.7   0.905952884  14.24610  -3.77310  -0.09514  -0.02715
   2   29209.9    342.3   0.030308508   0.34159  -0.01798   0.58312  -0.03521
   3   31534.3    317.1   0.011053188   0.11539  -0.04514   0.31955   0.10603
   4   35685.9    280.2   0.012537075   0.11566   0.33397  -0.06212   0.01625
   5   34091.4    293.3   0.384222313   3.71033  -0.11386   1.92242  -0.04080
   6   33605.5    297.6   0.287478657   2.81625  -0.02530   1.67760  -0.03544
   7   33709.3    296.7   0.000702363   0.00686  -0.00250   0.08054  -0.01915
   8   39948.6    250.3   0.001059211   0.00873  -0.00306  -0.09335   0.00244
   9   40296.6    248.2   0.000122929   0.00100  -0.03043   0.00233   0.00855
  10   37565.9    266.2   0.003221004   0.02823   0.15961   0.02490  -0.04619
  11   40443.7    247.3   0.004794413   0.03903   0.01276   0.09666   0.17181
  12   37739.4    265.0   0.000592626   0.00517   0.05709  -0.00473  -0.04345
  13   40775.6    245.2   0.014278673   0.11528   0.03422   0.06462   0.33157
  14   42688.6    234.3   0.010569671   0.08151  -0.05421  -0.06527   0.27261
  15   45081.0    221.8   0.000611754   0.00447   0.02359  -0.01501   0.06071
  16   45233.4    221.1   0.000727165   0.00529  -0.01612  -0.01893  -0.06837
  17   39190.6    255.2   0.002932305   0.02463   0.03543  -0.15107  -0.02352
  18   41919.3    238.6   0.026567983   0.20865  -0.02901   0.40460   0.21002
  19   39429.9    253.6   0.002884343   0.02408   0.08093  -0.03451   0.12783
  20   39933.0    250.4   0.013245480   0.10920   0.24822   0.15799   0.15041
  21   45112.5    221.7   1.030773527   7.52215  -2.74053  -0.10776   0.00663
  22   37620.9    265.8   0.061540901   0.53853  -0.19540   0.70215  -0.08562
  23   35926.6    278.3   0.005192436   0.04758  -0.15783   0.02762  -0.14801
  24   41595.5    240.4   0.111420838   0.88185  -0.08324  -0.73114   0.58341
  25   48232.7    207.3   0.600711290   4.10015   0.04475  -2.01989   0.13489
  26   47143.2    212.1   0.044377894   0.30990   0.55189  -0.06343   0.03601
  27   49545.6    201.8   0.484216050   3.21744   0.17830   0.18844  -1.77486
  28   36334.2    275.2   0.091090110   0.82534   0.12129  -0.19497  -0.87898
  29   48841.6    204.7   0.031416609   0.21176   0.07188   0.25741  -0.37461
  30   51494.5    194.2   0.003731118   0.02385  -0.15308   0.02038   0.00248

FINAL SINGLE POINT ENERGY    -11433.734056976142

DIPOLE MOMENT
-------------
                                X             Y             Z
Electronic contribution:      2.23654     -63.33498      -2.25210
Nuclear contribution   :     -1.76550      63.66252      -2.85258
                        -----------------------------------------
Total Dipole Moment    :      0.47105       0.32753      -5.10468
                        -----------------------------------------
Magnitude (a.u.)       :      5.13682
Magnitude (Debye)      :     13.05677

Rotational constants in cm-1:     0.003520     0.002272     0.001480
Rotational constants in MHz :   105.521627    68.099067    44.374263

                             ****ORCA TERMINATED NORMALLY****
TOTAL RUN TIME: 0 days 9 hours 37 minutes 58 seconds 193 msec
