                         Program Version 5.0.2 -  RELEASE  -
|  1> %maxcore 20000
|  2> %pal
|  3>  nprocs= 6
|  4> end
|  5> ! RI-SCS-PBE-QIDH   def2-TZVP def2/J def2-TZVP/C RIJCOSX CPCM TightSCF
|  6> %TDDFT
|  7>    NROOTS   30
|  8>    dcorr 4
|  9>    doscs true
| 10>    TDA      FALSE
| 11> END
| 12>
| 13>  %CPCM
| 14>    SMD          TRUE
| 15>    SMDsolvent   "ACETONITRILE"
| 16>  END
| 17>
| 18>
| 19> * xyz -2 1
| 20> C                  -3.61009600   -1.22547600   -0.10047400
| 21> C                  -2.28157200   -1.78732300   -0.04367800
| 22> C                  -1.14147600   -1.01942300   -0.07793700
| 23> C                  -1.19740200    0.39332000   -0.17183100
| 24> C                  -2.48014600    0.98582800   -0.22828100
| 25> C                  -3.60743700    0.22874000   -0.19442200
| 26> C                  -0.00374900    1.13013300   -0.18342200
| 27> C                   1.21890500    0.44334400   -0.16235200
| 28> C                   1.22168200   -0.97058000   -0.06966600
| 29> C                   2.39282500   -1.69007500   -0.02658500
| 30> C                   3.69676800   -1.07176300   -0.06393600
| 31> C                   3.63353600    0.38169500   -0.14847000
| 32> C                   2.47584800    1.09034200   -0.19499700
| 33> H                  -2.54584500    2.06402300   -0.29595800
| 34> H                   2.49611900    2.17094400   -0.25162800
| 35> O                   0.05374200   -1.65855700   -0.02115800
| 36> O                   4.76055000   -1.70480200   -0.02845600
| 37> O                  -4.64606200   -1.90363500   -0.07574000
| 38> C                  -0.03296600    2.59655400   -0.41280600
| 39> C                   0.07757000    3.03118300   -1.73518900
| 40> C                  -0.18215500    3.53709900    0.61364800
| 41> C                   0.04654700    4.38066900   -2.04761900
| 42> H                   0.18849700    2.29621500   -2.52456800
| 43> C                  -0.21802200    4.88879200    0.27750000
| 44> C                  -0.10177400    5.31702400   -1.03394000
| 45> H                   0.13728900    4.69664900   -3.07946700
| 46> H                  -0.33801300    5.59639400    1.08877900
| 47> H                  -0.12615100    6.37446700   -1.26794500
| 48> C                  -0.29027500    3.11699500    2.07522800
| 49> O                  -0.56159700    4.01615200    2.90065900
| 50> O                  -0.08619500    1.90139800    2.30893700
| 51> Br                 -2.14595200   -3.66828500    0.07735400
| 52> Br                  2.33728900   -3.57573000    0.08332600
| 53> Br                  5.29813400    1.29255000   -0.19218900
| 54> Br                 -5.30875900    1.06730400   -0.27614200
| 55> *
| 56>
| 57>
| 58>                          ****END OF INPUT****

CARTESIAN COORDINATES (ANGSTROEM)
---------------------------------
  C     -3.610096   -1.225476   -0.100474
  C     -2.281572   -1.787323   -0.043678
  C     -1.141476   -1.019423   -0.077937
  C     -1.197402    0.393320   -0.171831
  C     -2.480146    0.985828   -0.228281
  C     -3.607437    0.228740   -0.194422
  C     -0.003749    1.130133   -0.183422
  C      1.218905    0.443344   -0.162352
  C      1.221682   -0.970580   -0.069666
  C      2.392825   -1.690075   -0.026585
  C      3.696768   -1.071763   -0.063936
  C      3.633536    0.381695   -0.148470
  C      2.475848    1.090342   -0.194997
  H     -2.545845    2.064023   -0.295958
  H      2.496119    2.170944   -0.251628
  O      0.053742   -1.658557   -0.021158
  O      4.760550   -1.704802   -0.028456
  O     -4.646062   -1.903635   -0.075740
  C     -0.032966    2.596554   -0.412806
  C      0.077570    3.031183   -1.735189
  C     -0.182155    3.537099    0.613648
  C      0.046547    4.380669   -2.047619
  H      0.188497    2.296215   -2.524568
  C     -0.218022    4.888792    0.277500
  C     -0.101774    5.317024   -1.033940
  H      0.137289    4.696649   -3.079467
  H     -0.338013    5.596394    1.088779
  H     -0.126151    6.374467   -1.267945
  C     -0.290275    3.116995    2.075228
  O     -0.561597    4.016152    2.900659
  O     -0.086195    1.901398    2.308937
  Br    -2.145952   -3.668285    0.077354
  Br     2.337289   -3.575730    0.083326
  Br     5.298134    1.292550   -0.192189
  Br    -5.308759    1.067304   -0.276142

 Total Charge           Charge          ....   -2
 Multiplicity           Mult            ....    1
 Number of Electrons    NEL             ....  308
 Basis Dimension        Dim             .... 1003

ORBITAL ENERGIES
----------------

  NO   OCC          E(Eh)            E(eV)
   0   2.0000    -487.209434    -13257.6427
   1   2.0000    -487.209306    -13257.6392
   2   2.0000    -487.206535    -13257.5638
   3   2.0000    -487.206469    -13257.5620
   4   2.0000     -64.122052     -1744.8497
   5   2.0000     -64.121921     -1744.8462
   6   2.0000     -64.119043     -1744.7678
   7   2.0000     -64.118963     -1744.7657
   8   2.0000     -57.648615     -1568.6986
   9   2.0000     -57.648483     -1568.6950
  10   2.0000     -57.647261     -1568.6617
  11   2.0000     -57.647147     -1568.6586
  12   2.0000     -57.647131     -1568.6582
  13   2.0000     -57.647014     -1568.6550
  14   2.0000     -57.645681     -1568.6187
  15   2.0000     -57.645601     -1568.6166
  16   2.0000     -57.644171     -1568.5776
  17   2.0000     -57.644134     -1568.5766
  18   2.0000     -57.644093     -1568.5755
  19   2.0000     -57.644056     -1568.5745
  20   2.0000     -20.078817      -546.3724
  21   2.0000     -19.943175      -542.6814
  22   2.0000     -19.942965      -542.6757
  23   2.0000     -19.914192      -541.8927
  24   2.0000     -19.912949      -541.8589
  25   2.0000     -10.913860      -296.9812
  26   2.0000     -10.913648      -296.9755
  27   2.0000     -10.894799      -296.4625
  28   2.0000     -10.894634      -296.4581
  29   2.0000     -10.889505      -296.3185
  30   2.0000     -10.882579      -296.1300
  31   2.0000     -10.863038      -295.5983
  32   2.0000     -10.862987      -295.5969
  33   2.0000     -10.854900      -295.3769
  34   2.0000     -10.854761      -295.3731
  35   2.0000     -10.838770      -294.9379
  36   2.0000     -10.838632      -294.9342
  37   2.0000     -10.837259      -294.8968
  38   2.0000     -10.828429      -294.6565
  39   2.0000     -10.828385      -294.6553
  40   2.0000     -10.820875      -294.4510
  41   2.0000     -10.819068      -294.4018
  42   2.0000     -10.818842      -294.3956
  43   2.0000     -10.816039      -294.3194
  44   2.0000     -10.812785      -294.2308
  45   2.0000      -9.397191      -255.7106
  46   2.0000      -9.397069      -255.7072
  47   2.0000      -9.394245      -255.6304
  48   2.0000      -9.394142      -255.6276
  49   2.0000      -7.090633      -192.9459
  50   2.0000      -7.090513      -192.9427
  51   2.0000      -7.087907      -192.8718
  52   2.0000      -7.087800      -192.8688
  53   2.0000      -7.082682      -192.7296
  54   2.0000      -7.082552      -192.7260
  55   2.0000      -7.082411      -192.7222
  56   2.0000      -7.082282      -192.7187
  57   2.0000      -7.079690      -192.6482
  58   2.0000      -7.079591      -192.6455
  59   2.0000      -7.079192      -192.6346
  60   2.0000      -7.079099      -192.6321
  61   2.0000      -2.974182       -80.9316
  62   2.0000      -2.974072       -80.9286
  63   2.0000      -2.971539       -80.8597
  64   2.0000      -2.971437       -80.8569
  65   2.0000      -2.971229       -80.8513
  66   2.0000      -2.971093       -80.8476
  67   2.0000      -2.970819       -80.8401
  68   2.0000      -2.970680       -80.8363
  69   2.0000      -2.968467       -80.7761
  70   2.0000      -2.968363       -80.7733
  71   2.0000      -2.967774       -80.7572
  72   2.0000      -2.967683       -80.7548
  73   2.0000      -2.962327       -80.6090
  74   2.0000      -2.962310       -80.6086
  75   2.0000      -2.962195       -80.6054
  76   2.0000      -2.962184       -80.6051
  77   2.0000      -2.959085       -80.5208
  78   2.0000      -2.959074       -80.5205
  79   2.0000      -2.958990       -80.5182
  80   2.0000      -2.958986       -80.5181
  81   2.0000      -1.347390       -36.6644
  82   2.0000      -1.228050       -33.4169
  83   2.0000      -1.220870       -33.2216
  84   2.0000      -1.220592       -33.2140
  85   2.0000      -1.129514       -30.7356
  86   2.0000      -1.080486       -29.4015
  87   2.0000      -1.066740       -29.0275
  88   2.0000      -1.048234       -28.5239
  89   2.0000      -1.001360       -27.2484
  90   2.0000      -0.997374       -27.1399
  91   2.0000      -0.977727       -26.6053
  92   2.0000      -0.945578       -25.7305
  93   2.0000      -0.934240       -25.4220
  94   2.0000      -0.924531       -25.1578
  95   2.0000      -0.898850       -24.4590
  96   2.0000      -0.896463       -24.3940
  97   2.0000      -0.868272       -23.6269
  98   2.0000      -0.865613       -23.5545
  99   2.0000      -0.808064       -21.9885
 100   2.0000      -0.784774       -21.3548
 101   2.0000      -0.769922       -20.9506
 102   2.0000      -0.758126       -20.6296
 103   2.0000      -0.722544       -19.6614
 104   2.0000      -0.719588       -19.5810
 105   2.0000      -0.676090       -18.3973
 106   2.0000      -0.673508       -18.3271
 107   2.0000      -0.657909       -17.9026
 108   2.0000      -0.645730       -17.5712
 109   2.0000      -0.609173       -16.5764
 110   2.0000      -0.606291       -16.4980
 111   2.0000      -0.601907       -16.3787
 112   2.0000      -0.577139       -15.7047
 113   2.0000      -0.575022       -15.6472
 114   2.0000      -0.563833       -15.3427
 115   2.0000      -0.562871       -15.3165
 116   2.0000      -0.551145       -14.9974
 117   2.0000      -0.544118       -14.8062
 118   2.0000      -0.531405       -14.4603
 119   2.0000      -0.524312       -14.2673
 120   2.0000      -0.519309       -14.1311
 121   2.0000      -0.518499       -14.1091
 122   2.0000      -0.508838       -13.8462
 123   2.0000      -0.504200       -13.7200
 124   2.0000      -0.501965       -13.6592
 125   2.0000      -0.498430       -13.5630
 126   2.0000      -0.480590       -13.0775
 127   2.0000      -0.476819       -12.9749
 128   2.0000      -0.462337       -12.5808
 129   2.0000      -0.453732       -12.3467
 130   2.0000      -0.448731       -12.2106
 131   2.0000      -0.446763       -12.1570
 132   2.0000      -0.439587       -11.9618
 133   2.0000      -0.423991       -11.5374
 134   2.0000      -0.422259       -11.4902
 135   2.0000      -0.417956       -11.3732
 136   2.0000      -0.401855       -10.9350
 137   2.0000      -0.384495       -10.4626
 138   2.0000      -0.372386       -10.1331
 139   2.0000      -0.366376        -9.9696
 140   2.0000      -0.364622        -9.9219
 141   2.0000      -0.360686        -9.8148
 142   2.0000      -0.354492        -9.6462
 143   2.0000      -0.347250        -9.4491
 144   2.0000      -0.343819        -9.3558
 145   2.0000      -0.334779        -9.1098
 146   2.0000      -0.330735        -8.9998
 147   2.0000      -0.328752        -8.9458
 148   2.0000      -0.317539        -8.6407
 149   2.0000      -0.313599        -8.5335
 150   2.0000      -0.309968        -8.4346
 151   2.0000      -0.296316        -8.0632
 152   2.0000      -0.280453        -7.6315
 153   2.0000      -0.233516        -6.3543
 154   0.0000      -0.013658        -0.3717
 155   0.0000       0.044208         1.2030
 156   0.0000       0.056146         1.5278
 157   0.0000       0.069806         1.8995
 158   0.0000       0.077568         2.1107

MULLIKEN ATOMIC CHARGES
-----------------------
   0 C :    0.231983
   1 C :   -0.266892
   2 C :    0.332184
   3 C :    0.005857
   4 C :   -0.337122
   5 C :   -0.008071
   6 C :    0.640207
   7 C :    0.007180
   8 C :    0.371317
   9 C :   -0.287937
  10 C :    0.245964
  11 C :   -0.022968
  12 C :   -0.319258
  13 H :    0.193484
  14 H :    0.193704
  15 O :   -0.249315
  16 O :   -0.528319
  17 O :   -0.528585
  18 C :   -0.068967
  19 C :   -0.363616
  20 C :   -0.080463
  21 C :   -0.131299
  22 H :    0.167115
  23 C :   -0.174781
  24 C :   -0.184002
  25 H :    0.171537
  26 H :    0.170420
  27 H :    0.168794
  28 C :    0.383700
  29 O :   -0.624459
  30 O :   -0.616195
  31 Br:   -0.117166
  32 Br:   -0.116718
  33 Br:   -0.128694
  34 Br:   -0.128618
Sum of atomic charges:   -2.0000000

LOEWDIN ATOMIC CHARGES
----------------------
   0 C :   -0.393186
   1 C :   -0.378561
   2 C :   -0.173597
   3 C :   -0.118483
   4 C :   -0.089427
   5 C :   -0.377498
   6 C :    0.048802
   7 C :   -0.119079
   8 C :   -0.173412
   9 C :   -0.378724
  10 C :   -0.393059
  11 C :   -0.377866
  12 C :   -0.089981
  13 H :    0.170408
  14 H :    0.170045
  15 O :    0.359372
  16 O :   -0.046710
  17 O :   -0.047058
  18 C :   -0.068039
  19 C :   -0.100169
  20 C :   -0.091018
  21 C :   -0.140967
  22 H :    0.162651
  23 C :   -0.106750
  24 C :   -0.146765
  25 H :    0.155345
  26 H :    0.157499
  27 H :    0.153707
  28 C :   -0.592654
  29 O :   -0.134307
  30 O :   -0.101238
  31 Br:    0.324935
  32 Br:    0.325106
  33 Br:    0.305565
  34 Br:    0.305116

  Mayer bond orders larger than 0.100000
B(  0-C ,  1-C ) :   1.0523 B(  0-C ,  5-C ) :   1.0555 B(  0-C , 17-O ) :   2.0952
B(  1-C ,  2-C ) :   1.4256 B(  1-C , 31-Br) :   1.2099 B(  2-C ,  3-C ) :   1.3304
B(  2-C , 15-O ) :   1.1071 B(  2-C , 31-Br) :  -0.1444 B(  3-C ,  4-C ) :   1.2158
B(  3-C ,  6-C ) :   1.2047 B(  4-C ,  5-C ) :   1.5855 B(  4-C , 13-H ) :   0.9517
B(  5-C , 34-Br) :   1.0598 B(  6-C ,  7-C ) :   1.1988 B(  6-C , 18-C ) :   0.4565
B(  6-C , 19-C ) :  -0.1529 B(  7-C ,  8-C ) :   1.3029 B(  7-C , 12-C ) :   1.2103
B(  8-C ,  9-C ) :   1.4077 B(  8-C , 15-O ) :   1.1076 B(  8-C , 32-Br) :  -0.1460
B(  9-C , 10-C ) :   1.0464 B(  9-C , 32-Br) :   1.2151 B( 10-C , 11-C ) :   1.0537
B( 10-C , 16-O ) :   2.0921 B( 11-C , 12-C ) :   1.5832 B( 11-C , 33-Br) :   1.0617
B( 12-C , 14-H ) :   0.9518 B( 18-C , 19-C ) :   1.5239 B( 18-C , 20-C ) :   1.3887
B( 19-C , 21-C ) :   1.4422 B( 19-C , 22-H ) :   0.9913 B( 20-C , 23-C ) :   1.4525
B( 20-C , 28-C ) :   0.9066 B( 20-C , 29-O ) :  -0.1781 B( 21-C , 24-C ) :   1.3743
B( 21-C , 25-H ) :   0.9803 B( 23-C , 24-C ) :   1.3968 B( 23-C , 26-H ) :   0.9649
B( 24-C , 27-H ) :   0.9838 B( 28-C , 29-O ) :   1.8424 B( 28-C , 30-O ) :   1.7542

MP2 TOTAL ENERGY:   -11435.351644620 Eh

-----------------------------------------------------------------------------
         ABSORPTION SPECTRUM VIA TRANSITION ELECTRIC DIPOLE MOMENTS
-----------------------------------------------------------------------------
State   Energy    Wavelength  fosc         T2        TX        TY        TZ
        (cm-1)      (nm)                 (au**2)    (au)      (au)      (au)
-----------------------------------------------------------------------------
   1   20088.9    497.8   0.861192972  14.11300   3.75541   0.09552   0.02702
   2   27913.4    358.3   0.022864008   0.26966  -0.01899   0.51846  -0.02235
   3   30738.2    325.3   0.010822845   0.11591   0.04466  -0.31350  -0.12506
   4   34457.5    290.2   0.016015279   0.15301   0.37577  -0.10695   0.01931
   5   32719.2    305.6   0.155193416   1.56152  -0.09138   1.24607  -0.02195
   6   32725.9    305.6   0.434068840   4.36659   0.05215  -2.08889   0.02014
   7   32344.3    309.2   0.000728124   0.00741  -0.00325   0.08419  -0.01766
   8   39054.4    256.1   0.000772274   0.00651  -0.02139   0.07773  -0.00318
   9   36463.1    274.2   0.002537205   0.02291  -0.14370   0.04751   0.00066
  10   38777.7    257.9   0.000697064   0.00592  -0.03981  -0.06579  -0.00228
  11   36738.4    272.2   0.000127060   0.00114  -0.00590  -0.02658  -0.01993
  12   38333.6    260.9   0.004508912   0.03872  -0.05745  -0.09582  -0.16199
  13   37586.5    266.1   0.006032344   0.05284  -0.02142  -0.13714  -0.18322
  14   38336.9    260.8   0.001583267   0.01360  -0.01805  -0.11509  -0.00486
  15   41076.2    243.5   0.006192643   0.04963   0.00273   0.08109   0.20748
  16   39101.8    255.7   0.006621559   0.05575  -0.18241  -0.13317   0.06885
  17   44429.3    225.1   0.000110365   0.00082  -0.00844   0.02158  -0.01676
  18   43921.2    227.7   0.001546198   0.01159   0.02454   0.04482   0.09475
  19   39840.0    251.0   0.003901001   0.03224  -0.03797  -0.10910  -0.13745
  20   43109.7    232.0   0.023478685   0.17930  -0.01157   0.30156   0.29703
  21   36978.9    270.4   0.013764188   0.12254  -0.05533  -0.30725   0.15834
  22   34968.2    286.0   0.011059606   0.10412  -0.32002  -0.01316  -0.03918
  23   40075.3    249.5   0.093762390   0.77024  -0.43602   0.57085  -0.50424
  24   43892.6    227.8   0.953501374   7.15164   2.66810   0.16206  -0.08147
  25   33149.5    301.7   0.002192571   0.02177   0.03265  -0.14130  -0.02726
  26   45829.4    218.2   0.069053839   0.49604   0.37726   0.58705   0.09535
  27   48057.8    208.1   0.635824490   4.35561  -0.18643   2.06753  -0.21492
  28   47798.5    209.2   0.175088838   1.20592  -0.09647  -0.35073   1.03615
  29   50250.2    199.0   0.466035748   3.05321   0.28341  -0.01987  -1.72409
  30   44958.9    222.4   0.000100434   0.00074  -0.01314  -0.02279  -0.00660

FINAL SINGLE POINT ENERGY    -11433.259913833759

DIPOLE MOMENT
-------------
                                X             Y             Z
Electronic contribution:      2.23577     -63.41687      -2.22092
Nuclear contribution   :     -1.76550      63.66252      -2.85258
                        -----------------------------------------
Total Dipole Moment    :      0.47028       0.24565      -5.07350
                        -----------------------------------------
Magnitude (a.u.)       :      5.10117
Magnitude (Debye)      :     12.96615

Rotational constants in cm-1:     0.003520     0.002272     0.001480
Rotational constants in MHz :   105.521627    68.099067    44.374263

                             ****ORCA TERMINATED NORMALLY****
TOTAL RUN TIME: 0 days 9 hours 11 minutes 51 seconds 514 msec
