                         Program Version 5.0.2 -  RELEASE  -
|  1> %maxcore 20000
|  2> %pal
|  3>  nprocs= 4
|  4> end
|  5> ! RI-DSD-BLYP D3BJ def2-TZVP def2/J def2-TZVP/C RIJCOSX CPCM TightSCF
|  6> %TDDFT
|  7>    NROOTS   30
|  8>    dcorr 4
|  9>    doscs true
| 10>    scspar 0.333, 1.2, 0.43, 1.24
| 11>    TDA      FALSE
| 12> END
| 13>
| 14>  %CPCM
| 15>    SMD          TRUE
| 16>    SMDsolvent   "ACETONITRILE"
| 17>  END
| 18>
| 19>
| 20> * xyz -2 1
| 21> C                  -3.61009600   -1.22547600   -0.10047400
| 22> C                  -2.28157200   -1.78732300   -0.04367800
| 23> C                  -1.14147600   -1.01942300   -0.07793700
| 24> C                  -1.19740200    0.39332000   -0.17183100
| 25> C                  -2.48014600    0.98582800   -0.22828100
| 26> C                  -3.60743700    0.22874000   -0.19442200
| 27> C                  -0.00374900    1.13013300   -0.18342200
| 28> C                   1.21890500    0.44334400   -0.16235200
| 29> C                   1.22168200   -0.97058000   -0.06966600
| 30> C                   2.39282500   -1.69007500   -0.02658500
| 31> C                   3.69676800   -1.07176300   -0.06393600
| 32> C                   3.63353600    0.38169500   -0.14847000
| 33> C                   2.47584800    1.09034200   -0.19499700
| 34> H                  -2.54584500    2.06402300   -0.29595800
| 35> H                   2.49611900    2.17094400   -0.25162800
| 36> O                   0.05374200   -1.65855700   -0.02115800
| 37> O                   4.76055000   -1.70480200   -0.02845600
| 38> O                  -4.64606200   -1.90363500   -0.07574000
| 39> C                  -0.03296600    2.59655400   -0.41280600
| 40> C                   0.07757000    3.03118300   -1.73518900
| 41> C                  -0.18215500    3.53709900    0.61364800
| 42> C                   0.04654700    4.38066900   -2.04761900
| 43> H                   0.18849700    2.29621500   -2.52456800
| 44> C                  -0.21802200    4.88879200    0.27750000
| 45> C                  -0.10177400    5.31702400   -1.03394000
| 46> H                   0.13728900    4.69664900   -3.07946700
| 47> H                  -0.33801300    5.59639400    1.08877900
| 48> H                  -0.12615100    6.37446700   -1.26794500
| 49> C                  -0.29027500    3.11699500    2.07522800
| 50> O                  -0.56159700    4.01615200    2.90065900
| 51> O                  -0.08619500    1.90139800    2.30893700
| 52> Br                 -2.14595200   -3.66828500    0.07735400
| 53> Br                  2.33728900   -3.57573000    0.08332600
| 54> Br                  5.29813400    1.29255000   -0.19218900
| 55> Br                 -5.30875900    1.06730400   -0.27614200
| 56> *
| 57>
| 58>
| 59>                          ****END OF INPUT****

CARTESIAN COORDINATES (ANGSTROEM)
---------------------------------
  C     -3.610096   -1.225476   -0.100474
  C     -2.281572   -1.787323   -0.043678
  C     -1.141476   -1.019423   -0.077937
  C     -1.197402    0.393320   -0.171831
  C     -2.480146    0.985828   -0.228281
  C     -3.607437    0.228740   -0.194422
  C     -0.003749    1.130133   -0.183422
  C      1.218905    0.443344   -0.162352
  C      1.221682   -0.970580   -0.069666
  C      2.392825   -1.690075   -0.026585
  C      3.696768   -1.071763   -0.063936
  C      3.633536    0.381695   -0.148470
  C      2.475848    1.090342   -0.194997
  H     -2.545845    2.064023   -0.295958
  H      2.496119    2.170944   -0.251628
  O      0.053742   -1.658557   -0.021158
  O      4.760550   -1.704802   -0.028456
  O     -4.646062   -1.903635   -0.075740
  C     -0.032966    2.596554   -0.412806
  C      0.077570    3.031183   -1.735189
  C     -0.182155    3.537099    0.613648
  C      0.046547    4.380669   -2.047619
  H      0.188497    2.296215   -2.524568
  C     -0.218022    4.888792    0.277500
  C     -0.101774    5.317024   -1.033940
  H      0.137289    4.696649   -3.079467
  H     -0.338013    5.596394    1.088779
  H     -0.126151    6.374467   -1.267945
  C     -0.290275    3.116995    2.075228
  O     -0.561597    4.016152    2.900659
  O     -0.086195    1.901398    2.308937
  Br    -2.145952   -3.668285    0.077354
  Br     2.337289   -3.575730    0.083326
  Br     5.298134    1.292550   -0.192189
  Br    -5.308759    1.067304   -0.276142

 Total Charge           Charge          ....   -2
 Multiplicity           Mult            ....    1
 Number of Electrons    NEL             ....  308
 Basis Dimension        Dim             .... 1003

ORBITAL ENERGIES
----------------

  NO   OCC          E(Eh)            E(eV)
   0   2.0000    -487.259947    -13259.0172
   1   2.0000    -487.259821    -13259.0138
   2   2.0000    -487.256691    -13258.9286
   3   2.0000    -487.256629    -13258.9270
   4   2.0000     -64.123042     -1744.8767
   5   2.0000     -64.122913     -1744.8732
   6   2.0000     -64.119672     -1744.7850
   7   2.0000     -64.119597     -1744.7829
   8   2.0000     -57.655020     -1568.8729
   9   2.0000     -57.654890     -1568.8693
  10   2.0000     -57.653705     -1568.8371
  11   2.0000     -57.653585     -1568.8338
  12   2.0000     -57.653577     -1568.8336
  13   2.0000     -57.653453     -1568.8302
  14   2.0000     -57.651727     -1568.7832
  15   2.0000     -57.651652     -1568.7812
  16   2.0000     -57.650250     -1568.7431
  17   2.0000     -57.650213     -1568.7420
  18   2.0000     -57.650176     -1568.7411
  19   2.0000     -57.650139     -1568.7400
  20   2.0000     -20.080855      -546.4279
  21   2.0000     -19.947246      -542.7922
  22   2.0000     -19.947044      -542.7867
  23   2.0000     -19.919303      -542.0318
  24   2.0000     -19.918481      -542.0094
  25   2.0000     -10.919258      -297.1281
  26   2.0000     -10.919046      -297.1223
  27   2.0000     -10.901301      -296.6395
  28   2.0000     -10.901142      -296.6352
  29   2.0000     -10.898705      -296.5688
  30   2.0000     -10.886645      -296.2407
  31   2.0000     -10.866193      -295.6841
  32   2.0000     -10.866145      -295.6828
  33   2.0000     -10.858027      -295.4619
  34   2.0000     -10.857898      -295.4584
  35   2.0000     -10.844272      -295.0876
  36   2.0000     -10.844136      -295.0839
  37   2.0000     -10.841504      -295.0123
  38   2.0000     -10.832469      -294.7665
  39   2.0000     -10.832431      -294.7654
  40   2.0000     -10.826293      -294.5984
  41   2.0000     -10.824671      -294.5543
  42   2.0000     -10.823930      -294.5341
  43   2.0000     -10.821826      -294.4768
  44   2.0000     -10.818525      -294.3870
  45   2.0000      -9.382014      -255.2976
  46   2.0000      -9.381894      -255.2943
  47   2.0000      -9.378715      -255.2078
  48   2.0000      -9.378616      -255.2051
  49   2.0000      -7.077692      -192.5938
  50   2.0000      -7.077573      -192.5906
  51   2.0000      -7.074614      -192.5100
  52   2.0000      -7.074511      -192.5072
  53   2.0000      -7.069856      -192.3806
  54   2.0000      -7.069728      -192.3771
  55   2.0000      -7.069573      -192.3729
  56   2.0000      -7.069445      -192.3694
  57   2.0000      -7.066526      -192.2900
  58   2.0000      -7.066432      -192.2874
  59   2.0000      -7.065986      -192.2752
  60   2.0000      -7.065897      -192.2728
  61   2.0000      -2.963955       -80.6533
  62   2.0000      -2.963846       -80.6504
  63   2.0000      -2.961018       -80.5734
  64   2.0000      -2.960962       -80.5719
  65   2.0000      -2.960885       -80.5698
  66   2.0000      -2.960864       -80.5692
  67   2.0000      -2.960592       -80.5618
  68   2.0000      -2.960454       -80.5581
  69   2.0000      -2.957920       -80.4891
  70   2.0000      -2.957820       -80.4864
  71   2.0000      -2.957179       -80.4689
  72   2.0000      -2.957092       -80.4666
  73   2.0000      -2.952183       -80.3330
  74   2.0000      -2.952165       -80.3325
  75   2.0000      -2.952052       -80.3294
  76   2.0000      -2.952041       -80.3291
  77   2.0000      -2.948583       -80.2350
  78   2.0000      -2.948574       -80.2348
  79   2.0000      -2.948493       -80.2326
  80   2.0000      -2.948490       -80.2325
  81   2.0000      -1.334940       -36.3256
  82   2.0000      -1.217213       -33.1220
  83   2.0000      -1.209158       -32.9029
  84   2.0000      -1.208889       -32.8955
  85   2.0000      -1.119502       -30.4632
  86   2.0000      -1.068480       -29.0748
  87   2.0000      -1.054614       -28.6975
  88   2.0000      -1.036456       -28.2034
  89   2.0000      -0.990016       -26.9397
  90   2.0000      -0.986317       -26.8390
  91   2.0000      -0.967146       -26.3174
  92   2.0000      -0.935293       -25.4506
  93   2.0000      -0.923661       -25.1341
  94   2.0000      -0.913970       -24.8704
  95   2.0000      -0.888625       -24.1807
  96   2.0000      -0.886365       -24.1192
  97   2.0000      -0.858042       -23.3485
  98   2.0000      -0.855674       -23.2841
  99   2.0000      -0.797957       -21.7135
 100   2.0000      -0.774366       -21.0716
 101   2.0000      -0.759851       -20.6766
 102   2.0000      -0.748356       -20.3638
 103   2.0000      -0.712914       -19.3994
 104   2.0000      -0.709825       -19.3153
 105   2.0000      -0.666320       -18.1315
 106   2.0000      -0.663319       -18.0498
 107   2.0000      -0.648475       -17.6459
 108   2.0000      -0.635746       -17.2995
 109   2.0000      -0.600075       -16.3289
 110   2.0000      -0.597033       -16.2461
 111   2.0000      -0.591331       -16.0909
 112   2.0000      -0.568187       -15.4611
 113   2.0000      -0.566138       -15.4054
 114   2.0000      -0.554614       -15.0918
 115   2.0000      -0.554189       -15.0803
 116   2.0000      -0.542510       -14.7625
 117   2.0000      -0.535717       -14.5776
 118   2.0000      -0.523546       -14.2464
 119   2.0000      -0.515950       -14.0397
 120   2.0000      -0.510044       -13.8790
 121   2.0000      -0.507667       -13.8143
 122   2.0000      -0.500300       -13.6139
 123   2.0000      -0.494364       -13.4523
 124   2.0000      -0.491285       -13.3686
 125   2.0000      -0.488511       -13.2930
 126   2.0000      -0.471604       -12.8330
 127   2.0000      -0.467730       -12.7276
 128   2.0000      -0.454818       -12.3762
 129   2.0000      -0.443352       -12.0642
 130   2.0000      -0.440644       -11.9905
 131   2.0000      -0.437340       -11.9006
 132   2.0000      -0.429847       -11.6967
 133   2.0000      -0.416857       -11.3433
 134   2.0000      -0.411549       -11.1988
 135   2.0000      -0.407389       -11.0856
 136   2.0000      -0.391577       -10.6554
 137   2.0000      -0.374271       -10.1844
 138   2.0000      -0.362131        -9.8541
 139   2.0000      -0.356570        -9.7028
 140   2.0000      -0.355055        -9.6615
 141   2.0000      -0.351663        -9.5692
 142   2.0000      -0.345359        -9.3977
 143   2.0000      -0.338493        -9.2108
 144   2.0000      -0.334844        -9.1116
 145   2.0000      -0.327067        -8.8999
 146   2.0000      -0.323182        -8.7942
 147   2.0000      -0.320090        -8.7101
 148   2.0000      -0.307156        -8.3581
 149   2.0000      -0.303234        -8.2514
 150   2.0000      -0.299717        -8.1557
 151   2.0000      -0.286679        -7.8009
 152   2.0000      -0.270792        -7.3686
 153   2.0000      -0.223660        -6.0861
 154   0.0000      -0.003067        -0.0834
 155   0.0000       0.053476         1.4551
 156   0.0000       0.065480         1.7818
 157   0.0000       0.079444         2.1618
 158   0.0000       0.086730         2.3600

MULLIKEN ATOMIC CHARGES
-----------------------
   0 C :    0.215753
   1 C :   -0.242268
   2 C :    0.324075
   3 C :   -0.000477
   4 C :   -0.319892
   5 C :   -0.006817
   6 C :    0.674439
   7 C :    0.003371
   8 C :    0.362573
   9 C :   -0.263195
  10 C :    0.229781
  11 C :   -0.021594
  12 C :   -0.300583
  13 H :    0.184536
  14 H :    0.184362
  15 O :   -0.285368
  16 O :   -0.529183
  17 O :   -0.529367
  18 C :   -0.055950
  19 C :   -0.358286
  20 C :   -0.107104
  21 C :   -0.122753
  22 H :    0.156334
  23 C :   -0.161563
  24 C :   -0.175490
  25 H :    0.162247
  26 H :    0.159375
  27 H :    0.159349
  28 C :    0.401780
  29 O :   -0.625703
  30 O :   -0.625693
  31 Br:   -0.115614
  32 Br:   -0.115085
  33 Br:   -0.128034
  34 Br:   -0.127957
Sum of atomic charges:   -2.0000000

LOEWDIN ATOMIC CHARGES
----------------------
   0 C :   -0.387381
   1 C :   -0.376757
   2 C :   -0.169253
   3 C :   -0.115916
   4 C :   -0.086606
   5 C :   -0.375130
   6 C :    0.054301
   7 C :   -0.116449
   8 C :   -0.169070
   9 C :   -0.376938
  10 C :   -0.387255
  11 C :   -0.375491
  12 C :   -0.087135
  13 H :    0.166685
  14 H :    0.166288
  15 O :    0.353553
  16 O :   -0.054322
  17 O :   -0.054662
  18 C :   -0.062672
  19 C :   -0.097945
  20 C :   -0.088221
  21 C :   -0.138425
  22 H :    0.158700
  23 C :   -0.104595
  24 C :   -0.144480
  25 H :    0.151692
  26 H :    0.153830
  27 H :    0.150053
  28 C :   -0.586025
  29 O :   -0.139115
  30 O :   -0.106861
  31 Br:    0.321127
  32 Br:    0.321300
  33 Br:    0.301812
  34 Br:    0.301364

  Mayer bond orders larger than 0.100000
B(  0-C ,  1-C ) :   1.0483 B(  0-C ,  5-C ) :   1.0470 B(  0-C , 17-O ) :   2.1292
B(  1-C ,  2-C ) :   1.4375 B(  1-C , 17-O ) :  -0.1121 B(  1-C , 31-Br) :   1.1869
B(  2-C ,  3-C ) :   1.3159 B(  2-C , 15-O ) :   1.0925 B(  2-C , 31-Br) :  -0.1253
B(  3-C ,  4-C ) :   1.2063 B(  3-C ,  6-C ) :   1.1886 B(  4-C ,  5-C ) :   1.5910
B(  4-C , 13-H ) :   0.9545 B(  5-C , 17-O ) :  -0.1113 B(  5-C , 34-Br) :   1.0458
B(  6-C ,  7-C ) :   1.1832 B(  6-C , 18-C ) :   0.4369 B(  6-C , 19-C ) :  -0.1408
B(  7-C ,  8-C ) :   1.2893 B(  7-C , 12-C ) :   1.2013 B(  8-C ,  9-C ) :   1.4200
B(  8-C , 15-O ) :   1.0930 B(  8-C , 32-Br) :  -0.1268 B(  9-C , 10-C ) :   1.0429
B(  9-C , 16-O ) :  -0.1115 B(  9-C , 32-Br) :   1.1922 B( 10-C , 11-C ) :   1.0458
B( 10-C , 16-O ) :   2.1256 B( 11-C , 12-C ) :   1.5896 B( 11-C , 16-O ) :  -0.1088
B( 11-C , 33-Br) :   1.0475 B( 12-C , 14-H ) :   0.9538 B( 18-C , 19-C ) :   1.4963
B( 18-C , 20-C ) :   1.3962 B( 19-C , 21-C ) :   1.4428 B( 19-C , 22-H ) :   0.9964
B( 20-C , 23-C ) :   1.4472 B( 20-C , 28-C ) :   0.8975 B( 20-C , 29-O ) :  -0.1938
B( 21-C , 24-C ) :   1.3750 B( 21-C , 25-H ) :   0.9845 B( 23-C , 24-C ) :   1.3970
B( 23-C , 26-H ) :   0.9696 B( 24-C , 27-H ) :   0.9874 B( 28-C , 29-O ) :   1.8546
B( 28-C , 30-O ) :   1.7558

MP2 TOTAL ENERGY:   -11435.170117005 Eh

-----------------------------------------------------------------------------
         ABSORPTION SPECTRUM VIA TRANSITION ELECTRIC DIPOLE MOMENTS
-----------------------------------------------------------------------------
State   Energy    Wavelength  fosc         T2        TX        TY        TZ
        (cm-1)      (nm)                 (au**2)    (au)      (au)      (au)
-----------------------------------------------------------------------------
   1   10136.6    986.5   0.433260703  14.07124   3.74985   0.09543   0.02714
   2   15585.4    641.6   0.013272031   0.28035   0.01853  -0.52853   0.02572
   3   17482.3    572.0   0.004141731   0.07799   0.04302  -0.25131  -0.11396
   4   24963.8    400.6   0.011491487   0.15155  -0.37535   0.10156  -0.01854
   5   19954.9    501.1   0.316472060   5.22110  -0.11789   2.28159  -0.03934
   6   17428.7    573.8   0.045006148   0.85012  -0.02979  -0.92147   0.01114
   7   16480.9    606.8   0.000116464   0.00233   0.00188  -0.04501   0.01722
   8   31709.4    315.4   0.001228589   0.01276  -0.00643  -0.11270   0.00355
   9   31287.6    319.6   0.000635981   0.00669   0.02446   0.07676  -0.01421
  10   23641.7    423.0   0.001442233   0.02008   0.13943   0.02026  -0.01527
  11   23928.8    417.9   0.000332012   0.00457   0.01369   0.06196   0.02327
  12   27437.7    364.5   0.003822527   0.04586  -0.05266  -0.14065  -0.15268
  13   27182.8    367.9   0.005323588   0.06447   0.00344   0.05796   0.24719
  14   27185.4    367.8   0.003970456   0.04808  -0.03314  -0.16378  -0.14199
  15   39014.2    256.3   0.000348382   0.00294   0.02079  -0.03567  -0.03515
  16   38905.8    257.0   0.000114648   0.00097  -0.02960  -0.00627   0.00741
  17   30635.8    326.4   0.003220462   0.03461   0.00422   0.01841  -0.18507
  18   26505.1    377.3   0.004355619   0.05410   0.19211   0.11688  -0.05943
  19   30884.1    323.8   0.014207516   0.15145  -0.01652  -0.25096  -0.29697
  20   27211.4    367.5   0.003268777   0.03955  -0.00740  -0.17424  -0.09556
  21   19679.8    508.1   0.001282474   0.02145   0.07103   0.12801   0.00476
  22   12752.0    784.2   0.018830718   0.48614   0.67915  -0.09634   0.12494
  23   32576.1    307.0   0.636495963   6.43239   2.53335  -0.07523   0.09430
  24   20540.0    486.9   0.069193465   1.10902   0.68403   0.65488  -0.46072
  25    2224.9   4494.5   0.000341703   0.05056  -0.03861   0.21561   0.05080
  26   38004.1    263.1   0.521118147   4.51421  -0.02431  -2.11879   0.15603
  27   32696.2    305.8   0.049161102   0.49499  -0.44257   0.50225  -0.21651
  28   40895.8    244.5   0.010597908   0.08531  -0.14447  -0.05070  -0.24874
  29   40649.9    246.0   0.307999733   2.49440  -0.22573  -0.21312   1.54856
  30   38260.2    261.4   0.199394267   1.71570   0.22504  -0.00597  -1.29036

Dispersion correction           -0.047927874
FINAL SINGLE POINT ENERGY    -11432.533630450689

DIPOLE MOMENT
-------------
                                X             Y             Z
Electronic contribution:      2.23624     -63.37875      -2.23987
Nuclear contribution   :     -1.76550      63.66252      -2.85258
                        -----------------------------------------
Total Dipole Moment    :      0.47074       0.28376      -5.09245
                        -----------------------------------------
Magnitude (a.u.)       :      5.12203
Magnitude (Debye)      :     13.01916

Rotational constants in cm-1:     0.003520     0.002272     0.001480
Rotational constants in MHz :   105.521627    68.099067    44.374263

                             ****ORCA TERMINATED NORMALLY****
TOTAL RUN TIME: 0 days 5 hours 25 minutes 44 seconds 409 msec
