 Gaussian 09, Revision E.01,

 ----------------------------------------------------------------------
 #p wB97XD/def2TZVP opt freq=noraman nosymm int=ultrafine scrf=(SMD,sol
 vent=Acetonitrile)
 ----------------------------------------------------------------------

 -----
 Title
 -----
 Symbolic Z-matrix:
 Charge = -2 Multiplicity = 1

 SCF Done:  E(RwB97XD) =  -11439.0643693     A.U. after   16 cycles
 SCF Done:  E(RwB97XD) =  -11439.0720962     A.U. after   13 cycles
 SCF Done:  E(RwB97XD) =  -11439.0724369     A.U. after   13 cycles
 SCF Done:  E(RwB97XD) =  -11439.0612757     A.U. after   14 cycles
 SCF Done:  E(RwB97XD) =  -11439.0725696     A.U. after   10 cycles
 SCF Done:  E(RwB97XD) =  -11439.0726902     A.U. after   12 cycles
 SCF Done:  E(RwB97XD) =  -11439.0727191     A.U. after   11 cycles
 SCF Done:  E(RwB97XD) =  -11439.0727191     A.U. after    9 cycles
 SCF Done:  E(RwB97XD) =  -11439.0727206     A.U. after    9 cycles
 SCF Done:  E(RwB97XD) =  -11439.0727218     A.U. after   10 cycles
 SCF Done:  E(RwB97XD) =  -11439.0725871     A.U. after   13 cycles
 SCF Done:  E(RwB97XD) =  -11439.0727442     A.U. after   12 cycles
 SCF Done:  E(RwB97XD) =  -11439.0727494     A.U. after   11 cycles
 SCF Done:  E(RwB97XD) =  -11439.0727514     A.U. after   10 cycles
 SCF Done:  E(RwB97XD) =  -11439.0727516     A.U. after   10 cycles
 SCF Done:  E(RwB97XD) =  -11439.0727518     A.U. after   10 cycles
 SCF Done:  E(RwB97XD) =  -11439.0727518     A.U. after    8 cycles
 SCF Done:  E(RwB97XD) =  -11439.0727518     A.U. after    7 cycles
 Optimization completed.
    -- Stationary point found.
 Normal termination of Gaussian 09 at Sat Feb 12 17:53:51 2022.

 ---------------------------------------------------------------------
 #P Geom=AllCheck Guess=TCheck SCRF=Check GenChk RwB97XD/def2TZVP Freq
 ---------------------------------------------------------------------

 Structure from the checkpoint file:  "cp.chk"
 -----
 Title
 -----
 Charge = -2 Multiplicity = 1

 SCF Done:  E(RwB97XD) =  -11439.0727518     A.U. after    1 cycles

  Exact polarizability: 673.438  75.617 497.739 -80.545-171.193 476.745
 Approx polarizability: 493.193  27.883 393.222 -34.904 -97.154 379.626

                      1                      2                      3
                      A                      A                      A
 Frequencies --     15.9043                21.6207                28.0800
 Red. masses --     11.3616                18.6212                48.1709
 Frc consts  --      0.0017                 0.0051                 0.0224
 IR Inten    --      8.5522                 1.4030                 0.0495

                      4                      5                      6
                      A                      A                      A
 Frequencies --     44.4201                47.1596                66.0458
 Red. masses --     11.3567                 6.4117                13.0260
 Frc consts  --      0.0132                 0.0084                 0.0335
 IR Inten    --      5.7084                 3.0100                 5.5197

                      7                      8                      9
                      A                      A                      A
 Frequencies --     69.3244                74.6737                79.2244
 Red. masses --     32.1341                17.9605                17.3673
 Frc consts  --      0.0910                 0.0590                 0.0642
 IR Inten    --      0.4741                 5.9458                 6.1855

                     10                     11                     12
                      A                      A                      A
 Frequencies --    106.3683               121.3356               128.4912
 Red. masses --     51.3605                 6.4230                16.6815
 Frc consts  --      0.3424                 0.0557                 0.1623
 IR Inten    --      0.8124                 2.7701                 2.8764

                     13                     14                     15
                      A                      A                      A
 Frequencies --    130.3594               138.6781               153.5495
 Red. masses --     15.2981                 8.8450                14.5553
 Frc consts  --      0.1532                 0.1002                 0.2022
 IR Inten    --     17.3270                 2.5992                 0.0866

                     16                     17                     18
                      A                      A                      A
 Frequencies --    168.6209               190.0535               209.0514
 Red. masses --      9.1137                12.0094                19.0018
 Frc consts  --      0.1527                 0.2556                 0.4893
 IR Inten    --      4.0121                15.1201                 3.0836

                     19                     20                     21
                      A                      A                      A
 Frequencies --    243.0333               253.2280               265.6464
 Red. masses --      9.2523                 9.5011                 7.8440
 Frc consts  --      0.3220                 0.3590                 0.3261
 IR Inten    --     17.4067                 0.8497                 2.0035

                     22                     23                     24
                      A                      A                      A
 Frequencies --    267.1700               275.8427               286.1319
 Red. masses --     15.4468                16.3361                 8.5912
 Frc consts  --      0.6496                 0.7324                 0.4144
 IR Inten    --      5.8258                11.3073                61.4644

                     25                     26                     27
                      A                      A                      A
 Frequencies --    311.0182               337.9007               360.2120
 Red. masses --      7.5181                12.8659                11.8926
 Frc consts  --      0.4285                 0.8655                 0.9092
 IR Inten    --      4.0662                 2.8681                 7.2122

                     28                     29                     30
                      A                      A                      A
 Frequencies --    378.3473               393.8595               412.0678
 Red. masses --     11.3724                10.3456                 9.6266
 Frc consts  --      0.9591                 0.9456                 0.9631
 IR Inten    --      1.2474                 6.6081                 8.0272

                     31                     32                     33
                      A                      A                      A
 Frequencies --    443.7080               454.5617               493.7956
 Red. masses --      3.6806                 9.9145                 6.1211
 Frc consts  --      0.4269                 1.2070                 0.8794
 IR Inten    --      0.1346               190.8704               229.8736

                     34                     35                     36
                      A                      A                      A
 Frequencies --    498.2202               519.8494               532.4753
 Red. masses --      4.3900                 3.9825                 7.0136
 Frc consts  --      0.6420                 0.6341                 1.1716
 IR Inten    --     27.0016                 0.5451                 8.5557

                     37                     38                     39
                      A                      A                      A
 Frequencies --    595.9932               632.6534               656.1730
 Red. masses --      5.6352                 8.2830                10.3220
 Frc consts  --      1.1794                 1.9533                 2.6185
 IR Inten    --    184.9550                 7.5313                73.8300

                     40                     41                     42
                      A                      A                      A
 Frequencies --    667.9242               671.2792               684.1940
 Red. masses --      6.8406                 8.1633                 7.8080
 Frc consts  --      1.7980                 2.1673                 2.1535
 IR Inten    --     35.8739                29.4839                28.0722

                     43                     44                     45
                      A                      A                      A
 Frequencies --    720.3819               722.0779               724.9934
 Red. masses --     12.1823                10.2211                 8.8248
 Frc consts  --      3.7248                 3.1399                 2.7329
 IR Inten    --     45.8050                 6.5643                 9.3047

                     46                     47                     48
                      A                      A                      A
 Frequencies --    736.5583               769.0187               779.8444
 Red. masses --      2.6177                 9.3128                 8.8875
 Frc consts  --      0.8367                 3.2449                 3.1845
 IR Inten    --    126.3835                30.2400                59.6778

                     49                     50                     51
                      A                      A                      A
 Frequencies --    793.3740               795.5288               802.5263
 Red. masses --      3.0250                 8.3415                 9.9063
 Frc consts  --      1.1218                 3.1103                 3.7591
 IR Inten    --     77.6265                23.2533                 1.4341

                     52                     53                     54
                      A                      A                      A
 Frequencies --    805.0060               813.3996               841.2020
 Red. masses --      2.9892                 7.5841                 9.2709
 Frc consts  --      1.1413                 2.9564                 3.8652
 IR Inten    --      1.8681                72.7442                79.3256

                     55                     56                     57
                      A                      A                      A
 Frequencies --    853.9306               926.2181               936.6443
 Red. masses --      3.3189                 1.6401                 1.4681
 Frc consts  --      1.4259                 0.8290                 0.7589
 IR Inten    --      1.1675                 8.3481                 7.4359

                     58                     59                     60
                      A                      A                      A
 Frequencies --    938.0724               984.4786               996.6079
 Red. masses --      1.4833                 9.1915                 2.7940
 Frc consts  --      0.7691                 5.2487                 1.6350
 IR Inten    --     18.6298                11.8972               431.5891

                     61                     62                     63
                      A                      A                      A
 Frequencies --   1008.8418              1033.4060              1034.2373
 Red. masses --      2.1235                 1.3380                 6.3377
 Frc consts  --      1.2733                 0.8418                 3.9941
 IR Inten    --    440.2145                 0.4571                 2.5743

                     64                     65                     66
                      A                      A                      A
 Frequencies --   1075.7421              1086.1338              1114.4435
 Red. masses --      2.3145                 3.8395                 2.7153
 Frc consts  --      1.5780                 2.6686                 1.9869
 IR Inten    --     19.9284               113.7932                37.9729

                     67                     68                     69
                      A                      A                      A
 Frequencies --   1176.4481              1179.5733              1202.0769
 Red. masses --      1.1198                 2.0266                 3.9574
 Frc consts  --      0.9131                 1.6614                 3.3692
 IR Inten    --      0.8285                 8.6317                53.2708

                     70                     71                     72
                      A                      A                      A
 Frequencies --   1209.3571              1231.5277              1262.0983
 Red. masses --      8.2615                 3.1465                 3.2538
 Frc consts  --      7.1189                 2.8117                 3.0537
 IR Inten    --     59.6936                50.7653              1978.3483

                     73                     74                     75
                      A                      A                      A
 Frequencies --   1287.1632              1295.6504              1319.8160
 Red. masses --      1.8617                 2.8486                 4.9679
 Frc consts  --      1.8173                 2.8174                 5.0986
 IR Inten    --      7.4721                 2.1798                 0.5510

                     76                     77                     78
                      A                      A                      A
 Frequencies --   1352.0913              1371.1101              1394.3695
 Red. masses --      3.0618                 4.1874                 4.2089
 Frc consts  --      3.2979                 4.6381                 4.8214
 IR Inten    --     55.0624               766.6257              1767.6456

                     79                     80                     81
                      A                      A                      A
 Frequencies --   1405.6257              1470.1175              1482.2355
 Red. masses --     12.0035                 4.3894                 2.7157
 Frc consts  --     13.9732                 5.5893                 3.5153
 IR Inten    --    508.2613                45.4995                17.6751

                     82                     83                     84
                      A                      A                      A
 Frequencies --   1516.8271              1523.4251              1526.9493
 Red. masses --     10.3477                 3.3349                 9.2803
 Frc consts  --     14.0270                 4.5601                12.7485
 IR Inten    --   5849.4806               121.3169               217.1700

                     85                     86                     87
                      A                      A                      A
 Frequencies --   1552.5292              1556.4027              1618.8898
 Red. masses --      8.5741                 8.7914                 8.2099
 Frc consts  --     12.1764                12.5473                12.6772
 IR Inten    --     96.9230               205.2522              1224.5740

                     88                     89                     90
                      A                      A                      A
 Frequencies --   1637.3447              1654.9475              1664.9709
 Red. masses --      7.0264                12.6307                 6.6715
 Frc consts  --     11.0984                20.3820                10.8965
 IR Inten    --    108.6991               621.6544               120.9721

                     91                     92                     93
                      A                      A                      A
 Frequencies --   1666.1173              1678.9001              1697.9230
 Red. masses --     12.0595                 8.4645                10.7722
 Frc consts  --     19.7239                14.0573                18.2974
 IR Inten    --    252.3361               373.3735               520.6920

                     94                     95                     96
                      A                      A                      A
 Frequencies --   3191.3516              3199.2575              3213.9976
 Red. masses --      1.0873                 1.0908                 1.0953
 Frc consts  --      6.5244                 6.5783                 6.6664
 IR Inten    --      0.3623                13.1765                14.5409

                     97                     98                     99
                      A                      A                      A
 Frequencies --   3223.1342              3223.4439              3223.6520
 Red. masses --      1.0922                 1.0923                 1.0946
 Frc consts  --      6.6853                 6.6871                 6.7018
 IR Inten    --      5.1694                 0.5469                16.9576

 - Thermochemistry -
 -------------------
 Temperature   298.150 Kelvin.  Pressure   1.00000 Atm.
 Atom     1 has atomic number  6 and mass  12.00000

 Molecular mass:   641.69487 amu.
 Principal axes and moments of inertia in atomic units:
                           1         2         3
     Eigenvalues --  ******************************
           X            0.73095   0.68026   0.05449
           Y            0.49622  -0.58461   0.64187
           Z           -0.46849   0.44213   0.76488
 This molecule is an asymmetric top.
 Rotational symmetry number  1.
 Warning -- assumption of classical behavior for rotation
           may cause significant error
 Rotational temperatures (Kelvin)      0.00509     0.00331     0.00215
 Rotational constants (GHZ):           0.10612     0.06896     0.04487
 Zero-point vibrational energy     549864.9 (Joules/Mol)
                                  131.42087 (Kcal/Mol)
 Warning -- explicit consideration of  37 degrees of freedom as
           vibrations may cause significant error
 Vibrational temperatures:     22.88    31.11    40.40    63.91    67.85
          (Kelvin)             95.02    99.74   107.44   113.99   153.04
                              174.57   184.87   187.56   199.53   220.92
                              242.61   273.44   300.78   349.67   364.34
                              382.21   384.40   396.88   411.68   447.49
                              486.16   518.26   544.36   566.68   592.87
                              638.40   654.01   710.46   716.83   747.95
                              766.11   857.50   910.25   944.09   960.99
                              965.82   984.40  1036.47  1038.91  1043.10
                             1059.74  1106.45  1122.02  1141.49  1144.59
                             1154.65  1158.22  1170.30  1210.30  1228.61
                             1332.62  1347.62  1349.68  1416.44  1433.89
                             1451.50  1486.84  1488.03  1547.75  1562.70
                             1603.43  1692.64  1697.14  1729.52  1739.99
                             1771.89  1815.88  1851.94  1864.15  1898.92
                             1945.36  1972.72  2006.18  2022.38  2115.17
                             2132.60  2182.37  2191.87  2196.94  2233.74
                             2239.31  2329.22  2355.77  2381.10  2395.52
                             2397.17  2415.56  2442.93  4591.64  4603.01
                             4624.22  4637.37  4637.81  4638.11

 Zero-point correction=                           0.209432 (Hartree/Particle)
 Thermal correction to Energy=                    0.234391
 Thermal correction to Enthalpy=                  0.235336
 Thermal correction to Gibbs Free Energy=         0.149323
 Sum of electronic and zero-point Energies=         -11438.863319
 Sum of electronic and thermal Energies=            -11438.838360
 Sum of electronic and thermal Enthalpies=          -11438.837416
 Sum of electronic and thermal Free Energies=       -11438.923429

                     E (Thermal)             CV                S
                      KCal/Mol        Cal/Mol-Kelvin    Cal/Mol-Kelvin
 Total                  147.083             89.531            181.030
 Electronic               0.000              0.000              0.000
 Translational            0.889              2.981             45.259
 Rotational               0.889              2.981             38.124
 Vibrational            145.305             83.569             97.647
 Vibration     1          0.593              1.986              7.089
 Vibration     2          0.593              1.985              6.479
 Vibration     3          0.593              1.984              5.961
 Vibration     4          0.595              1.980              5.052
 Vibration     5          0.595              1.979              4.933
 Vibration     6          0.597              1.970              4.268
 Vibration     7          0.598              1.969              4.172
 Vibration     8          0.599              1.966              4.026
 Vibration     9          0.600              1.963              3.910
 Vibration    10          0.605              1.944              3.334
 Vibration    11          0.609              1.931              3.079
 Vibration    12          0.611              1.925              2.969
 Vibration    13          0.612              1.923              2.941
 Vibration    14          0.614              1.915              2.822
 Vibration    15          0.619              1.899              2.628
 Vibration    16          0.625              1.881              2.451
 Vibration    17          0.633              1.854              2.227
 Vibration    18          0.642              1.827              2.052
 Vibration    19          0.659              1.774              1.781
 Vibration    20          0.664              1.757              1.708
 Vibration    21          0.671              1.736              1.624
 Vibration    22          0.672              1.733              1.614
 Vibration    23          0.677              1.718              1.559
 Vibration    24          0.684              1.699              1.497
 Vibration    25          0.700              1.653              1.357
 Vibration    26          0.718              1.600              1.222
 Vibration    27          0.735              1.554              1.121
 Vibration    28          0.749              1.516              1.046
 Vibration    29          0.761              1.483              0.985
 Vibration    30          0.776              1.444              0.919
 Vibration    31          0.803              1.375              0.815
 Vibration    32          0.813              1.351              0.782
 Vibration    33          0.849              1.264              0.674
 Vibration    34          0.854              1.254              0.663
 Vibration    35          0.875              1.206              0.610
 Vibration    36          0.887              1.178              0.582
 Vibration    37          0.954              1.040              0.457

 Optimization completed.
    -- Stationary point found.
 Normal termination of Gaussian 09 at Sun Feb 13 00:18:58 2022.
 Gaussian 09:  ES64L-G09RevE.01 30-Nov-2015

 ----------------------------------------------------------------------
 #p wB97XD chkbasis geom=allcheck Guess=Read int=ultrafine scrf=(SMD,so
 lvent=Acetonitrile) td=(NStates=30)
 ----------------------------------------------------------------------

 Structure from the checkpoint file:  "cp.chk"
 -----
 Title
 -----
 Charge = -2 Multiplicity = 1

                         Standard orientation:
 ---------------------------------------------------------------------
 Center     Atomic      Atomic             Coordinates (Angstroms)
 Number     Number       Type             X           Y           Z
 ---------------------------------------------------------------------
      1          6           0       -3.610143   -1.213773   -0.096692
      2          6           0       -2.284482   -1.785743   -0.043904
      3          6           0       -1.144657   -1.022247   -0.083538
      4          6           0       -1.197247    0.389519   -0.180769
      5          6           0       -2.479303    0.992454   -0.233741
      6          6           0       -3.604677    0.245788   -0.193797
      7          6           0       -0.003407    1.116437   -0.197675
      8          6           0        1.214997    0.431902   -0.173976
      9          6           0        1.212391   -0.980616   -0.077994
     10          6           0        2.378724   -1.703021   -0.031771
     11          6           0        3.683208   -1.083413   -0.069891
     12          6           0        3.625673    0.375697   -0.154453
     13          6           0        2.474604    1.081367   -0.203846
     14          1           0       -2.539299    2.070165   -0.304079
     15          1           0        2.495993    2.161261   -0.261711
     16          8           0        0.045265   -1.654665   -0.028961
     17          8           0        4.742605   -1.712804   -0.034961
     18          8           0       -4.646093   -1.881176   -0.066335
     19          6           0       -0.028533    2.589147   -0.416987
     20          6           0        0.059712    3.018922   -1.740466
     21          6           0       -0.148594    3.523534    0.613957
     22          6           0        0.037146    4.368170   -2.050877
     23          1           0        0.147454    2.283365   -2.531603
     24          6           0       -0.174901    4.875375    0.281292
     25          6           0       -0.079349    5.303126   -1.032268
     26          1           0        0.109886    4.685140   -3.084007
     27          1           0       -0.272281    5.589139    1.088950
     28          1           0       -0.096834    6.361589   -1.262603
     29          6           0       -0.244481    3.105321    2.089214
     30          8           0       -0.509594    4.008559    2.906191
     31          8           0       -0.040806    1.897807    2.330004
     32         35           0       -2.157421   -3.665406    0.080010
     33         35           0        2.319639   -3.586629    0.084036
     34         35           0        5.286530    1.290645   -0.194861
     35         35           0       -5.297205    1.099101   -0.269281
 ---------------------------------------------------------------------

 SCF Done:  E(RwB97XD) =  -11439.0726641     A.U. after    9 cycles

 Excitation energies and oscillator strengths:

 Excited State   1:      Singlet-A      2.9866 eV  415.13 nm  f=0.9245  <S**2>=0.000
     154 -> 155        0.69278
 This state for optimization and/or second-order correction.
 Total Energy, E(TD-HF/TD-KS) =  -11438.9629071
 Copying the excited state density for this state as the 1-particle RhoCI density.

 Excited State   2:      Singlet-A      3.8449 eV  322.46 nm  f=0.0145  <S**2>=0.000
     152 -> 155       -0.29060
     153 -> 155        0.61528

 Excited State   3:      Singlet-A      4.0075 eV  309.38 nm  f=0.0623  <S**2>=0.000
     151 -> 155        0.14026
     152 -> 155        0.57751
     153 -> 155        0.29788
     154 -> 156       -0.11920

 Excited State   4:      Singlet-A      4.4193 eV  280.55 nm  f=0.0065  <S**2>=0.000
     146 -> 162       -0.23957
     149 -> 155        0.59327
     150 -> 155       -0.13712

 Excited State   5:      Singlet-A      4.4524 eV  278.46 nm  f=0.2231  <S**2>=0.000
     147 -> 155       -0.13646
     148 -> 155       -0.17136
     152 -> 155        0.19172
     153 -> 160        0.10200
     154 -> 156        0.40327
     154 -> 157        0.30446
     154 -> 158        0.30796

 Excited State   6:      Singlet-A      4.4954 eV  275.81 nm  f=0.0009  <S**2>=0.000
     146 -> 155        0.60720
     146 -> 166       -0.11116
     147 -> 155       -0.13530
     149 -> 162       -0.25335

 Excited State   7:      Singlet-A      4.5665 eV  271.51 nm  f=0.0210  <S**2>=0.000
     145 -> 155        0.10214
     147 -> 155       -0.29197
     148 -> 155        0.26371
     150 -> 155       -0.30429
     152 -> 162        0.10961
     153 -> 156        0.11778
     153 -> 158        0.11257
     154 -> 159        0.15977
     154 -> 160        0.34038

 Excited State   8:      Singlet-A      4.7284 eV  262.21 nm  f=0.0347  <S**2>=0.000
     145 -> 155       -0.17384
     148 -> 155        0.13311
     150 -> 155        0.36712
     152 -> 156        0.32521
     152 -> 157       -0.12721
     152 -> 170        0.10390
     153 -> 156        0.25538

 Excited State   9:      Singlet-A      4.7743 eV  259.69 nm  f=0.0244  <S**2>=0.000
     144 -> 155       -0.12465
     145 -> 155       -0.19639
     147 -> 155       -0.10896
     148 -> 155        0.19234
     150 -> 155        0.34486
     151 -> 156        0.11471
     152 -> 156       -0.30043
     152 -> 157        0.13634
     153 -> 156       -0.18911
     153 -> 157        0.12374
     154 -> 160        0.12559

 Excited State  10:      Singlet-A      4.8585 eV  255.19 nm  f=0.0161  <S**2>=0.000
     150 -> 155       -0.14798
     151 -> 155        0.54715
     151 -> 156       -0.10091
     152 -> 155       -0.11364
     153 -> 161       -0.11183
     154 -> 159       -0.29957

 Excited State  11:      Singlet-A      4.8606 eV  255.08 nm  f=0.0043  <S**2>=0.000
     151 -> 155        0.29200
     153 -> 161        0.21406
     153 -> 164        0.10144
     154 -> 159        0.45937
     154 -> 160       -0.26223

 Excited State  12:      Singlet-A      4.8817 eV  253.98 nm  f=0.0001  <S**2>=0.000
     148 -> 155        0.16005
     151 -> 155       -0.14578
     153 -> 159        0.21716
     153 -> 160       -0.10319
     153 -> 163       -0.10020
     154 -> 156        0.18983
     154 -> 157       -0.32976
     154 -> 161        0.39265

 Excited State  13:      Singlet-A      4.9257 eV  251.71 nm  f=0.0025  <S**2>=0.000
     147 -> 155        0.25358
     148 -> 155       -0.32900
     151 -> 155        0.13515
     153 -> 157        0.11599
     153 -> 158        0.11103
     153 -> 159        0.10959
     154 -> 159        0.15093
     154 -> 160        0.38892
     154 -> 161        0.17271

 Excited State  14:      Singlet-A      4.9724 eV  249.35 nm  f=0.0022  <S**2>=0.000
     147 -> 156       -0.10423
     148 -> 156       -0.15645
     151 -> 155        0.10808
     151 -> 156        0.53435
     151 -> 157       -0.22456
     151 -> 158       -0.17071
     151 -> 170        0.15353

 Excited State  15:      Singlet-A      5.0135 eV  247.30 nm  f=0.0356  <S**2>=0.000
     144 -> 155        0.38989
     145 -> 155        0.21079
     147 -> 155       -0.37370
     148 -> 155       -0.14304
     149 -> 155        0.18748
     150 -> 155        0.23309

 Excited State  16:      Singlet-A      5.0984 eV  243.18 nm  f=0.1154  <S**2>=0.000
     144 -> 155        0.20482
     144 -> 156        0.10153
     145 -> 155        0.32881
     147 -> 155        0.25432
     148 -> 155        0.26245
     150 -> 155        0.10284
     154 -> 156        0.29931
     154 -> 161       -0.15331

 Excited State  17:      Singlet-A      5.1727 eV  239.69 nm  f=0.0655  <S**2>=0.000
     144 -> 155        0.17393
     144 -> 156       -0.10587
     145 -> 157       -0.11528
     147 -> 155        0.15914
     148 -> 155        0.22488
     154 -> 156       -0.26477
     154 -> 157        0.35679
     154 -> 158        0.17574
     154 -> 161        0.21932
     154 -> 162       -0.10703

 Excited State  18:      Singlet-A      5.2632 eV  235.57 nm  f=0.0030  <S**2>=0.000
     144 -> 155       -0.44023
     144 -> 156        0.10170
     145 -> 155        0.45378
     150 -> 155        0.11854
     154 -> 156       -0.10714
     154 -> 157        0.10277

 Excited State  19:      Singlet-A      5.3872 eV  230.15 nm  f=0.0012  <S**2>=0.000
     144 -> 155        0.14731
     144 -> 156        0.38207
     144 -> 157       -0.17302
     145 -> 155       -0.14817
     145 -> 157        0.27638
     145 -> 158       -0.21478
     148 -> 157       -0.11500
     149 -> 156        0.11259
     150 -> 156       -0.13316
     154 -> 156       -0.13258
     154 -> 157        0.12134

 Excited State  20:      Singlet-A      5.4424 eV  227.81 nm  f=0.0011  <S**2>=0.000
     154 -> 156       -0.11664
     154 -> 157       -0.21204
     154 -> 158        0.42697
     154 -> 161       -0.20340
     154 -> 162       -0.38530

 Excited State  21:      Singlet-A      5.4682 eV  226.74 nm  f=0.0001  <S**2>=0.000
     147 -> 159        0.17343
     148 -> 159       -0.15757
     148 -> 161        0.10245
     148 -> 164       -0.10255
     150 -> 159        0.10329
     152 -> 161        0.24929
     153 -> 161       -0.15846
     153 -> 164       -0.19117
     154 -> 159        0.13533
     154 -> 163        0.41656

 Excited State  22:      Singlet-A      5.4876 eV  225.93 nm  f=0.0003  <S**2>=0.000
     147 -> 161       -0.18025
     148 -> 161        0.16686
     148 -> 163       -0.10900
     150 -> 161       -0.11013
     152 -> 159       -0.27659
     152 -> 160        0.12088
     153 -> 159        0.21114
     153 -> 163       -0.20122
     154 -> 161       -0.18279
     154 -> 164        0.33341

 Excited State  23:      Singlet-A      5.5098 eV  225.02 nm  f=0.0193  <S**2>=0.000
     153 -> 160        0.19974
     154 -> 156       -0.17704
     154 -> 157       -0.20140
     154 -> 158        0.32989
     154 -> 162        0.46042

 Excited State  24:      Singlet-A      5.6703 eV  218.66 nm  f=1.0400  <S**2>=0.000
     152 -> 156       -0.27319
     152 -> 157       -0.24641
     152 -> 158       -0.22882
     153 -> 156        0.29216
     153 -> 157        0.21677
     153 -> 158        0.28310
     154 -> 160       -0.17062

 Excited State  25:      Singlet-A      5.7472 eV  215.73 nm  f=0.0054  <S**2>=0.000
     148 -> 157       -0.11827
     151 -> 157        0.19052
     151 -> 158       -0.10436
     152 -> 156        0.12356
     152 -> 157        0.39935
     152 -> 158       -0.18676
     153 -> 156        0.12913
     153 -> 157        0.34935
     153 -> 158       -0.12164

 Excited State  26:      Singlet-A      5.8828 eV  210.76 nm  f=0.0484  <S**2>=0.000
     144 -> 157       -0.16233
     144 -> 158        0.13541
     145 -> 156        0.37820
     145 -> 157       -0.14196
     145 -> 158       -0.10510
     148 -> 156       -0.10356
     149 -> 156        0.15058
     149 -> 157       -0.10033
     150 -> 156        0.23511
     150 -> 158       -0.13413
     151 -> 157       -0.24070
     151 -> 158        0.17228

 Excited State  27:      Singlet-A      5.9265 eV  209.20 nm  f=0.0000  <S**2>=0.000
     142 -> 162        0.12714
     143 -> 155        0.66786

 Excited State  28:      Singlet-A      5.9445 eV  208.57 nm  f=0.0292  <S**2>=0.000
     144 -> 157       -0.13922
     144 -> 158        0.10785
     145 -> 156        0.28839
     145 -> 157       -0.13154
     148 -> 156       -0.13271
     150 -> 156       -0.23648
     150 -> 157        0.15847
     151 -> 157        0.36241
     151 -> 158       -0.23983
     152 -> 157       -0.12401

 Excited State  29:      Singlet-A      5.9709 eV  207.65 nm  f=0.0118  <S**2>=0.000
     147 -> 156       -0.16813
     149 -> 156        0.14391
     150 -> 156        0.44136
     150 -> 157       -0.19255
     150 -> 158       -0.10955
     151 -> 157        0.24778
     151 -> 158       -0.17731
     152 -> 157       -0.14354

 Excited State  30:      Singlet-A      5.9857 eV  207.13 nm  f=0.0004  <S**2>=0.000
     140 -> 155       -0.10509
     146 -> 159        0.14118
     146 -> 160        0.31610
     149 -> 156        0.27533
     149 -> 157        0.26974
     149 -> 158        0.33041
     150 -> 156       -0.10807

 The electronic state is 1-A.
 Alpha  occ. eigenvalues -- -483.11466-483.11463-483.11206-483.11203 -62.66300
 Alpha  occ. eigenvalues --  -62.66297 -62.66028 -62.66025 -56.45411 -56.45408
 Alpha  occ. eigenvalues --  -56.45149 -56.45146 -56.45069 -56.45067 -56.45053
 Alpha  occ. eigenvalues --  -56.45050 -56.44798 -56.44794 -56.44774 -56.44771
 Alpha  occ. eigenvalues --  -19.32199 -19.18986 -19.18973 -19.16204 -19.16012
 Alpha  occ. eigenvalues --  -10.36850 -10.36844 -10.35133 -10.35120 -10.34577
 Alpha  occ. eigenvalues --  -10.33556 -10.32490 -10.32477 -10.31656 -10.31648
 Alpha  occ. eigenvalues --  -10.29864 -10.29708 -10.29692 -10.29366 -10.29335
 Alpha  occ. eigenvalues --  -10.28437 -10.28258 -10.28229 -10.28034 -10.27624
 Alpha  occ. eigenvalues --   -8.80413  -8.80411  -8.80137  -8.80134  -6.62552
 Alpha  occ. eigenvalues --   -6.62549  -6.62304  -6.62300  -6.61455  -6.61453
 Alpha  occ. eigenvalues --   -6.61399  -6.61398  -6.61175  -6.61171  -6.61096
 Alpha  occ. eigenvalues --   -6.61093  -2.72949  -2.72947  -2.72697  -2.72694
 Alpha  occ. eigenvalues --   -2.72631  -2.72629  -2.72588  -2.72586  -2.72374
 Alpha  occ. eigenvalues --   -2.72371  -2.72312  -2.72309  -2.71700  -2.71699
 Alpha  occ. eigenvalues --   -2.71698  -2.71698  -2.71398  -2.71397  -2.71395
 Alpha  occ. eigenvalues --   -2.71394  -1.22437  -1.10629  -1.10304  -1.10282
 Alpha  occ. eigenvalues --   -1.01530  -0.98251  -0.97365  -0.95449  -0.92004
 Alpha  occ. eigenvalues --   -0.91764  -0.90478  -0.87591  -0.85939  -0.84444
 Alpha  occ. eigenvalues --   -0.83659  -0.82934  -0.80095  -0.79967  -0.74213
 Alpha  occ. eigenvalues --   -0.73263  -0.71352  -0.70119  -0.67321  -0.66867
 Alpha  occ. eigenvalues --   -0.63251  -0.63172  -0.61368  -0.60606  -0.57157
 Alpha  occ. eigenvalues --   -0.57111  -0.56644  -0.54322  -0.54047  -0.53899
 Alpha  occ. eigenvalues --   -0.52561  -0.51811  -0.50661  -0.50288  -0.50200
 Alpha  occ. eigenvalues --   -0.49374  -0.49056  -0.48653  -0.48548  -0.47843
 Alpha  occ. eigenvalues --   -0.46962  -0.46235  -0.45851  -0.44381  -0.44042
 Alpha  occ. eigenvalues --   -0.43495  -0.43401  -0.42348  -0.41481  -0.41248
 Alpha  occ. eigenvalues --   -0.40430  -0.39441  -0.37756  -0.36847  -0.36038
 Alpha  occ. eigenvalues --   -0.35868  -0.35444  -0.34759  -0.32990  -0.32569
 Alpha  occ. eigenvalues --   -0.31970  -0.31902  -0.31801  -0.31561  -0.31074
 Alpha  occ. eigenvalues --   -0.30260  -0.29085  -0.28244  -0.24293
 Alpha virt. eigenvalues --   -0.01383   0.04313   0.05346   0.06418   0.07437
 Alpha virt. eigenvalues --    0.07475   0.08106   0.08329   0.10648   0.11582
 Alpha virt. eigenvalues --    0.13556   0.14681   0.14818   0.15620   0.16659

 Mulliken charges:
               1
     1  C    0.155227
     2  C   -0.242966
     3  C    0.293366
     4  C   -0.006349
     5  C   -0.322864
     6  C   -0.007978
     7  C    0.571508
     8  C   -0.003825
     9  C    0.320671
    10  C   -0.256698
    11  C    0.163474
    12  C   -0.017583
    13  C   -0.314201
    14  H    0.189187
    15  H    0.189119
    16  O   -0.255752
    17  O   -0.456282
    18  O   -0.455750
    19  C   -0.122213
    20  C   -0.330223
    21  C   -0.080896
    22  C   -0.124968
    23  H    0.153478
    24  C   -0.185103
    25  C   -0.172143
    26  H    0.159730
    27  H    0.146228
    28  H    0.156951
    29  C    0.312303
    30  O   -0.553174
    31  O   -0.542696
    32  Br  -0.084504
    33  Br  -0.084730
    34  Br  -0.095405
    35  Br  -0.094937
 Sum of Mulliken charges =  -2.00000

 Dipole moment (field-independent basis, Debye):
    X=              0.9548    Y=              0.5364    Z=            -12.4750  Tot=             12.5229
 Quadrupole moment (field-independent basis, Debye-Ang):
   XX=           -349.5243   YY=           -279.9555   ZZ=           -249.3864
   XY=              3.5973   XZ=              3.0807   YZ=            -39.9276

 Normal termination of Gaussian 09 at Sun Feb 13 04:32:37 2022.
