 Gaussian 09, Revision E.01,

 ----------------------------------------------------------------------
 #p B97D3/def2TZVP opt freq=noraman nosymm int=ultrafine scrf=(SMD,solv
 ent=Acetonitrile)
 ----------------------------------------------------------------------

 -----
 Title
 -----
 Symbolic Z-matrix:
 Charge = -2 Multiplicity = 1

 SCF Done:  E(RB97D3) =  -11443.7863542     A.U. after   19 cycles
 SCF Done:  E(RB97D3) =  -11443.7889567     A.U. after   13 cycles
 SCF Done:  E(RB97D3) =  -11443.7886273     A.U. after   13 cycles
 SCF Done:  E(RB97D3) =  -11443.7890968     A.U. after    9 cycles
 SCF Done:  E(RB97D3) =  -11443.7842642     A.U. after   13 cycles
 SCF Done:  E(RB97D3) =  -11443.7892256     A.U. after   10 cycles
 SCF Done:  E(RB97D3) =  -11443.7892782     A.U. after   12 cycles
 SCF Done:  E(RB97D3) =  -11443.7892728     A.U. after   11 cycles
 SCF Done:  E(RB97D3) =  -11443.7892902     A.U. after   11 cycles
 SCF Done:  E(RB97D3) =  -11443.7892928     A.U. after   10 cycles
 SCF Done:  E(RB97D3) =  -11443.7892935     A.U. after    9 cycles
 SCF Done:  E(RB97D3) =  -11443.7892941     A.U. after    8 cycles
 SCF Done:  E(RB97D3) =  -11443.7892941     A.U. after    8 cycles
 SCF Done:  E(RB97D3) =  -11443.7892941     A.U. after    8 cycles
 SCF Done:  E(RB97D3) =  -11443.7892941     A.U. after    8 cycles
 Optimization completed on the basis of negligible forces.
    -- Stationary point found.
 Normal termination of Gaussian 09 at Fri Feb 11 18:30:39 2022.

 --------------------------------------------------------------------
 #P Geom=AllCheck Guess=TCheck SCRF=Check GenChk RB97D3/def2TZVP Freq
 --------------------------------------------------------------------

 Structure from the checkpoint file:  "cp.chk"
 -----
 Title
 -----
 Charge = -2 Multiplicity = 1

 SCF Done:  E(RB97D3) =  -11443.7892941     A.U. after    1 cycles

  Exact polarizability: 745.890  71.418 567.419 -83.640-193.698 512.782
 Approx polarizability:1181.674 187.736 876.453-207.008-327.727 776.259

                      1                      2                      3
                      A                      A                      A
 Frequencies --      6.4307                22.2804                26.0204
 Red. masses --     11.6124                18.3971                49.1662
 Frc consts  --      0.0003                 0.0054                 0.0196
 IR Inten    --      9.0002                 1.0680                 0.0445

                      4                      5                      6
                      A                      A                      A
 Frequencies --     42.8936                45.1768                65.9681
 Red. masses --      6.2614                10.8176                29.9000
 Frc consts  --      0.0068                 0.0130                 0.0767
 IR Inten    --      1.2658                 4.1874                 0.2880

                      7                      8                      9
                      A                      A                      A
 Frequencies --     67.9854                71.7668                74.4976
 Red. masses --     13.2556                16.7982                16.7015
 Frc consts  --      0.0361                 0.0510                 0.0546
 IR Inten    --      3.8865                 7.8068                 4.3655

                     10                     11                     12
                      A                      A                      A
 Frequencies --    103.6840               111.3979               124.2602
 Red. masses --     50.6964                 5.4552                22.0056
 Frc consts  --      0.3211                 0.0399                 0.2002
 IR Inten    --      1.4983                 3.1480                13.7224

                     13                     14                     15
                      A                      A                      A
 Frequencies --    125.2568               134.9864               148.3874
 Red. masses --     19.5231                 9.4306                16.0748
 Frc consts  --      0.1805                 0.1012                 0.2085
 IR Inten    --     16.8978                 2.0617                 0.0524

                     16                     17                     18
                      A                      A                      A
 Frequencies --    158.2354               181.5902               199.6857
 Red. masses --      9.1516                12.4995                18.3381
 Frc consts  --      0.1350                 0.2428                 0.4308
 IR Inten    --     10.2671                20.3851                 3.3481

                     19                     20                     21
                      A                      A                      A
 Frequencies --    232.1790               240.3541               253.8765
 Red. masses --      9.8423                 9.3530                 7.8235
 Frc consts  --      0.3126                 0.3183                 0.2971
 IR Inten    --     46.3667                 1.0066                 0.6092

                     22                     23                     24
                      A                      A                      A
 Frequencies --    255.7315               264.7017               275.3161
 Red. masses --     15.9167                16.3513                 8.3038
 Frc consts  --      0.6133                 0.6750                 0.3708
 IR Inten    --      1.0678                 5.5545                12.9640

                     25                     26                     27
                      A                      A                      A
 Frequencies --    296.9949               324.1704               342.5904
 Red. masses --      7.4943                12.5333                11.8767
 Frc consts  --      0.3895                 0.7760                 0.8213
 IR Inten    --      3.3891                 7.0672                 8.1096

                     28                     29                     30
                      A                      A                      A
 Frequencies --    361.6463               380.2971               396.5505
 Red. masses --     11.2898                10.0506                 9.5852
 Frc consts  --      0.8700                 0.8564                 0.8881
 IR Inten    --      0.7101                 6.8766                17.1987

                     31                     32                     33
                      A                      A                      A
 Frequencies --    426.2216               436.0704               479.1501
 Red. masses --      3.8612                 8.5636                 4.6979
 Frc consts  --      0.4133                 0.9594                 0.6355
 IR Inten    --      3.9315                97.0005                 6.8819

                     34                     35                     36
                      A                      A                      A
 Frequencies --    481.2812               499.4815               514.3670
 Red. masses --      6.1404                 4.1716                 7.7917
 Frc consts  --      0.8380                 0.6132                 1.2146
 IR Inten    --    163.2661                 0.1511                 4.8566

                     37                     38                     39
                      A                      A                      A
 Frequencies --    573.7290               610.3560               618.1007
 Red. masses --      5.8259                 9.1392                 9.6182
 Frc consts  --      1.1299                 2.0060                 2.1650
 IR Inten    --    146.6911                 2.0048                58.6703

                     40                     41                     42
                      A                      A                      A
 Frequencies --    625.1607               643.0291               664.7995
 Red. masses --      9.8569                 6.2341                 7.8500
 Frc consts  --      2.2697                 1.5188                 2.0441
 IR Inten    --     89.2282                56.3483                25.4326

                     43                     44                     45
                      A                      A                      A
 Frequencies --    675.8955               677.9057               692.4958
 Red. masses --     11.6943                 9.5517                 8.7055
 Frc consts  --      3.1476                 2.5862                 2.4597
 IR Inten    --     47.1315                 3.5250                10.9933

                     46                     47                     48
                      A                      A                      A
 Frequencies --    702.3348               719.8782               747.4324
 Red. masses --      2.6056                 8.9001                 8.8134
 Frc consts  --      0.7573                 2.7174                 2.9009
 IR Inten    --    122.8215                30.3143                79.9691

                     49                     50                     51
                      A                      A                      A
 Frequencies --    755.9615               760.2657               763.4271
 Red. masses --      9.6734                 2.0109                 8.2268
 Frc consts  --      3.2571                 0.6848                 2.8250
 IR Inten    --      0.0453                18.1071                11.9481

                     52                     53                     54
                      A                      A                      A
 Frequencies --    768.5661               773.8666               807.2465
 Red. masses --      7.4142                 6.5239                 8.9446
 Frc consts  --      2.5803                 2.3019                 3.4342
 IR Inten    --     65.7095                 3.0142                51.5310

                     55                     56                     57
                      A                      A                      A
 Frequencies --    812.4765               874.7618               876.0923
 Red. masses --      3.2305                 1.4520                 1.4887
 Frc consts  --      1.2564                 0.6546                 0.6732
 IR Inten    --      3.2685                 4.3092                20.6545

                     58                     59                     60
                      A                      A                      A
 Frequencies --    877.8405               940.8810               949.6981
 Red. masses --      1.6620                 1.5536                 8.9860
 Frc consts  --      0.7546                 0.8103                 4.7751
 IR Inten    --      9.4243                35.5296                13.6566

                     61                     62                     63
                      A                      A                      A
 Frequencies --    958.8182               968.1228               977.0960
 Red. masses --      5.7078                 1.2937                 6.6413
 Frc consts  --      3.0917                 0.7144                 3.7357
 IR Inten    --    481.5404                 0.5579                 3.5908

                     64                     65                     66
                      A                      A                      A
 Frequencies --   1033.5133              1035.4678              1076.6380
 Red. masses --      3.9916                 2.1911                 2.8625
 Frc consts  --      2.5120                 1.3842                 1.9549
 IR Inten    --     26.9964                28.4659                24.2914

                     67                     68                     69
                      A                      A                      A
 Frequencies --   1140.1134              1144.3044              1152.7473
 Red. masses --      2.0479                 1.2682                 8.5146
 Frc consts  --      1.5684                 0.9784                 6.6662
 IR Inten    --      5.2598                 7.1807                29.6409

                     70                     71                     72
                      A                      A                      A
 Frequencies --   1156.3890              1158.0768              1209.2407
 Red. masses --      3.3410                 3.5611                 4.1368
 Frc consts  --      2.6323                 2.8139                 3.5640
 IR Inten    --      3.9705               103.6240                24.5564

                     73                     74                     75
                      A                      A                      A
 Frequencies --   1240.6145              1251.6402              1295.5451
 Red. masses --      2.1232                 2.0157                 2.8536
 Frc consts  --      1.9253                 1.8605                 2.8219
 IR Inten    --      5.5601                 1.8254                35.3770

                     76                     77                     78
                      A                      A                      A
 Frequencies --   1304.0652              1314.7614              1324.3173
 Red. masses --      2.4244                12.2929                 7.4069
 Frc consts  --      2.4292                12.5198                 7.6537
 IR Inten    --    891.7008               394.0257                39.6892

                     79                     80                     81
                      A                      A                      A
 Frequencies --   1356.7264              1405.2058              1431.0874
 Red. masses --      7.1683                 6.9914                 2.1868
 Frc consts  --      7.7741                 8.1338                 2.6387
 IR Inten    --    152.2519                88.3444                 4.4180

                     82                     83                     84
                      A                      A                      A
 Frequencies --   1451.0803              1459.4271              1467.9823
 Red. masses --      8.3579                 4.2710                11.4952
 Frc consts  --     10.3689                 5.3598                14.5951
 IR Inten    --     31.5659                71.2743              3178.4395

                     85                     86                     87
                      A                      A                      A
 Frequencies --   1472.1662              1489.3031              1548.4029
 Red. masses --      5.1303                 7.1021                 7.6338
 Frc consts  --      6.5510                 9.2812                10.7835
 IR Inten    --    119.3269                 6.2074              1359.4450

                     88                     89                     90
                      A                      A                      A
 Frequencies --   1557.7655              1562.9192              1565.9585
 Red. masses --      7.6219                11.7461                12.4211
 Frc consts  --     10.8973                16.9051                17.9461
 IR Inten    --    558.3463               188.0908               527.6630

                     91                     92                     93
                      A                      A                      A
 Frequencies --   1577.1509              1595.3809              1603.9190
 Red. masses --      7.4836                 7.0671                 8.6547
 Frc consts  --     10.9675                10.5979                13.1180
 IR Inten    --    562.5529               288.4199                12.6304

                     94                     95                     96
                      A                      A                      A
 Frequencies --   3114.5252              3122.3765              3136.0673
 Red. masses --      1.0852                 1.0893                 1.0927
 Frc consts  --      6.2020                 6.2568                 6.3319
 IR Inten    --      0.9775                23.8921                27.2669

                     97                     98                     99
                      A                      A                      A
 Frequencies --   3142.9496              3153.9995              3154.3164
 Red. masses --      1.0947                 1.0904                 1.0905
 Frc consts  --      6.3714                 6.3911                 6.3929
 IR Inten    --     39.2805                 4.0972                 0.3180

 - Thermochemistry -
 -------------------
 Temperature   298.150 Kelvin.  Pressure   1.00000 Atm.
 Atom     1 has atomic number  6 and mass  12.00000

 Molecular mass:   641.69487 amu.
 Principal axes and moments of inertia in atomic units:
                           1         2         3
     Eigenvalues --  ******************************
           X            0.72289   0.68940   0.04645
           Y            0.50973  -0.57746   0.63775
           Z           -0.46648   0.43735   0.76884
 This molecule is an asymmetric top.
 Rotational symmetry number  1.
 Warning -- assumption of classical behavior for rotation
           may cause significant error
 Rotational temperatures (Kelvin)      0.00502     0.00326     0.00212
 Rotational constants (GHZ):           0.10461     0.06788     0.04420
 Zero-point vibrational energy     527516.5 (Joules/Mol)
                                  126.07946 (Kcal/Mol)
 Warning -- explicit consideration of  39 degrees of freedom as
           vibrations may cause significant error
 Vibrational temperatures:      9.25    32.06    37.44    61.71    65.00
          (Kelvin)             94.91    97.82   103.26   107.19   149.18
                              160.28   178.78   180.22   194.22   213.50
                              227.67   261.27   287.30   334.05   345.82
                              365.27   367.94   380.85   396.12   427.31
                              466.41   492.91   520.33   547.16   570.55
                              613.24   627.41   689.39   692.46   718.64
                              740.06   825.47   878.17   889.31   899.47
                              925.17   956.50   972.46   975.35   996.35
                             1010.50  1035.74  1075.39  1087.66  1093.85
                             1098.40  1105.79  1113.42  1161.45  1168.97
                             1258.59  1260.50  1263.02  1353.72  1366.40
                             1379.52  1392.91  1405.82  1486.99  1489.81
                             1549.04  1640.37  1646.40  1658.54  1663.78
                             1666.21  1739.83  1784.97  1800.83  1864.00
                             1876.26  1891.65  1905.39  1952.02  2021.78
                             2059.01  2087.78  2099.79  2112.10  2118.12
                             2142.77  2227.80  2241.27  2248.69  2253.06
                             2269.17  2295.39  2307.68  4481.10  4492.40
                             4512.10  4522.00  4537.90  4538.35

 Zero-point correction=                           0.200920 (Hartree/Particle)
 Thermal correction to Energy=                    0.226699
 Thermal correction to Enthalpy=                  0.227644
 Thermal correction to Gibbs Free Energy=         0.139089
 Sum of electronic and zero-point Energies=         -11443.588374
 Sum of electronic and thermal Energies=            -11443.562595
 Sum of electronic and thermal Enthalpies=          -11443.561650
 Sum of electronic and thermal Free Energies=       -11443.650205

                     E (Thermal)             CV                S
                      KCal/Mol        Cal/Mol-Kelvin    Cal/Mol-Kelvin
 Total                  142.256             92.615            186.379
 Electronic               0.000              0.000              0.000
 Translational            0.889              2.981             45.259
 Rotational               0.889              2.981             38.168
 Vibrational            140.479             86.653            102.952
 Vibration     1          0.593              1.987              8.888
 Vibration     2          0.593              1.985              6.420
 Vibration     3          0.593              1.985              6.112
 Vibration     4          0.595              1.980              5.121
 Vibration     5          0.595              1.979              5.018
 Vibration     6          0.597              1.971              4.270
 Vibration     7          0.598              1.969              4.211
 Vibration     8          0.598              1.967              4.104
 Vibration     9          0.599              1.966              4.031
 Vibration    10          0.605              1.946              3.384
 Vibration    11          0.607              1.940              3.244
 Vibration    12          0.610              1.929              3.033
 Vibration    13          0.610              1.928              3.018
 Vibration    14          0.613              1.918              2.874
 Vibration    15          0.618              1.904              2.693
 Vibration    16          0.621              1.893              2.571
 Vibration    17          0.630              1.865              2.312
 Vibration    18          0.638              1.840              2.136
 Vibration    19          0.653              1.792              1.862
 Vibration    20          0.657              1.779              1.800
 Vibration    21          0.665              1.756              1.704
 Vibration    22          0.666              1.753              1.691
 Vibration    23          0.671              1.738              1.631
 Vibration    24          0.677              1.719              1.563
 Vibration    25          0.691              1.679              1.434
 Vibration    26          0.709              1.627              1.289
 Vibration    27          0.722              1.590              1.200
 Vibration    28          0.736              1.551              1.115
 Vibration    29          0.750              1.512              1.038
 Vibration    30          0.763              1.478              0.975
 Vibration    31          0.788              1.413              0.871
 Vibration    32          0.797              1.392              0.839
 Vibration    33          0.836              1.296              0.712
 Vibration    34          0.838              1.292              0.707
 Vibration    35          0.855              1.251              0.659
 Vibration    36          0.869              1.218              0.623
 Vibration    37          0.930              1.088              0.497
 Vibration    38          0.969              1.010              0.432
 Vibration    39          0.978              0.994              0.420

 Optimization completed on the basis of negligible forces.
    -- Stationary point found.
 Normal termination of Gaussian 09 at Fri Feb 11 21:50:03 2022.
 Gaussian 09:  ES64L-G09RevE.01 30-Nov-2015

 ----------------------------------------------------------------------
 #p B97D3 chkbasis geom=allcheck Guess=Read int=ultrafine scrf=(SMD,sol
 vent=Acetonitrile) td=(NStates=30)
 ----------------------------------------------------------------------

 Structure from the checkpoint file:  "cp.chk"
 -----
 Title
 -----
 Charge = -2 Multiplicity = 1

                         Standard orientation:
 ---------------------------------------------------------------------
 Center     Atomic      Atomic             Coordinates (Angstroms)
 Number     Number       Type             X           Y           Z
 ---------------------------------------------------------------------
      1          6           0       -3.670870   -1.179364   -0.092784
      2          6           0       -2.339712   -1.765754   -0.032868
      3          6           0       -1.177979   -1.016197   -0.065860
      4          6           0       -1.212134    0.405641   -0.159808
      5          6           0       -2.488159    1.027351   -0.219399
      6          6           0       -3.633456    0.284297   -0.187615
      7          6           0       -0.000887    1.128850   -0.162669
      8          6           0        1.219683    0.421685   -0.154635
      9          6           0        1.204793   -1.000593   -0.064312
     10          6           0        2.376801   -1.734379   -0.032950
     11          6           0        3.699974   -1.129151   -0.084664
     12          6           0        3.642427    0.334601   -0.166689
     13          6           0        2.487077    1.061545   -0.201125
     14          1           0       -2.532190    2.108940   -0.284988
     15          1           0        2.516109    2.144113   -0.257749
     16          8           0        0.017750   -1.676149   -0.005218
     17          8           0        4.763315   -1.778171   -0.063569
     18          8           0       -4.724942   -1.843217   -0.069613
     19          6           0       -0.008974    2.598908   -0.405382
     20          6           0        0.034466    3.025774   -1.741425
     21          6           0       -0.062031    3.547368    0.630955
     22          6           0        0.029537    4.383527   -2.057125
     23          1           0        0.073389    2.281911   -2.533832
     24          6           0       -0.069463    4.907917    0.295010
     25          6           0       -0.022128    5.331122   -1.031781
     26          1           0        0.065709    4.697303   -3.097698
     27          1           0       -0.112417    5.627027    1.108303
     28          1           0       -0.025572    6.392958   -1.268043
     29          6           0       -0.107088    3.115165    2.104564
     30          8           0       -0.215914    4.026013    2.965667
     31          8           0       -0.026918    1.871399    2.313268
     32         35           0       -2.236190   -3.671081    0.090367
     33         35           0        2.300266   -3.641881    0.075944
     34         35           0        5.327212    1.258134   -0.230086
     35         35           0       -5.331363    1.182225   -0.273565
 ---------------------------------------------------------------------

 SCF Done:  E(RB97D3) =  -11443.7891915     A.U. after    9 cycles

 Excitation energies and oscillator strengths:

 Excited State   1:      Singlet-A      2.2355 eV  554.63 nm  f=0.0251  <S**2>=0.000
     152 -> 155       -0.28055
     153 -> 155        0.64403
 This state for optimization and/or second-order correction.
 Total Energy, E(TD-HF/TD-KS) =  -11443.7070399
 Copying the excited state density for this state as the 1-particle RhoCI density.

 Excited State   2:      Singlet-A      2.5241 eV  491.20 nm  f=0.5619  <S**2>=0.000
     148 -> 155        0.13059
     154 -> 155        0.68440

 Excited State   3:      Singlet-A      2.6033 eV  476.26 nm  f=0.0626  <S**2>=0.000
     152 -> 155        0.63985
     153 -> 155        0.27415

 Excited State   4:      Singlet-A      2.7433 eV  451.96 nm  f=0.0002  <S**2>=0.000
     150 -> 155        0.70662

 Excited State   5:      Singlet-A      2.7552 eV  449.99 nm  f=0.0090  <S**2>=0.000
     151 -> 155        0.69597

 Excited State   6:      Singlet-A      2.8143 eV  440.54 nm  f=0.0002  <S**2>=0.000
     149 -> 155        0.70556

 Excited State   7:      Singlet-A      2.8875 eV  429.38 nm  f=0.0602  <S**2>=0.000
     148 -> 155        0.69266
     154 -> 155       -0.12156

 Excited State   8:      Singlet-A      3.0189 eV  410.69 nm  f=0.0180  <S**2>=0.000
     154 -> 156        0.69456

 Excited State   9:      Singlet-A      3.1890 eV  388.78 nm  f=0.0004  <S**2>=0.000
     153 -> 156        0.70582

 Excited State  10:      Singlet-A      3.2739 eV  378.70 nm  f=0.0121  <S**2>=0.000
     154 -> 157        0.67382
     154 -> 159        0.18736

 Excited State  11:      Singlet-A      3.3982 eV  364.85 nm  f=0.0003  <S**2>=0.000
     146 -> 155       -0.10006
     153 -> 157        0.56493
     154 -> 158        0.41013

 Excited State  12:      Singlet-A      3.4096 eV  363.63 nm  f=0.0338  <S**2>=0.000
     146 -> 155        0.67015
     153 -> 157        0.17537

 Excited State  13:      Singlet-A      3.4108 eV  363.51 nm  f=0.0024  <S**2>=0.000
     146 -> 155        0.16453
     153 -> 157       -0.38334
     154 -> 158        0.56847

 Excited State  14:      Singlet-A      3.5193 eV  352.30 nm  f=0.0024  <S**2>=0.000
     145 -> 155        0.61008
     147 -> 155       -0.33144

 Excited State  15:      Singlet-A      3.5423 eV  350.01 nm  f=0.0004  <S**2>=0.000
     153 -> 158        0.68135
     154 -> 160       -0.15954

 Excited State  16:      Singlet-A      3.5652 eV  347.76 nm  f=0.0026  <S**2>=0.000
     145 -> 155        0.34934
     147 -> 155        0.54686
     154 -> 159        0.14420
     154 -> 162       -0.17461

 Excited State  17:      Singlet-A      3.5807 eV  346.26 nm  f=0.0049  <S**2>=0.000
     152 -> 156        0.68489

 Excited State  18:      Singlet-A      3.5848 eV  345.87 nm  f=0.0059  <S**2>=0.000
     153 -> 158        0.17525
     154 -> 159       -0.32610
     154 -> 160        0.58206

 Excited State  19:      Singlet-A      3.6384 eV  340.76 nm  f=0.0005  <S**2>=0.000
     153 -> 159        0.68192
     154 -> 161        0.13627

 Excited State  20:      Singlet-A      3.6452 eV  340.13 nm  f=0.0004  <S**2>=0.000
     144 -> 155        0.69662

 Excited State  21:      Singlet-A      3.6850 eV  336.45 nm  f=0.0449  <S**2>=0.000
     153 -> 161        0.20761
     154 -> 157       -0.15463
     154 -> 159        0.51032
     154 -> 160        0.33788
     154 -> 162        0.10167

 Excited State  22:      Singlet-A      3.7019 eV  334.92 nm  f=0.0184  <S**2>=0.000
     151 -> 156        0.67388
     152 -> 157        0.13495

 Excited State  23:      Singlet-A      3.7423 eV  331.30 nm  f=0.0012  <S**2>=0.000
     153 -> 160        0.69752

 Excited State  24:      Singlet-A      3.7697 eV  328.89 nm  f=0.0077  <S**2>=0.000
     151 -> 156       -0.11317
     152 -> 157        0.66790
     154 -> 161       -0.16130

 Excited State  25:      Singlet-A      3.7824 eV  327.79 nm  f=0.0004  <S**2>=0.000
     150 -> 156        0.70535

 Excited State  26:      Singlet-A      3.8489 eV  322.13 nm  f=0.0001  <S**2>=0.000
     149 -> 156        0.69794

 Excited State  27:      Singlet-A      3.8770 eV  319.79 nm  f=0.0210  <S**2>=0.000
     143 -> 155       -0.10705
     149 -> 156       -0.10135
     151 -> 157        0.11487
     152 -> 157        0.12934
     152 -> 159        0.18016
     153 -> 159       -0.10890
     154 -> 161        0.60261

 Excited State  28:      Singlet-A      3.8832 eV  319.28 nm  f=0.0005  <S**2>=0.000
     143 -> 155        0.69852

 Excited State  29:      Singlet-A      3.9132 eV  316.84 nm  f=0.0187  <S**2>=0.000
     152 -> 158        0.54240
     153 -> 161        0.42264
     154 -> 159       -0.11164

 Excited State  30:      Singlet-A      3.9170 eV  316.53 nm  f=0.0345  <S**2>=0.000
     152 -> 158       -0.44768
     153 -> 161        0.50762
     154 -> 159       -0.12320

 The electronic state is 1-A.
 Alpha  occ. eigenvalues -- -480.90354-480.90352-480.90206-480.90205 -61.92758
 Alpha  occ. eigenvalues --  -61.92755 -61.92600 -61.92599 -55.89020 -55.89017
 Alpha  occ. eigenvalues --  -55.88875 -55.88875 -55.88623 -55.88621 -55.88597
 Alpha  occ. eigenvalues --  -55.88595 -55.88465 -55.88465 -55.88429 -55.88428
 Alpha  occ. eigenvalues --  -18.81429 -18.69246 -18.69246 -18.67142 -18.66661
 Alpha  occ. eigenvalues --   -9.97439  -9.97437  -9.95843  -9.95842  -9.95594
 Alpha  occ. eigenvalues --   -9.93980  -9.93976  -9.93789  -9.93515  -9.93512
 Alpha  occ. eigenvalues --   -9.91107  -9.91094  -9.91066  -9.90621  -9.90614
 Alpha  occ. eigenvalues --   -9.89879  -9.89786  -9.89686  -9.89596  -9.89173
 Alpha  occ. eigenvalues --   -8.43496  -8.43494  -8.43339  -8.43338  -6.32034
 Alpha  occ. eigenvalues --   -6.32031  -6.31912  -6.31911  -6.30862  -6.30859
 Alpha  occ. eigenvalues --   -6.30781  -6.30779  -6.30700  -6.30699  -6.30588
 Alpha  occ. eigenvalues --   -6.30587  -2.52564  -2.52562  -2.52433  -2.52432
 Alpha  occ. eigenvalues --   -2.52280  -2.52278  -2.52228  -2.52225  -2.52145
 Alpha  occ. eigenvalues --   -2.52144  -2.52070  -2.52069  -2.51370  -2.51369
 Alpha  occ. eigenvalues --   -2.51368  -2.51366  -2.51183  -2.51183  -2.51181
 Alpha  occ. eigenvalues --   -2.51180  -1.01784  -0.91343  -0.90841  -0.90827
 Alpha  occ. eigenvalues --   -0.83067  -0.79563  -0.78853  -0.77120  -0.74152
 Alpha  occ. eigenvalues --   -0.73835  -0.73002  -0.70590  -0.68860  -0.67171
 Alpha  occ. eigenvalues --   -0.66895  -0.66038  -0.63604  -0.63490  -0.58162
 Alpha  occ. eigenvalues --   -0.57202  -0.55477  -0.54394  -0.51937  -0.51408
 Alpha  occ. eigenvalues --   -0.48245  -0.48060  -0.46485  -0.45502  -0.42479
 Alpha  occ. eigenvalues --   -0.42275  -0.41457  -0.40248  -0.40002  -0.39775
 Alpha  occ. eigenvalues --   -0.38524  -0.37962  -0.36724  -0.36354  -0.35946
 Alpha  occ. eigenvalues --   -0.35844  -0.35709  -0.34629  -0.34269  -0.33911
 Alpha  occ. eigenvalues --   -0.33490  -0.32937  -0.32752  -0.31493  -0.31050
 Alpha  occ. eigenvalues --   -0.30681  -0.30274  -0.29494  -0.28550  -0.28337
 Alpha  occ. eigenvalues --   -0.28061  -0.26893  -0.25470  -0.24847  -0.23967
 Alpha  occ. eigenvalues --   -0.23870  -0.23479  -0.22993  -0.22099  -0.21690
 Alpha  occ. eigenvalues --   -0.20839  -0.20651  -0.19226  -0.18887  -0.18632
 Alpha  occ. eigenvalues --   -0.18231  -0.17699  -0.16355  -0.15731
 Alpha virt. eigenvalues --   -0.08736  -0.04754  -0.03879  -0.03343  -0.03023
 Alpha virt. eigenvalues --   -0.02620  -0.02168  -0.01159  -0.00278   0.00424
 Alpha virt. eigenvalues --    0.03866   0.05003   0.05687   0.06132   0.06772

 Mulliken charges:
               1
     1  C    0.043667
     2  C   -0.128688
     3  C    0.173717
     4  C    0.050251
     5  C   -0.337627
     6  C    0.064105
     7  C    0.555297
     8  C    0.055782
     9  C    0.184082
    10  C   -0.133856
    11  C    0.046548
    12  C    0.060566
    13  C   -0.336517
    14  H    0.139119
    15  H    0.139187
    16  O   -0.179624
    17  O   -0.400730
    18  O   -0.400584
    19  C   -0.050262
    20  C   -0.305598
    21  C   -0.055823
    22  C   -0.104817
    23  H    0.112384
    24  C   -0.187642
    25  C   -0.143641
    26  H    0.129329
    27  H    0.110149
    28  H    0.126499
    29  C    0.231274
    30  O   -0.491658
    31  O   -0.487253
    32  Br  -0.109905
    33  Br  -0.109958
    34  Br  -0.128922
    35  Br  -0.128851
 Sum of Mulliken charges =  -2.00000

 Dipole moment (field-independent basis, Debye):
    X=              0.4253    Y=              0.2765    Z=            -11.7033  Tot=             11.7143
 Quadrupole moment (field-independent basis, Debye-Ang):
   XX=           -350.8791   YY=           -280.9348   ZZ=           -248.5990
   XY=              1.5647   XZ=              1.3566   YZ=            -38.2597

 Normal termination of Gaussian 09 at Sat Feb 12 00:51:55 2022.
