                         Program Version 5.0.2 -  RELEASE  -
|  1> %maxcore 20000
|  2> %pal
|  3>  nprocs= 4
|  4> end
|  5> ! RI-DSD-BLYP D3BJ def2-TZVP def2/J def2-TZVP/C RIJCOSX CPCM TightSCF
|  6> %TDDFT
|  7>    NROOTS   30
|  8>    dcorr 4
|  9>    doscs true
| 10>    scspar 0.333, 1.2, 0.43, 1.24
| 11>    TDA      FALSE
| 12> END
| 13>
| 14> %CPCM
| 15>    SMD          TRUE
| 16>    SMDsolvent   "ACETONITRILE"
| 17> END
| 18>
| 19>
| 20> * xyz 1 1
| 21>  C 2.239128 3.596997 -0.115023
| 22>  C 2.928375 2.416072 -0.052316
| 23>  C 2.233183 1.193935 0.016949
| 24>  C 0.805868 1.208193 -0.009906
| 25>  C 0.138098 2.457766 -0.057358
| 26>  C 0.834050 3.627809 -0.104825
| 27>  C 0.092838 0.000763 0.003285
| 28>  C 0.804842 -1.207237 -0.012359
| 29>  C 2.232163 -1.194233 0.014781
| 30>  C 2.926372 -2.416814 -0.056186
| 31>  H 4.003413 -2.436763 -0.089302
| 32>  C 2.236167 -3.597055 -0.121143
| 33>  C 0.831057 -3.626705 -0.111628
| 34>  C 0.136058 -2.456167 -0.062347
| 35>  H 2.794316 4.523639 -0.180809
| 36>  H 4.005408 2.435194 -0.085919
| 37>  H -0.943757 2.455960 -0.065059
| 38>  H 0.313855 4.574865 -0.146579
| 39>  H 2.790606 -4.524051 -0.188234
| 40>  H 0.310086 -4.573251 -0.155265
| 41>  H -0.945794 -2.453453 -0.070402
| 42>  N 2.896462 -0.000520 0.097320
| 43>  C 4.351299 -0.001410 0.264811
| 44>  H 4.650968 -0.875021 0.828927
| 45>  H 4.850682 -0.000207 -0.702690
| 46>  H 4.651857 0.870145 0.831629
| 47>  C -1.390626 0.001439 0.011946
| 48>  C -2.092877 0.003720 -1.198942
| 49>  C -2.073194 -0.000431 1.237284
| 50>  C -3.484327 0.004209 -1.160953
| 51>  C -3.461998 0.000182 1.224283
| 52>  C -4.188971 0.002560 0.036601
| 53>  H -4.029501 0.005865 -2.098887
| 54>  H -3.990245 -0.001324 2.172185
| 55>  C -1.322498 -0.003413 2.530177
| 56>  H -0.678113 -0.880618 2.618349
| 57>  H -0.673684 0.870326 2.620050
| 58>  H -2.001593 -0.002585 3.379901
| 59>  C -1.367995 0.005246 -2.506411
| 60>  H -0.722058 0.879956 -2.607063
| 61>  H -0.724491 -0.870894 -2.610298
| 62>  H -2.063827 0.007749 -3.342484
| 63>  C -5.682651 0.004431 0.058057
| 64>  H -6.070855 0.885572 0.571514
| 65>  H -6.098883 -0.006793 -0.947398
| 66>  H -6.073219 -0.862687 0.592902
| 67> *
| 68>
| 69>
| 70>                          ****END OF INPUT****

CARTESIAN COORDINATES (ANGSTROEM)
---------------------------------
  C      2.239128    3.596997   -0.115023
  C      2.928375    2.416072   -0.052316
  C      2.233183    1.193935    0.016949
  C      0.805868    1.208193   -0.009906
  C      0.138098    2.457766   -0.057358
  C      0.834050    3.627809   -0.104825
  C      0.092838    0.000763    0.003285
  C      0.804842   -1.207237   -0.012359
  C      2.232163   -1.194233    0.014781
  C      2.926372   -2.416814   -0.056186
  H      4.003413   -2.436763   -0.089302
  C      2.236167   -3.597055   -0.121143
  C      0.831057   -3.626705   -0.111628
  C      0.136058   -2.456167   -0.062347
  H      2.794316    4.523639   -0.180809
  H      4.005408    2.435194   -0.085919
  H     -0.943757    2.455960   -0.065059
  H      0.313855    4.574865   -0.146579
  H      2.790606   -4.524051   -0.188234
  H      0.310086   -4.573251   -0.155265
  H     -0.945794   -2.453453   -0.070402
  N      2.896462   -0.000520    0.097320
  C      4.351299   -0.001410    0.264811
  H      4.650968   -0.875021    0.828927
  H      4.850682   -0.000207   -0.702690
  H      4.651857    0.870145    0.831629
  C     -1.390626    0.001439    0.011946
  C     -2.092877    0.003720   -1.198942
  C     -2.073194   -0.000431    1.237284
  C     -3.484327    0.004209   -1.160953
  C     -3.461998    0.000182    1.224283
  C     -4.188971    0.002560    0.036601
  H     -4.029501    0.005865   -2.098887
  H     -3.990245   -0.001324    2.172185
  C     -1.322498   -0.003413    2.530177
  H     -0.678113   -0.880618    2.618349
  H     -0.673684    0.870326    2.620050
  H     -2.001593   -0.002585    3.379901
  C     -1.367995    0.005246   -2.506411
  H     -0.722058    0.879956   -2.607063
  H     -0.724491   -0.870894   -2.610298
  H     -2.063827    0.007749   -3.342484
  C     -5.682651    0.004431    0.058057
  H     -6.070855    0.885572    0.571514
  H     -6.098883   -0.006793   -0.947398
  H     -6.073219   -0.862687    0.592902

 Total Charge           Charge          ....    1
 Multiplicity           Mult            ....    1
 Number of Electrons    NEL             ....  166
 Basis Dimension        Dim             ....  876

ORBITAL ENERGIES
----------------

  NO   OCC          E(Eh)            E(eV)
   0   2.0000     -15.186035      -413.2330
   1   2.0000     -10.920171      -297.1530
   2   2.0000     -10.920149      -297.1524
   3   2.0000     -10.901642      -296.6488
   4   2.0000     -10.868071      -295.7352
   5   2.0000     -10.868049      -295.7346
   6   2.0000     -10.864580      -295.6403
   7   2.0000     -10.857555      -295.4491
   8   2.0000     -10.857554      -295.4491
   9   2.0000     -10.852325      -295.3068
  10   2.0000     -10.852322      -295.3067
  11   2.0000     -10.845290      -295.1153
  12   2.0000     -10.845282      -295.1151
  13   2.0000     -10.844577      -295.0959
  14   2.0000     -10.844431      -295.0920
  15   2.0000     -10.840701      -294.9905
  16   2.0000     -10.840700      -294.9904
  17   2.0000     -10.839619      -294.9610
  18   2.0000     -10.837990      -294.9167
  19   2.0000     -10.819177      -294.4048
  20   2.0000     -10.818834      -294.3954
  21   2.0000     -10.813378      -294.2470
  22   2.0000     -10.813311      -294.2452
  23   2.0000     -10.810741      -294.1752
  24   2.0000      -1.224560       -33.3220
  25   2.0000      -1.087301       -29.5870
  26   2.0000      -1.073213       -29.2036
  27   2.0000      -1.053633       -28.6708
  28   2.0000      -1.012974       -27.5644
  29   2.0000      -0.961031       -26.1510
  30   2.0000      -0.960485       -26.1361
  31   2.0000      -0.959460       -26.1082
  32   2.0000      -0.942051       -25.6345
  33   2.0000      -0.927030       -25.2258
  34   2.0000      -0.894828       -24.3495
  35   2.0000      -0.858780       -23.3686
  36   2.0000      -0.851081       -23.1591
  37   2.0000      -0.835993       -22.7485
  38   2.0000      -0.821930       -22.3659
  39   2.0000      -0.810093       -22.0437
  40   2.0000      -0.756739       -20.5919
  41   2.0000      -0.753937       -20.5157
  42   2.0000      -0.713286       -19.4095
  43   2.0000      -0.710206       -19.3257
  44   2.0000      -0.702443       -19.1144
  45   2.0000      -0.691152       -18.8072
  46   2.0000      -0.654236       -17.8027
  47   2.0000      -0.617868       -16.8130
  48   2.0000      -0.613434       -16.6924
  49   2.0000      -0.608847       -16.5676
  50   2.0000      -0.600176       -16.3316
  51   2.0000      -0.597132       -16.2488
  52   2.0000      -0.594476       -16.1765
  53   2.0000      -0.573394       -15.6028
  54   2.0000      -0.557331       -15.1657
  55   2.0000      -0.556842       -15.1524
  56   2.0000      -0.552897       -15.0451
  57   2.0000      -0.535884       -14.5821
  58   2.0000      -0.525467       -14.2987
  59   2.0000      -0.513474       -13.9723
  60   2.0000      -0.511916       -13.9299
  61   2.0000      -0.510413       -13.8890
  62   2.0000      -0.507064       -13.7979
  63   2.0000      -0.504871       -13.7382
  64   2.0000      -0.501079       -13.6351
  65   2.0000      -0.498017       -13.5517
  66   2.0000      -0.496938       -13.5224
  67   2.0000      -0.487369       -13.2620
  68   2.0000      -0.476481       -12.9657
  69   2.0000      -0.466748       -12.7009
  70   2.0000      -0.461930       -12.5697
  71   2.0000      -0.459129       -12.4935
  72   2.0000      -0.455789       -12.4026
  73   2.0000      -0.435473       -11.8498
  74   2.0000      -0.426427       -11.6037
  75   2.0000      -0.423950       -11.5363
  76   2.0000      -0.422805       -11.5051
  77   2.0000      -0.388849       -10.5811
  78   2.0000      -0.341081        -9.2813
  79   2.0000      -0.318815        -8.6754
  80   2.0000      -0.300432        -8.1752
  81   2.0000      -0.297842        -8.1047
  82   2.0000      -0.289140        -7.8679
  83   0.0000      -0.049105        -1.3362
  84   0.0000       0.030033         0.8172
  85   0.0000       0.057562         1.5664
  86   0.0000       0.061756         1.6805
  87   0.0000       0.073795         2.0081

MULLIKEN ATOMIC CHARGES
-----------------------
   0 C :   -0.060442
   1 C :   -0.310610
   2 C :    0.171017
   3 C :    0.115911
   4 C :   -0.240620
   5 C :   -0.171217
   6 C :    0.427062
   7 C :    0.116329
   8 C :    0.170344
   9 C :   -0.310819
  10 H :    0.178446
  11 C :   -0.060348
  12 C :   -0.170762
  13 C :   -0.240868
  14 H :    0.180381
  15 H :    0.178575
  16 H :    0.186964
  17 H :    0.173481
  18 H :    0.180470
  19 H :    0.173532
  20 H :    0.186969
  21 N :    0.012032
  22 C :   -0.300589
  23 H :    0.175278
  24 H :    0.175982
  25 H :    0.175287
  26 C :   -0.061682
  27 C :    0.019047
  28 C :    0.034073
  29 C :   -0.309700
  30 C :   -0.299494
  31 C :    0.144682
  32 H :    0.152300
  33 H :    0.153235
  34 C :   -0.417998
  35 H :    0.147404
  36 H :    0.147420
  37 H :    0.146047
  38 C :   -0.419477
  39 H :    0.147547
  40 H :    0.147490
  41 H :    0.146575
  42 C :   -0.405000
  43 H :    0.138279
  44 H :    0.139288
  45 H :    0.138180
Sum of atomic charges:    1.0000000

LOEWDIN ATOMIC CHARGES
----------------------
   0 C :   -0.077656
   1 C :   -0.107222
   2 C :   -0.062424
   3 C :   -0.058136
   4 C :   -0.055125
   5 C :   -0.127606
   6 C :    0.065828
   7 C :   -0.058114
   8 C :   -0.062426
   9 C :   -0.107241
  10 H :    0.164288
  11 C :   -0.077648
  12 C :   -0.127607
  13 C :   -0.055114
  14 H :    0.163005
  15 H :    0.164291
  16 H :    0.171400
  17 H :    0.157909
  18 H :    0.163005
  19 H :    0.157908
  20 H :    0.171401
  21 N :    0.300867
  22 C :   -0.204411
  23 H :    0.134631
  24 H :    0.132510
  25 H :    0.134621
  26 C :   -0.065163
  27 C :   -0.126630
  28 C :   -0.126969
  29 C :   -0.102819
  30 C :   -0.097993
  31 C :   -0.163068
  32 H :    0.154933
  33 H :    0.155750
  34 C :   -0.230841
  35 H :    0.132022
  36 H :    0.132017
  37 H :    0.129104
  38 C :   -0.230524
  39 H :    0.132055
  40 H :    0.132059
  41 H :    0.129106
  42 C :   -0.239980
  43 H :    0.129591
  44 H :    0.126922
  45 H :    0.129496

  Mayer bond orders larger than 0.100000
B(  0-C ,  1-C ) :   1.5490 B(  0-C ,  5-C ) :   1.2281 B(  0-C , 14-H ) :   0.9697
B(  1-C ,  2-C ) :   1.2359 B(  1-C , 15-H ) :   0.9822 B(  2-C ,  3-C ) :   1.2799
B(  2-C , 21-N ) :   1.2666 B(  3-C ,  4-C ) :   1.1788 B(  3-C ,  6-C ) :   1.1620
B(  4-C ,  5-C ) :   1.5962 B(  4-C , 16-H ) :   0.9703 B(  5-C , 17-H ) :   0.9823
B(  6-C ,  7-C ) :   1.1613 B(  6-C , 26-C ) :   0.2478 B(  7-C ,  8-C ) :   1.2801
B(  7-C , 13-C ) :   1.1787 B(  8-C ,  9-C ) :   1.2357 B(  8-C , 21-N ) :   1.2667
B(  9-C , 10-H ) :   0.9829 B(  9-C , 11-C ) :   1.5481 B( 11-C , 12-C ) :   1.2276
B( 11-C , 18-H ) :   0.9697 B( 12-C , 13-C ) :   1.5966 B( 12-C , 19-H ) :   0.9823
B( 13-C , 20-H ) :   0.9702 B( 21-N , 22-C ) :   0.8654 B( 22-C , 23-H ) :   0.9611
B( 22-C , 24-H ) :   0.9635 B( 22-C , 25-H ) :   0.9611 B( 26-C , 27-C ) :   1.3506
B( 26-C , 28-C ) :   1.3252 B( 27-C , 29-C ) :   1.4583 B( 27-C , 38-C ) :   0.9336
B( 28-C , 30-C ) :   1.4790 B( 28-C , 34-C ) :   0.9362 B( 29-C , 31-C ) :   1.3816
B( 29-C , 32-H ) :   0.9857 B( 30-C , 31-C ) :   1.3404 B( 30-C , 33-H ) :   0.9968
B( 31-C , 42-C ) :   0.9205 B( 34-C , 35-H ) :   0.9796 B( 34-C , 36-H ) :   0.9798
B( 34-C , 37-H ) :   0.9920 B( 38-C , 39-H ) :   0.9789 B( 38-C , 40-H ) :   0.9787
B( 38-C , 41-H ) :   0.9941 B( 42-C , 43-H ) :   0.9741 B( 42-C , 44-H ) :   0.9997
B( 42-C , 45-H ) :   0.9747

MP2 TOTAL ENERGY:     -943.378727200 Eh

-----------------------------------------------------------------------------
         ABSORPTION SPECTRUM VIA TRANSITION ELECTRIC DIPOLE MOMENTS
-----------------------------------------------------------------------------
State   Energy    Wavelength  fosc         T2        TX        TY        TZ
        (cm-1)      (nm)                 (au**2)    (au)      (au)      (au)
-----------------------------------------------------------------------------
   1   17166.9    582.5   0.117939185   2.26173   1.50376  -0.00069   0.02107
   2   16694.5    599.0   0.007596922   0.14981   0.00139   0.38705   0.00025
   3   21162.2    472.5   0.255793015   3.97926   0.00060   1.99481   0.00190
   4   15442.0    647.6   0.000337228   0.00719  -0.00041   0.08479  -0.00053
   5   24677.0    405.2   0.040256125   0.53705  -0.00032  -0.73284  -0.00090
   6   28832.0    346.8   0.005234873   0.05977  -0.14188   0.00106   0.19910
   7   31781.1    314.7   1.088744241  11.27802  -0.00142  -3.35827  -0.00296
   8   45383.0    220.3   0.093150090   0.67572  -0.81390   0.00073  -0.11525
   9   38314.6    261.0   0.129612977   1.11368   1.05022  -0.00004  -0.10356
  10   39184.8    255.2   0.055604988   0.46717  -0.68196   0.00023  -0.04576
  11   36834.3    271.5   0.021300839   0.19038   0.00124   0.43632  -0.00033
  12   34693.1    288.2   0.128821506   1.22242   1.10560  -0.00142   0.00850
  13   37381.4    267.5   0.193747842   1.70631  -0.18898  -0.00180   1.29251
  14   31308.5    319.4   0.021025183   0.22108  -0.34674   0.00073  -0.31757
  15   43873.0    227.9   0.894358190   6.71105  -2.58583   0.00242  -0.15662
  16   40078.3    249.5   0.286899770   2.35666   0.35242   0.00287  -1.49414
  17   39395.6    253.8   0.001210916   0.01012  -0.05389   0.00041   0.08494
  18   33241.0    300.8   0.051659509   0.51163  -0.71526   0.00046  -0.00589
  19   39840.1    251.0   0.003412512   0.02820  -0.00057  -0.16792  -0.00034
  20   42586.0    234.8   0.074821851   0.57841   0.00028   0.76053   0.00100
  21   31122.6    321.3   0.035458885   0.37508   0.60563  -0.00153   0.09106
  22   37672.3    265.4   0.000173905   0.00152  -0.02004  -0.03337  -0.00209
  23   39501.9    253.2   0.000148688   0.00124  -0.00016   0.03520   0.00038
  24   44377.2    225.3   0.111383964   0.82630   0.90900  -0.00051   0.00370
  25   36612.7    273.1   0.017603262   0.15828   0.15102  -0.00145   0.36807
  26   52347.3    191.0   0.003966876   0.02495  -0.15370  -0.00022   0.03638
  27   53646.3    186.4   0.000038162   0.00023   0.00224   0.01509   0.00124
  28   42133.5    237.3   0.000289153   0.00226   0.00116   0.04751  -0.00102
  29   50375.3    198.5   0.000041953   0.00027   0.00066   0.01646  -0.00163
  30   40243.5    248.5   0.001818985   0.01488  -0.00054  -0.12198  -0.00076

Dispersion correction           -0.043290992
FINAL SINGLE POINT ENERGY      -941.459115802025

DIPOLE MOMENT
-------------
                                X             Y             Z
Electronic contribution:      9.94485      -0.00462      -0.28763
Nuclear contribution   :     -6.65023       0.00357       0.32967
                        -----------------------------------------
Total Dipole Moment    :      3.29462      -0.00106       0.04204
                        -----------------------------------------
Magnitude (a.u.)       :      3.29488
Magnitude (Debye)      :      8.37493

Rotational constants in cm-1:     0.012195     0.006904     0.005187
Rotational constants in MHz :   365.608197   206.963406   155.506693

                             ****ORCA TERMINATED NORMALLY****
TOTAL RUN TIME: 0 days 2 hours 13 minutes 34 seconds 958 msec
