                         Program Version 5.0.2 -  RELEASE  -
|  1> %maxcore 19200
|  2> %pal
|  3>  nprocs= 8
|  4> end
|  5> ! RI-wB2PLYP def2-TZVP def2/J def2-TZVP/C RIJCOSX CPCM TightSCF
|  6> %TDDFT DCORR 1
|  7>    NROOTS   30
|  8>    TDA      FALSE
|  9> END
| 10>
| 11> %CPCM
| 12>    SMD          TRUE
| 13>    SMDsolvent   "ACETONITRILE"
| 14> END
| 15>
| 16>
| 17> * xyz 1 1
| 18>  C 2.239128 3.596997 -0.115023
| 19>  C 2.928375 2.416072 -0.052316
| 20>  C 2.233183 1.193935 0.016949
| 21>  C 0.805868 1.208193 -0.009906
| 22>  C 0.138098 2.457766 -0.057358
| 23>  C 0.834050 3.627809 -0.104825
| 24>  C 0.092838 0.000763 0.003285
| 25>  C 0.804842 -1.207237 -0.012359
| 26>  C 2.232163 -1.194233 0.014781
| 27>  C 2.926372 -2.416814 -0.056186
| 28>  H 4.003413 -2.436763 -0.089302
| 29>  C 2.236167 -3.597055 -0.121143
| 30>  C 0.831057 -3.626705 -0.111628
| 31>  C 0.136058 -2.456167 -0.062347
| 32>  H 2.794316 4.523639 -0.180809
| 33>  H 4.005408 2.435194 -0.085919
| 34>  H -0.943757 2.455960 -0.065059
| 35>  H 0.313855 4.574865 -0.146579
| 36>  H 2.790606 -4.524051 -0.188234
| 37>  H 0.310086 -4.573251 -0.155265
| 38>  H -0.945794 -2.453453 -0.070402
| 39>  N 2.896462 -0.000520 0.097320
| 40>  C 4.351299 -0.001410 0.264811
| 41>  H 4.650968 -0.875021 0.828927
| 42>  H 4.850682 -0.000207 -0.702690
| 43>  H 4.651857 0.870145 0.831629
| 44>  C -1.390626 0.001439 0.011946
| 45>  C -2.092877 0.003720 -1.198942
| 46>  C -2.073194 -0.000431 1.237284
| 47>  C -3.484327 0.004209 -1.160953
| 48>  C -3.461998 0.000182 1.224283
| 49>  C -4.188971 0.002560 0.036601
| 50>  H -4.029501 0.005865 -2.098887
| 51>  H -3.990245 -0.001324 2.172185
| 52>  C -1.322498 -0.003413 2.530177
| 53>  H -0.678113 -0.880618 2.618349
| 54>  H -0.673684 0.870326 2.620050
| 55>  H -2.001593 -0.002585 3.379901
| 56>  C -1.367995 0.005246 -2.506411
| 57>  H -0.722058 0.879956 -2.607063
| 58>  H -0.724491 -0.870894 -2.610298
| 59>  H -2.063827 0.007749 -3.342484
| 60>  C -5.682651 0.004431 0.058057
| 61>  H -6.070855 0.885572 0.571514
| 62>  H -6.098883 -0.006793 -0.947398
| 63>  H -6.073219 -0.862687 0.592902
| 64> *
| 65>
| 66>
| 67>                          ****END OF INPUT****

CARTESIAN COORDINATES (ANGSTROEM)
---------------------------------
  C      2.239128    3.596997   -0.115023
  C      2.928375    2.416072   -0.052316
  C      2.233183    1.193935    0.016949
  C      0.805868    1.208193   -0.009906
  C      0.138098    2.457766   -0.057358
  C      0.834050    3.627809   -0.104825
  C      0.092838    0.000763    0.003285
  C      0.804842   -1.207237   -0.012359
  C      2.232163   -1.194233    0.014781
  C      2.926372   -2.416814   -0.056186
  H      4.003413   -2.436763   -0.089302
  C      2.236167   -3.597055   -0.121143
  C      0.831057   -3.626705   -0.111628
  C      0.136058   -2.456167   -0.062347
  H      2.794316    4.523639   -0.180809
  H      4.005408    2.435194   -0.085919
  H     -0.943757    2.455960   -0.065059
  H      0.313855    4.574865   -0.146579
  H      2.790606   -4.524051   -0.188234
  H      0.310086   -4.573251   -0.155265
  H     -0.945794   -2.453453   -0.070402
  N      2.896462   -0.000520    0.097320
  C      4.351299   -0.001410    0.264811
  H      4.650968   -0.875021    0.828927
  H      4.850682   -0.000207   -0.702690
  H      4.651857    0.870145    0.831629
  C     -1.390626    0.001439    0.011946
  C     -2.092877    0.003720   -1.198942
  C     -2.073194   -0.000431    1.237284
  C     -3.484327    0.004209   -1.160953
  C     -3.461998    0.000182    1.224283
  C     -4.188971    0.002560    0.036601
  H     -4.029501    0.005865   -2.098887
  H     -3.990245   -0.001324    2.172185
  C     -1.322498   -0.003413    2.530177
  H     -0.678113   -0.880618    2.618349
  H     -0.673684    0.870326    2.620050
  H     -2.001593   -0.002585    3.379901
  C     -1.367995    0.005246   -2.506411
  H     -0.722058    0.879956   -2.607063
  H     -0.724491   -0.870894   -2.610298
  H     -2.063827    0.007749   -3.342484
  C     -5.682651    0.004431    0.058057
  H     -6.070855    0.885572    0.571514
  H     -6.098883   -0.006793   -0.947398
  H     -6.073219   -0.862687    0.592902

 Total Charge           Charge          ....    1
 Multiplicity           Mult            ....    1
 Number of Electrons    NEL             ....  166
 Basis Dimension        Dim             ....  876

ORBITAL ENERGIES
----------------

  NO   OCC          E(Eh)            E(eV)
   0   2.0000     -15.011010      -408.4703
   1   2.0000     -10.780957      -293.3648
   2   2.0000     -10.780931      -293.3640
   3   2.0000     -10.763086      -292.8785
   4   2.0000     -10.729243      -291.9575
   5   2.0000     -10.729224      -291.9570
   6   2.0000     -10.723853      -291.8109
   7   2.0000     -10.717728      -291.6442
   8   2.0000     -10.717727      -291.6442
   9   2.0000     -10.712783      -291.5096
  10   2.0000     -10.712779      -291.5095
  11   2.0000     -10.706007      -291.3253
  12   2.0000     -10.706000      -291.3251
  13   2.0000     -10.705789      -291.3193
  14   2.0000     -10.705679      -291.3163
  15   2.0000     -10.701064      -291.1908
  16   2.0000     -10.701063      -291.1907
  17   2.0000     -10.700768      -291.1827
  18   2.0000     -10.699095      -291.1372
  19   2.0000     -10.679457      -290.6028
  20   2.0000     -10.679152      -290.5945
  21   2.0000     -10.672844      -290.4228
  22   2.0000     -10.672810      -290.4219
  23   2.0000     -10.669797      -290.3399
  24   2.0000      -1.244160       -33.8553
  25   2.0000      -1.111217       -30.2377
  26   2.0000      -1.097452       -29.8632
  27   2.0000      -1.077596       -29.3229
  28   2.0000      -1.038340       -28.2547
  29   2.0000      -0.987072       -26.8596
  30   2.0000      -0.987007       -26.8578
  31   2.0000      -0.985773       -26.8242
  32   2.0000      -0.968145       -26.3446
  33   2.0000      -0.953411       -25.9436
  34   2.0000      -0.923161       -25.1205
  35   2.0000      -0.887462       -24.1491
  36   2.0000      -0.879612       -23.9355
  37   2.0000      -0.864099       -23.5133
  38   2.0000      -0.851158       -23.1612
  39   2.0000      -0.840605       -22.8740
  40   2.0000      -0.787241       -21.4219
  41   2.0000      -0.785054       -21.3624
  42   2.0000      -0.744836       -20.2680
  43   2.0000      -0.741114       -20.1667
  44   2.0000      -0.738154       -20.0862
  45   2.0000      -0.723132       -19.6774
  46   2.0000      -0.689358       -18.7584
  47   2.0000      -0.650184       -17.6924
  48   2.0000      -0.648324       -17.6418
  49   2.0000      -0.647565       -17.6212
  50   2.0000      -0.635530       -17.2937
  51   2.0000      -0.633653       -17.2426
  52   2.0000      -0.629277       -17.1235
  53   2.0000      -0.608624       -16.5615
  54   2.0000      -0.592364       -16.1191
  55   2.0000      -0.590194       -16.0600
  56   2.0000      -0.587007       -15.9733
  57   2.0000      -0.569927       -15.5085
  58   2.0000      -0.563675       -15.3384
  59   2.0000      -0.552693       -15.0395
  60   2.0000      -0.548991       -14.9388
  61   2.0000      -0.544986       -14.8298
  62   2.0000      -0.542779       -14.7698
  63   2.0000      -0.539852       -14.6901
  64   2.0000      -0.535252       -14.5649
  65   2.0000      -0.531577       -14.4649
  66   2.0000      -0.530692       -14.4409
  67   2.0000      -0.521347       -14.1866
  68   2.0000      -0.519138       -14.1265
  69   2.0000      -0.500031       -13.6065
  70   2.0000      -0.494773       -13.4635
  71   2.0000      -0.492863       -13.4115
  72   2.0000      -0.489334       -13.3154
  73   2.0000      -0.472043       -12.8450
  74   2.0000      -0.463498       -12.6124
  75   2.0000      -0.462256       -12.5786
  76   2.0000      -0.458640       -12.4802
  77   2.0000      -0.429136       -11.6774
  78   2.0000      -0.381501       -10.3812
  79   2.0000      -0.356147        -9.6913
  80   2.0000      -0.338896        -9.2218
  81   2.0000      -0.336205        -9.1486
  82   2.0000      -0.325998        -8.8709
  83   0.0000      -0.034939        -0.9507
  84   0.0000       0.045146         1.2285
  85   0.0000       0.074421         2.0251
  86   0.0000       0.078589         2.1385
  87   0.0000       0.090730         2.4689

MULLIKEN ATOMIC CHARGES
-----------------------
   0 C :   -0.105566
   1 C :   -0.286010
   2 C :    0.171743
   3 C :    0.134763
   4 C :   -0.242935
   5 C :   -0.180407
   6 C :    0.278040
   7 C :    0.135382
   8 C :    0.171027
   9 C :   -0.286292
  10 H :    0.201618
  11 C :   -0.105408
  12 C :   -0.179849
  13 C :   -0.243336
  14 H :    0.197475
  15 H :    0.201774
  16 H :    0.208955
  17 H :    0.191644
  18 H :    0.197554
  19 H :    0.191700
  20 H :    0.208983
  21 N :    0.003667
  22 C :   -0.358954
  23 H :    0.189770
  24 H :    0.200090
  25 H :    0.189802
  26 C :   -0.158162
  27 C :    0.027769
  28 C :    0.040662
  29 C :   -0.281210
  30 C :   -0.262938
  31 C :    0.102862
  32 H :    0.167974
  33 H :    0.170074
  34 C :   -0.446011
  35 H :    0.164650
  36 H :    0.164630
  37 H :    0.159904
  38 C :   -0.447285
  39 H :    0.164628
  40 H :    0.164590
  41 H :    0.160587
  42 C :   -0.443637
  43 H :    0.156262
  44 H :    0.153371
  45 H :    0.156049
Sum of atomic charges:    1.0000000

LOEWDIN ATOMIC CHARGES
----------------------
   0 C :   -0.081912
   1 C :   -0.110025
   2 C :   -0.065569
   3 C :   -0.060101
   4 C :   -0.059307
   5 C :   -0.130627
   6 C :    0.062206
   7 C :   -0.060076
   8 C :   -0.065571
   9 C :   -0.110043
  10 H :    0.168432
  11 C :   -0.081904
  12 C :   -0.130627
  13 C :   -0.059298
  14 H :    0.167410
  15 H :    0.168436
  16 H :    0.175647
  17 H :    0.162289
  18 H :    0.167410
  19 H :    0.162289
  20 H :    0.175648
  21 N :    0.306888
  22 C :   -0.218016
  23 H :    0.139255
  24 H :    0.138013
  25 H :    0.139248
  26 C :   -0.069206
  27 C :   -0.129881
  28 C :   -0.130127
  29 C :   -0.105549
  30 C :   -0.100742
  31 C :   -0.166592
  32 H :    0.159244
  33 H :    0.160196
  34 C :   -0.241824
  35 H :    0.137087
  36 H :    0.137077
  37 H :    0.134153
  38 C :   -0.241441
  39 H :    0.137094
  40 H :    0.137101
  41 H :    0.134167
  42 C :   -0.252158
  43 H :    0.134863
  44 H :    0.131693
  45 H :    0.134748

  Mayer bond orders larger than 0.100000
B(  0-C ,  1-C ) :   1.5731 B(  0-C ,  5-C ) :   1.2296 B(  0-C , 14-H ) :   0.9635
B(  1-C ,  2-C ) :   1.2169 B(  1-C , 15-H ) :   0.9597 B(  2-C ,  3-C ) :   1.2674
B(  2-C , 21-N ) :   1.2604 B(  3-C ,  4-C ) :   1.1707 B(  3-C ,  6-C ) :   1.1789
B(  4-C ,  5-C ) :   1.6074 B(  4-C , 16-H ) :   0.9557 B(  5-C , 17-H ) :   0.9712
B(  6-C ,  7-C ) :   1.1788 B(  6-C , 26-C ) :   0.3847 B(  7-C ,  8-C ) :   1.2677
B(  7-C , 13-C ) :   1.1707 B(  8-C ,  9-C ) :   1.2164 B(  8-C , 21-N ) :   1.2605
B(  9-C , 10-H ) :   0.9606 B(  9-C , 11-C ) :   1.5720 B( 11-C , 12-C ) :   1.2290
B( 11-C , 18-H ) :   0.9635 B( 12-C , 13-C ) :   1.6078 B( 12-C , 19-H ) :   0.9712
B( 13-C , 20-H ) :   0.9556 B( 21-N , 22-C ) :   0.8815 B( 22-C , 23-H ) :   0.9569
B( 22-C , 24-H ) :   0.9579 B( 22-C , 25-H ) :   0.9569 B( 26-C , 27-C ) :   1.3352
B( 26-C , 28-C ) :   1.3101 B( 27-C , 29-C ) :   1.4586 B( 27-C , 38-C ) :   0.9262
B( 28-C , 30-C ) :   1.4809 B( 28-C , 34-C ) :   0.9295 B( 29-C , 31-C ) :   1.3929
B( 29-C , 32-H ) :   0.9663 B( 30-C , 31-C ) :   1.3449 B( 30-C , 33-H ) :   0.9767
B( 31-C , 42-C ) :   0.9184 B( 34-C , 35-H ) :   0.9772 B( 34-C , 36-H ) :   0.9773
B( 34-C , 37-H ) :   0.9860 B( 38-C , 39-H ) :   0.9763 B( 38-C , 40-H ) :   0.9761
B( 38-C , 41-H ) :   0.9885 B( 42-C , 43-H ) :   0.9703 B( 42-C , 44-H ) :   0.9965
B( 42-C , 45-H ) :   0.9708

MP2 TOTAL ENERGY:     -942.722452547 Eh

-----------------------------------------------------------------------------
         ABSORPTION SPECTRUM VIA TRANSITION ELECTRIC DIPOLE MOMENTS
-----------------------------------------------------------------------------
State   Energy    Wavelength  fosc         T2        TX        TY        TZ
        (cm-1)      (nm)                 (au**2)    (au)      (au)      (au)
-----------------------------------------------------------------------------
   1   26808.3    373.0   0.195907129   2.40578  -1.55090   0.00072  -0.02228
   2   31010.2    322.5   0.371628618   3.94531   0.00095   1.98628   0.00186
   3   30673.8    326.0   0.001466600   0.01574   0.00137  -0.12545  -0.00025
   4   36135.6    276.7   0.104847617   0.95521   0.00037   0.97735   0.00106
   5   34326.2    291.3   0.000101633   0.00097   0.00054   0.03120   0.00089
   6   41696.3    239.8   0.006953285   0.05490  -0.12174   0.00019   0.20020
   7   43150.2    231.7   1.438552735  10.97537   0.00134   3.31291   0.00293
   8   47409.2    210.9   0.097359032   0.67607  -0.81340   0.00079  -0.12023
   9   47499.9    210.5   0.171794564   1.19067  -1.08604   0.00005   0.10577
  10   48687.9    205.4   0.164903168   1.11502   1.05198  -0.00062   0.09138
  11   49370.9    202.5   0.126213166   0.84161   0.91734  -0.00055  -0.00977
  12   49025.0    204.0   0.168700220   1.13285  -0.29690  -0.00195   1.02211
  13   49668.4    201.3   0.011173241   0.07406   0.00245  -0.27212  -0.00155
  14   51996.8    192.3   0.663062733   4.19811   1.50048  -0.00382   1.39523
  15   52237.3    191.4   0.894498161   5.63734   2.16603   0.00022  -0.97244
  16   53455.2    187.1   0.004266085   0.02627  -0.15835   0.00063  -0.03464
  17   51251.9    195.1   0.015411344   0.09899   0.01578   0.00003   0.31424
  18   53231.1    187.9   0.002007519   0.01242   0.00038   0.11142   0.00011
  19   55831.5    179.1   0.108425821   0.63934   0.00012   0.79958   0.00061
  20   55075.8    181.6   0.001781072   0.01065   0.00127   0.10317   0.00023
  21   55886.7    178.9   0.191451788   1.12779  -1.05670   0.00076  -0.10568
  22   54208.5    184.5   0.014696742   0.08925  -0.29875  -0.00039   0.00145
  23   60432.4    165.5   0.005819822   0.03170   0.05029  -0.00063   0.17081
  24   57691.1    173.3   0.071917652   0.41040  -0.64015   0.00044  -0.02462
  25   57659.4    173.4   0.000016013   0.00009  -0.00052  -0.00954   0.00042
  26   61453.7    162.7   0.000391511   0.00210  -0.00214  -0.04574  -0.00069
  27   61846.3    161.7   0.000409690   0.00218   0.00090   0.04667  -0.00141
  28   58618.7    170.6   0.036670247   0.20595  -0.02001  -0.00045   0.45337
  29   58806.7    170.0   0.001301776   0.00729   0.01532  -0.00045  -0.08398
  30   59389.7    168.4   0.000250709   0.00139  -0.00035   0.03728  -0.00033

FINAL SINGLE POINT ENERGY      -941.471589112922

DIPOLE MOMENT
-------------
                                X             Y             Z
Electronic contribution:      9.96536      -0.00458      -0.28638
Nuclear contribution   :     -6.65023       0.00357       0.32967
                        -----------------------------------------
Total Dipole Moment    :      3.31513      -0.00101       0.04329
                        -----------------------------------------
Magnitude (a.u.)       :      3.31542
Magnitude (Debye)      :      8.42712

Rotational constants in cm-1:     0.012195     0.006904     0.005187
Rotational constants in MHz :   365.608197   206.963406   155.506693

                             ****ORCA TERMINATED NORMALLY****
TOTAL RUN TIME: 0 days 0 hours 49 minutes 59 seconds 273 msec
