                         Program Version 5.0.2 -  RELEASE  -
|  1> %maxcore 20000
|  2> %pal
|  3>  nprocs= 4
|  4> end
|  5> ! RI-wPBEPP86   def2-TZVP def2/J def2-TZVP/C RIJCOSX CPCM TightSCF
|  6> %TDDFT
|  7>    NROOTS   30
|  8>    dcorr 1
|  9>    TDA      FALSE
| 10> END
| 11>
| 12> %CPCM
| 13>    SMD          TRUE
| 14>    SMDsolvent   "ACETONITRILE"
| 15> END
| 16>
| 17>
| 18> * xyz 1 1
| 19>  C 2.239128 3.596997 -0.115023
| 20>  C 2.928375 2.416072 -0.052316
| 21>  C 2.233183 1.193935 0.016949
| 22>  C 0.805868 1.208193 -0.009906
| 23>  C 0.138098 2.457766 -0.057358
| 24>  C 0.834050 3.627809 -0.104825
| 25>  C 0.092838 0.000763 0.003285
| 26>  C 0.804842 -1.207237 -0.012359
| 27>  C 2.232163 -1.194233 0.014781
| 28>  C 2.926372 -2.416814 -0.056186
| 29>  H 4.003413 -2.436763 -0.089302
| 30>  C 2.236167 -3.597055 -0.121143
| 31>  C 0.831057 -3.626705 -0.111628
| 32>  C 0.136058 -2.456167 -0.062347
| 33>  H 2.794316 4.523639 -0.180809
| 34>  H 4.005408 2.435194 -0.085919
| 35>  H -0.943757 2.455960 -0.065059
| 36>  H 0.313855 4.574865 -0.146579
| 37>  H 2.790606 -4.524051 -0.188234
| 38>  H 0.310086 -4.573251 -0.155265
| 39>  H -0.945794 -2.453453 -0.070402
| 40>  N 2.896462 -0.000520 0.097320
| 41>  C 4.351299 -0.001410 0.264811
| 42>  H 4.650968 -0.875021 0.828927
| 43>  H 4.850682 -0.000207 -0.702690
| 44>  H 4.651857 0.870145 0.831629
| 45>  C -1.390626 0.001439 0.011946
| 46>  C -2.092877 0.003720 -1.198942
| 47>  C -2.073194 -0.000431 1.237284
| 48>  C -3.484327 0.004209 -1.160953
| 49>  C -3.461998 0.000182 1.224283
| 50>  C -4.188971 0.002560 0.036601
| 51>  H -4.029501 0.005865 -2.098887
| 52>  H -3.990245 -0.001324 2.172185
| 53>  C -1.322498 -0.003413 2.530177
| 54>  H -0.678113 -0.880618 2.618349
| 55>  H -0.673684 0.870326 2.620050
| 56>  H -2.001593 -0.002585 3.379901
| 57>  C -1.367995 0.005246 -2.506411
| 58>  H -0.722058 0.879956 -2.607063
| 59>  H -0.724491 -0.870894 -2.610298
| 60>  H -2.063827 0.007749 -3.342484
| 61>  C -5.682651 0.004431 0.058057
| 62>  H -6.070855 0.885572 0.571514
| 63>  H -6.098883 -0.006793 -0.947398
| 64>  H -6.073219 -0.862687 0.592902
| 65> *
| 66>
| 67>
| 68>                          ****END OF INPUT****

CARTESIAN COORDINATES (ANGSTROEM)
---------------------------------
  C      2.239128    3.596997   -0.115023
  C      2.928375    2.416072   -0.052316
  C      2.233183    1.193935    0.016949
  C      0.805868    1.208193   -0.009906
  C      0.138098    2.457766   -0.057358
  C      0.834050    3.627809   -0.104825
  C      0.092838    0.000763    0.003285
  C      0.804842   -1.207237   -0.012359
  C      2.232163   -1.194233    0.014781
  C      2.926372   -2.416814   -0.056186
  H      4.003413   -2.436763   -0.089302
  C      2.236167   -3.597055   -0.121143
  C      0.831057   -3.626705   -0.111628
  C      0.136058   -2.456167   -0.062347
  H      2.794316    4.523639   -0.180809
  H      4.005408    2.435194   -0.085919
  H     -0.943757    2.455960   -0.065059
  H      0.313855    4.574865   -0.146579
  H      2.790606   -4.524051   -0.188234
  H      0.310086   -4.573251   -0.155265
  H     -0.945794   -2.453453   -0.070402
  N      2.896462   -0.000520    0.097320
  C      4.351299   -0.001410    0.264811
  H      4.650968   -0.875021    0.828927
  H      4.850682   -0.000207   -0.702690
  H      4.651857    0.870145    0.831629
  C     -1.390626    0.001439    0.011946
  C     -2.092877    0.003720   -1.198942
  C     -2.073194   -0.000431    1.237284
  C     -3.484327    0.004209   -1.160953
  C     -3.461998    0.000182    1.224283
  C     -4.188971    0.002560    0.036601
  H     -4.029501    0.005865   -2.098887
  H     -3.990245   -0.001324    2.172185
  C     -1.322498   -0.003413    2.530177
  H     -0.678113   -0.880618    2.618349
  H     -0.673684    0.870326    2.620050
  H     -2.001593   -0.002585    3.379901
  C     -1.367995    0.005246   -2.506411
  H     -0.722058    0.879956   -2.607063
  H     -0.724491   -0.870894   -2.610298
  H     -2.063827    0.007749   -3.342484
  C     -5.682651    0.004431    0.058057
  H     -6.070855    0.885572    0.571514
  H     -6.098883   -0.006793   -0.947398
  H     -6.073219   -0.862687    0.592902

 Total Charge           Charge          ....    1
 Multiplicity           Mult            ....    1
 Number of Electrons    NEL             ....  166
 Basis Dimension        Dim             ....  876

ORBITAL ENERGIES
----------------

  NO   OCC          E(Eh)            E(eV)
   0   2.0000     -15.235222      -414.5715
   1   2.0000     -10.962240      -298.2977
   2   2.0000     -10.962218      -298.2971
   3   2.0000     -10.945234      -297.8350
   4   2.0000     -10.910033      -296.8771
   5   2.0000     -10.910011      -296.8765
   6   2.0000     -10.901821      -296.6536
   7   2.0000     -10.898115      -296.5528
   8   2.0000     -10.898114      -296.5527
   9   2.0000     -10.893266      -296.4208
  10   2.0000     -10.893262      -296.4207
  11   2.0000     -10.887071      -296.2523
  12   2.0000     -10.886970      -296.2495
  13   2.0000     -10.885750      -296.2163
  14   2.0000     -10.885743      -296.2161
  15   2.0000     -10.881913      -296.1119
  16   2.0000     -10.880752      -296.0803
  17   2.0000     -10.880751      -296.0803
  18   2.0000     -10.880016      -296.0603
  19   2.0000     -10.859568      -295.5039
  20   2.0000     -10.859232      -295.4947
  21   2.0000     -10.851000      -295.2707
  22   2.0000     -10.850994      -295.2706
  23   2.0000     -10.847607      -295.1784
  24   2.0000      -1.277145       -34.7529
  25   2.0000      -1.139250       -31.0006
  26   2.0000      -1.124744       -30.6059
  27   2.0000      -1.105051       -30.0700
  28   2.0000      -1.063757       -28.9463
  29   2.0000      -1.010949       -27.5093
  30   2.0000      -1.010286       -27.4913
  31   2.0000      -1.009367       -27.4663
  32   2.0000      -0.991385       -26.9770
  33   2.0000      -0.975898       -26.5555
  34   2.0000      -0.943443       -25.6724
  35   2.0000      -0.906679       -24.6720
  36   2.0000      -0.898904       -24.4604
  37   2.0000      -0.883549       -24.0426
  38   2.0000      -0.869644       -23.6642
  39   2.0000      -0.858079       -23.3495
  40   2.0000      -0.803104       -21.8536
  41   2.0000      -0.800750       -21.7895
  42   2.0000      -0.759498       -20.6670
  43   2.0000      -0.755924       -20.5697
  44   2.0000      -0.749894       -20.4057
  45   2.0000      -0.736914       -20.0525
  46   2.0000      -0.700060       -19.0496
  47   2.0000      -0.661420       -17.9982
  48   2.0000      -0.658441       -17.9171
  49   2.0000      -0.655683       -17.8420
  50   2.0000      -0.644521       -17.5383
  51   2.0000      -0.642648       -17.4873
  52   2.0000      -0.638652       -17.3786
  53   2.0000      -0.616569       -16.7777
  54   2.0000      -0.600868       -16.3505
  55   2.0000      -0.598784       -16.2937
  56   2.0000      -0.595523       -16.2050
  57   2.0000      -0.578585       -15.7441
  58   2.0000      -0.569318       -15.4919
  59   2.0000      -0.557649       -15.1744
  60   2.0000      -0.554539       -15.0898
  61   2.0000      -0.552690       -15.0395
  62   2.0000      -0.548603       -14.9282
  63   2.0000      -0.547076       -14.8867
  64   2.0000      -0.541458       -14.7338
  65   2.0000      -0.538405       -14.6508
  66   2.0000      -0.538034       -14.6407
  67   2.0000      -0.527775       -14.3615
  68   2.0000      -0.522734       -14.2243
  69   2.0000      -0.506661       -13.7869
  70   2.0000      -0.501318       -13.6416
  71   2.0000      -0.498654       -13.5691
  72   2.0000      -0.495731       -13.4895
  73   2.0000      -0.476856       -12.9759
  74   2.0000      -0.468234       -12.7413
  75   2.0000      -0.466290       -12.6884
  76   2.0000      -0.464454       -12.6384
  77   2.0000      -0.432331       -11.7643
  78   2.0000      -0.383710       -10.4413
  79   2.0000      -0.358859        -9.7650
  80   2.0000      -0.341380        -9.2894
  81   2.0000      -0.338951        -9.2233
  82   2.0000      -0.328697        -8.9443
  83   0.0000      -0.041825        -1.1381
  84   0.0000       0.038851         1.0572
  85   0.0000       0.068423         1.8619
  86   0.0000       0.071960         1.9581
  87   0.0000       0.084761         2.3065

MULLIKEN ATOMIC CHARGES
-----------------------
   0 C :   -0.087716
   1 C :   -0.337222
   2 C :    0.201502
   3 C :    0.119960
   4 C :   -0.258204
   5 C :   -0.189727
   6 C :    0.324691
   7 C :    0.120702
   8 C :    0.200686
   9 C :   -0.337387
  10 H :    0.206937
  11 C :   -0.087705
  12 C :   -0.189090
  13 C :   -0.258666
  14 H :    0.201475
  15 H :    0.207098
  16 H :    0.215908
  17 H :    0.196233
  18 H :    0.201562
  19 H :    0.196297
  20 H :    0.215929
  21 N :    0.019421
  22 C :   -0.373436
  23 H :    0.197020
  24 H :    0.205265
  25 H :    0.197045
  26 C :   -0.146159
  27 C :    0.006353
  28 C :    0.027993
  29 C :   -0.306986
  30 C :   -0.294529
  31 C :    0.105879
  32 H :    0.177891
  33 H :    0.179787
  34 C :   -0.459854
  35 H :    0.172808
  36 H :    0.172791
  37 H :    0.171278
  38 C :   -0.460064
  39 H :    0.172603
  40 H :    0.172556
  41 H :    0.172000
  42 C :   -0.465537
  43 H :    0.164720
  44 H :    0.163356
  45 H :    0.164535
Sum of atomic charges:    1.0000000

LOEWDIN ATOMIC CHARGES
----------------------
   0 C :   -0.081024
   1 C :   -0.111857
   2 C :   -0.066309
   3 C :   -0.063334
   4 C :   -0.060213
   5 C :   -0.131514
   6 C :    0.060779
   7 C :   -0.063309
   8 C :   -0.066312
   9 C :   -0.111876
  10 H :    0.170044
  11 C :   -0.081016
  12 C :   -0.131514
  13 C :   -0.060206
  14 H :    0.169365
  15 H :    0.170049
  16 H :    0.177244
  17 H :    0.164270
  18 H :    0.169365
  19 H :    0.164270
  20 H :    0.177246
  21 N :    0.302908
  22 C :   -0.217864
  23 H :    0.140057
  24 H :    0.139162
  25 H :    0.140051
  26 C :   -0.072311
  27 C :   -0.133235
  28 C :   -0.133442
  29 C :   -0.106209
  30 C :   -0.101457
  31 C :   -0.170031
  32 H :    0.161431
  33 H :    0.162401
  34 C :   -0.242339
  35 H :    0.138481
  36 H :    0.138472
  37 H :    0.135770
  38 C :   -0.241902
  39 H :    0.138459
  40 H :    0.138468
  41 H :    0.135794
  42 C :   -0.252753
  43 H :    0.136475
  44 H :    0.133109
  45 H :    0.136358

  Mayer bond orders larger than 0.100000
B(  0-C ,  1-C ) :   1.5670 B(  0-C ,  5-C ) :   1.2244 B(  0-C , 14-H ) :   0.9629
B(  1-C ,  2-C ) :   1.2160 B(  1-C , 15-H ) :   0.9626 B(  2-C ,  3-C ) :   1.2698
B(  2-C , 21-N ) :   1.2776 B(  3-C ,  4-C ) :   1.1728 B(  3-C ,  6-C ) :   1.1858
B(  4-C ,  5-C ) :   1.5981 B(  4-C , 16-H ) :   0.9565 B(  5-C , 17-H ) :   0.9734
B(  6-C ,  7-C ) :   1.1851 B(  6-C , 26-C ) :   0.2913 B(  7-C ,  8-C ) :   1.2700
B(  7-C , 13-C ) :   1.1727 B(  8-C ,  9-C ) :   1.2157 B(  8-C , 21-N ) :   1.2777
B(  9-C , 10-H ) :   0.9634 B(  9-C , 11-C ) :   1.5659 B( 11-C , 12-C ) :   1.2238
B( 11-C , 18-H ) :   0.9629 B( 12-C , 13-C ) :   1.5985 B( 12-C , 19-H ) :   0.9734
B( 13-C , 20-H ) :   0.9564 B( 21-N , 22-C ) :   0.8743 B( 22-C , 23-H ) :   0.9507
B( 22-C , 24-H ) :   0.9554 B( 22-C , 25-H ) :   0.9508 B( 26-C , 27-C ) :   1.3676
B( 26-C , 28-C ) :   1.3455 B( 27-C , 29-C ) :   1.4759 B( 27-C , 38-C ) :   0.9377
B( 28-C , 30-C ) :   1.4869 B( 28-C , 34-C ) :   0.9418 B( 29-C , 31-C ) :   1.3861
B( 29-C , 32-H ) :   0.9594 B( 30-C , 31-C ) :   1.3463 B( 30-C , 33-H ) :   0.9731
B( 31-C , 42-C ) :   0.9246 B( 34-C , 35-H ) :   0.9724 B( 34-C , 36-H ) :   0.9724
B( 34-C , 37-H ) :   0.9798 B( 38-C , 39-H ) :   0.9711 B( 38-C , 40-H ) :   0.9709
B( 38-C , 41-H ) :   0.9827 B( 42-C , 43-H ) :   0.9677 B( 42-C , 44-H ) :   0.9907
B( 42-C , 45-H ) :   0.9682

MP2 TOTAL ENERGY:     -943.906764844 Eh

-----------------------------------------------------------------------------
         ABSORPTION SPECTRUM VIA TRANSITION ELECTRIC DIPOLE MOMENTS
-----------------------------------------------------------------------------
State   Energy    Wavelength  fosc         T2        TX        TY        TZ
        (cm-1)      (nm)                 (au**2)    (au)      (au)      (au)
-----------------------------------------------------------------------------
   1   25198.1    396.9   0.181954344   2.37723   1.54166  -0.00072   0.02238
   2   30008.7    333.2   0.370398443   4.06348  -0.00101  -2.01581  -0.00188
   3   27718.8    360.8   0.003116036   0.03701   0.00134  -0.19237  -0.00031
   4   34416.4    290.6   0.082869304   0.79269  -0.00031  -0.89033  -0.00093
   5   29855.7    334.9   0.000610716   0.00673  -0.00055  -0.08206  -0.00089
   6   40437.1    247.3   0.008153064   0.06638   0.12835  -0.00040  -0.22339
   7   41405.4    241.5   1.405011132  11.17117   0.00134   3.34233   0.00294
   8   47905.7    208.7   0.090122523   0.61933  -0.77843   0.00057  -0.11563
   9   46685.8    214.2   0.181691961   1.28123   1.12781  -0.00008  -0.09624
  10   47501.8    210.5   0.066990435   0.46428   0.67661  -0.00038   0.08045
  11   47071.3    212.4   0.200616269   1.40309  -1.18396   0.00067  -0.03632
  12   47454.1    210.7   0.012880997   0.08936  -0.00175   0.29893  -0.00125
  13   47189.7    211.9   0.215538980   1.50367  -0.30902  -0.00149   1.18667
  14   51071.9    195.8   0.870348206   5.61030   2.19072  -0.00338   0.90057
  15   49999.3    200.0   0.593416076   3.90725   1.49713   0.00140  -1.29068
  16   51451.3    194.4   0.007228432   0.04625  -0.19915   0.00073  -0.08119
  17   46666.8    214.3   0.025545551   0.18021  -0.01547  -0.00062   0.42423
  18   50695.9    197.3   0.002289020   0.01486  -0.00045  -0.12192  -0.00025
  19   54134.4    184.7   0.104957726   0.63829   0.00009   0.79893   0.00073
  20   48618.1    205.7   0.018945224   0.12829  -0.35816  -0.00072  -0.00234
  21   52280.4    191.3   0.000839178   0.00528  -0.00215  -0.07266  -0.00044
  22   51919.3    192.6   0.161147527   1.02181   1.00471  -0.00085   0.11120
  23   54720.3    182.7   0.078858759   0.47444   0.68600  -0.00014   0.06192
  24   53176.6    188.1   0.000175240   0.00108  -0.03141   0.00929  -0.00347
  25   60540.5    165.2   0.006153122   0.03346   0.11383   0.00052  -0.14319
  26   61531.3    162.5   0.000079441   0.00043   0.00119   0.02056   0.00097
  27   53977.5    185.3   0.028613486   0.17452  -0.01499   0.00186   0.41748
  28   61649.3    162.2   0.001115830   0.00596   0.00189   0.07572  -0.01486
  29   54626.4    183.1   0.000005039   0.00003   0.00037   0.00548  -0.00048
  30   54722.8    182.7   0.007536466   0.04534   0.00285  -0.00044  -0.21291

FINAL SINGLE POINT ENERGY      -941.815354739802

DIPOLE MOMENT
-------------
                                X             Y             Z
Electronic contribution:      9.94779      -0.00453      -0.28814
Nuclear contribution   :     -6.65023       0.00357       0.32967
                        -----------------------------------------
Total Dipole Moment    :      3.29756      -0.00097       0.04153
                        -----------------------------------------
Magnitude (a.u.)       :      3.29782
Magnitude (Debye)      :      8.38240

Rotational constants in cm-1:     0.012195     0.006904     0.005187
Rotational constants in MHz :   365.608197   206.963406   155.506693

                             ****ORCA TERMINATED NORMALLY****
TOTAL RUN TIME: 0 days 5 hours 30 minutes 36 seconds 116 msec
