                         Program Version 5.0.2 -  RELEASE  -
|  1> %maxcore 20000
|  2> %pal
|  3>  nprocs= 6
|  4> end
|  5> ! RI-SCS-PBE-QIDH   def2-TZVP def2/J def2-TZVP/C RIJCOSX CPCM TightSCF
|  6> %TDDFT
|  7>    NROOTS   30
|  8>    dcorr 4
|  9>    doscs true
| 10>    TDA      FALSE
| 11> END
| 12>
| 13> %CPCM
| 14>    SMD          TRUE
| 15>    SMDsolvent   "ACETONITRILE"
| 16> END
| 17>
| 18>
| 19> * xyz 1 1
| 20>  C 2.239128 3.596997 -0.115023
| 21>  C 2.928375 2.416072 -0.052316
| 22>  C 2.233183 1.193935 0.016949
| 23>  C 0.805868 1.208193 -0.009906
| 24>  C 0.138098 2.457766 -0.057358
| 25>  C 0.834050 3.627809 -0.104825
| 26>  C 0.092838 0.000763 0.003285
| 27>  C 0.804842 -1.207237 -0.012359
| 28>  C 2.232163 -1.194233 0.014781
| 29>  C 2.926372 -2.416814 -0.056186
| 30>  H 4.003413 -2.436763 -0.089302
| 31>  C 2.236167 -3.597055 -0.121143
| 32>  C 0.831057 -3.626705 -0.111628
| 33>  C 0.136058 -2.456167 -0.062347
| 34>  H 2.794316 4.523639 -0.180809
| 35>  H 4.005408 2.435194 -0.085919
| 36>  H -0.943757 2.455960 -0.065059
| 37>  H 0.313855 4.574865 -0.146579
| 38>  H 2.790606 -4.524051 -0.188234
| 39>  H 0.310086 -4.573251 -0.155265
| 40>  H -0.945794 -2.453453 -0.070402
| 41>  N 2.896462 -0.000520 0.097320
| 42>  C 4.351299 -0.001410 0.264811
| 43>  H 4.650968 -0.875021 0.828927
| 44>  H 4.850682 -0.000207 -0.702690
| 45>  H 4.651857 0.870145 0.831629
| 46>  C -1.390626 0.001439 0.011946
| 47>  C -2.092877 0.003720 -1.198942
| 48>  C -2.073194 -0.000431 1.237284
| 49>  C -3.484327 0.004209 -1.160953
| 50>  C -3.461998 0.000182 1.224283
| 51>  C -4.188971 0.002560 0.036601
| 52>  H -4.029501 0.005865 -2.098887
| 53>  H -3.990245 -0.001324 2.172185
| 54>  C -1.322498 -0.003413 2.530177
| 55>  H -0.678113 -0.880618 2.618349
| 56>  H -0.673684 0.870326 2.620050
| 57>  H -2.001593 -0.002585 3.379901
| 58>  C -1.367995 0.005246 -2.506411
| 59>  H -0.722058 0.879956 -2.607063
| 60>  H -0.724491 -0.870894 -2.610298
| 61>  H -2.063827 0.007749 -3.342484
| 62>  C -5.682651 0.004431 0.058057
| 63>  H -6.070855 0.885572 0.571514
| 64>  H -6.098883 -0.006793 -0.947398
| 65>  H -6.073219 -0.862687 0.592902
| 66> *
| 67>
| 68>
| 69>                          ****END OF INPUT****

CARTESIAN COORDINATES (ANGSTROEM)
---------------------------------
  C      2.239128    3.596997   -0.115023
  C      2.928375    2.416072   -0.052316
  C      2.233183    1.193935    0.016949
  C      0.805868    1.208193   -0.009906
  C      0.138098    2.457766   -0.057358
  C      0.834050    3.627809   -0.104825
  C      0.092838    0.000763    0.003285
  C      0.804842   -1.207237   -0.012359
  C      2.232163   -1.194233    0.014781
  C      2.926372   -2.416814   -0.056186
  H      4.003413   -2.436763   -0.089302
  C      2.236167   -3.597055   -0.121143
  C      0.831057   -3.626705   -0.111628
  C      0.136058   -2.456167   -0.062347
  H      2.794316    4.523639   -0.180809
  H      4.005408    2.435194   -0.085919
  H     -0.943757    2.455960   -0.065059
  H      0.313855    4.574865   -0.146579
  H      2.790606   -4.524051   -0.188234
  H      0.310086   -4.573251   -0.155265
  H     -0.945794   -2.453453   -0.070402
  N      2.896462   -0.000520    0.097320
  C      4.351299   -0.001410    0.264811
  H      4.650968   -0.875021    0.828927
  H      4.850682   -0.000207   -0.702690
  H      4.651857    0.870145    0.831629
  C     -1.390626    0.001439    0.011946
  C     -2.092877    0.003720   -1.198942
  C     -2.073194   -0.000431    1.237284
  C     -3.484327    0.004209   -1.160953
  C     -3.461998    0.000182    1.224283
  C     -4.188971    0.002560    0.036601
  H     -4.029501    0.005865   -2.098887
  H     -3.990245   -0.001324    2.172185
  C     -1.322498   -0.003413    2.530177
  H     -0.678113   -0.880618    2.618349
  H     -0.673684    0.870326    2.620050
  H     -2.001593   -0.002585    3.379901
  C     -1.367995    0.005246   -2.506411
  H     -0.722058    0.879956   -2.607063
  H     -0.724491   -0.870894   -2.610298
  H     -2.063827    0.007749   -3.342484
  C     -5.682651    0.004431    0.058057
  H     -6.070855    0.885572    0.571514
  H     -6.098883   -0.006793   -0.947398
  H     -6.073219   -0.862687    0.592902

 Total Charge           Charge          ....    1
 Multiplicity           Mult            ....    1
 Number of Electrons    NEL             ....  166
 Basis Dimension        Dim             ....  876

ORBITAL ENERGIES
----------------

  NO   OCC          E(Eh)            E(eV)
   0   2.0000     -15.185873      -413.2286
   1   2.0000     -10.915370      -297.0223
   2   2.0000     -10.915349      -297.0217
   3   2.0000     -10.897728      -296.5422
   4   2.0000     -10.864158      -295.6288
   5   2.0000     -10.864137      -295.6282
   6   2.0000     -10.856792      -295.4283
   7   2.0000     -10.851914      -295.2956
   8   2.0000     -10.851913      -295.2956
   9   2.0000     -10.846940      -295.1602
  10   2.0000     -10.846937      -295.1602
  11   2.0000     -10.840496      -294.9849
  12   2.0000     -10.840378      -294.9817
  13   2.0000     -10.840048      -294.9727
  14   2.0000     -10.840041      -294.9725
  15   2.0000     -10.835872      -294.8591
  16   2.0000     -10.835205      -294.8409
  17   2.0000     -10.835204      -294.8409
  18   2.0000     -10.833555      -294.7960
  19   2.0000     -10.813773      -294.2577
  20   2.0000     -10.813435      -294.2485
  21   2.0000     -10.805780      -294.0402
  22   2.0000     -10.805739      -294.0391
  23   2.0000     -10.802768      -293.9583
  24   2.0000      -1.237549       -33.6754
  25   2.0000      -1.099531       -29.9197
  26   2.0000      -1.085353       -29.5340
  27   2.0000      -1.065693       -28.9990
  28   2.0000      -1.024645       -27.8820
  29   2.0000      -0.972161       -26.4538
  30   2.0000      -0.971781       -26.4435
  31   2.0000      -0.970672       -26.4133
  32   2.0000      -0.953030       -25.9333
  33   2.0000      -0.937903       -25.5217
  34   2.0000      -0.905549       -24.6412
  35   2.0000      -0.868946       -23.6452
  36   2.0000      -0.861387       -23.4395
  37   2.0000      -0.845993       -23.0206
  38   2.0000      -0.832179       -22.6447
  39   2.0000      -0.820761       -22.3340
  40   2.0000      -0.766418       -20.8553
  41   2.0000      -0.763905       -20.7869
  42   2.0000      -0.722789       -19.6681
  43   2.0000      -0.719584       -19.5809
  44   2.0000      -0.712915       -19.3994
  45   2.0000      -0.700587       -19.0639
  46   2.0000      -0.664010       -18.0686
  47   2.0000      -0.626436       -17.0462
  48   2.0000      -0.622979       -16.9521
  49   2.0000      -0.618892       -16.8409
  50   2.0000      -0.608773       -16.5655
  51   2.0000      -0.606749       -16.5105
  52   2.0000      -0.603195       -16.4138
  53   2.0000      -0.581226       -15.8160
  54   2.0000      -0.566116       -15.4048
  55   2.0000      -0.564399       -15.3581
  56   2.0000      -0.560651       -15.2561
  57   2.0000      -0.543968       -14.8021
  58   2.0000      -0.534272       -14.5383
  59   2.0000      -0.522742       -14.2245
  60   2.0000      -0.519891       -14.1470
  61   2.0000      -0.518270       -14.1028
  62   2.0000      -0.514644       -14.0042
  63   2.0000      -0.512640       -13.9496
  64   2.0000      -0.508113       -13.8264
  65   2.0000      -0.504820       -13.7368
  66   2.0000      -0.504231       -13.7208
  67   2.0000      -0.494643       -13.4599
  68   2.0000      -0.487554       -13.2670
  69   2.0000      -0.473420       -12.8824
  70   2.0000      -0.468290       -12.7428
  71   2.0000      -0.465543       -12.6681
  72   2.0000      -0.462505       -12.5854
  73   2.0000      -0.443439       -12.0666
  74   2.0000      -0.434692       -11.8286
  75   2.0000      -0.432265       -11.7625
  76   2.0000      -0.431155       -11.7323
  77   2.0000      -0.399726       -10.8771
  78   2.0000      -0.352142        -9.5823
  79   2.0000      -0.329945        -8.9783
  80   2.0000      -0.310745        -8.4558
  81   2.0000      -0.308282        -8.3888
  82   2.0000      -0.299570        -8.1517
  83   0.0000      -0.059654        -1.6233
  84   0.0000       0.019913         0.5418
  85   0.0000       0.048515         1.3202
  86   0.0000       0.052314         1.4235
  87   0.0000       0.064697         1.7605

MULLIKEN ATOMIC CHARGES
-----------------------
   0 C :   -0.060063
   1 C :   -0.344533
   2 C :    0.175061
   3 C :    0.113008
   4 C :   -0.252154
   5 C :   -0.180475
   6 C :    0.404906
   7 C :    0.113521
   8 C :    0.174312
   9 C :   -0.344636
  10 H :    0.186501
  11 C :   -0.060076
  12 C :   -0.179944
  13 C :   -0.252501
  14 H :    0.187998
  15 H :    0.186637
  16 H :    0.195109
  17 H :    0.181769
  18 H :    0.188080
  19 H :    0.181824
  20 H :    0.195129
  21 N :    0.080506
  22 C :   -0.340607
  23 H :    0.187893
  24 H :    0.187699
  25 H :    0.187902
  26 C :   -0.085588
  27 C :    0.021634
  28 C :    0.040617
  29 C :   -0.332124
  30 C :   -0.326683
  31 C :    0.145082
  32 H :    0.163929
  33 H :    0.164410
  34 C :   -0.441668
  35 H :    0.159504
  36 H :    0.159508
  37 H :    0.162154
  38 C :   -0.442211
  39 H :    0.159440
  40 H :    0.159384
  41 H :    0.162704
  42 C :   -0.442092
  43 H :    0.152378
  44 H :    0.154463
  45 H :    0.152293
Sum of atomic charges:    1.0000000

LOEWDIN ATOMIC CHARGES
----------------------
   0 C :   -0.080201
   1 C :   -0.108733
   2 C :   -0.066428
   3 C :   -0.060859
   4 C :   -0.058004
   5 C :   -0.128875
   6 C :    0.060646
   7 C :   -0.060836
   8 C :   -0.066431
   9 C :   -0.108752
  10 H :    0.167785
  11 C :   -0.080194
  12 C :   -0.128876
  13 C :   -0.057995
  14 H :    0.166509
  15 H :    0.167789
  16 H :    0.174816
  17 H :    0.161619
  18 H :    0.166509
  19 H :    0.161618
  20 H :    0.174818
  21 N :    0.303820
  22 C :   -0.212527
  23 H :    0.138153
  24 H :    0.136649
  25 H :    0.138146
  26 C :   -0.069724
  27 C :   -0.131477
  28 C :   -0.131701
  29 C :   -0.103883
  30 C :   -0.099180
  31 C :   -0.168397
  32 H :    0.158944
  33 H :    0.159784
  34 C :   -0.238469
  35 H :    0.136283
  36 H :    0.136275
  37 H :    0.133192
  38 C :   -0.238097
  39 H :    0.136294
  40 H :    0.136300
  41 H :    0.133203
  42 C :   -0.248218
  43 H :    0.133988
  44 H :    0.130842
  45 H :    0.133881

  Mayer bond orders larger than 0.100000
B(  0-C ,  1-C ) :   1.5510 B(  0-C ,  5-C ) :   1.2271 B(  0-C , 14-H ) :   0.9648
B(  1-C ,  2-C ) :   1.2314 B(  1-C , 15-H ) :   0.9793 B(  2-C ,  3-C ) :   1.2814
B(  2-C , 21-N ) :   1.2791 B(  3-C ,  4-C ) :   1.1784 B(  3-C ,  6-C ) :   1.1680
B(  4-C ,  5-C ) :   1.5929 B(  4-C , 16-H ) :   0.9679 B(  5-C , 17-H ) :   0.9790
B(  6-C ,  7-C ) :   1.1669 B(  6-C , 26-C ) :   0.2414 B(  7-C ,  8-C ) :   1.2816
B(  7-C , 13-C ) :   1.1784 B(  8-C ,  9-C ) :   1.2313 B(  8-C , 21-N ) :   1.2791
B(  9-C , 10-H ) :   0.9800 B(  9-C , 11-C ) :   1.5501 B( 11-C , 12-C ) :   1.2266
B( 11-C , 18-H ) :   0.9648 B( 12-C , 13-C ) :   1.5933 B( 12-C , 19-H ) :   0.9790
B( 13-C , 20-H ) :   0.9678 B( 21-N , 22-C ) :   0.8713 B( 22-C , 23-H ) :   0.9529
B( 22-C , 24-H ) :   0.9588 B( 22-C , 25-H ) :   0.9530 B( 26-C , 27-C ) :   1.3551
B( 26-C , 28-C ) :   1.3340 B( 27-C , 29-C ) :   1.4649 B( 27-C , 38-C ) :   0.9598
B( 28-C , 30-C ) :   1.4778 B( 28-C , 34-C ) :   0.9633 B( 29-C , 31-C ) :   1.3780
B( 29-C , 32-H ) :   0.9783 B( 30-C , 31-C ) :   1.3372 B( 30-C , 33-H ) :   0.9926
B( 31-C , 42-C ) :   0.9370 B( 34-C , 35-H ) :   0.9717 B( 34-C , 36-H ) :   0.9718
B( 34-C , 37-H ) :   0.9827 B( 38-C , 39-H ) :   0.9707 B( 38-C , 40-H ) :   0.9705
B( 38-C , 41-H ) :   0.9850 B( 42-C , 43-H ) :   0.9696 B( 42-C , 44-H ) :   0.9916
B( 42-C , 45-H ) :   0.9700

MP2 TOTAL ENERGY:     -943.390553916 Eh

-----------------------------------------------------------------------------
         ABSORPTION SPECTRUM VIA TRANSITION ELECTRIC DIPOLE MOMENTS
-----------------------------------------------------------------------------
State   Energy    Wavelength  fosc         T2        TX        TY        TZ
        (cm-1)      (nm)                 (au**2)    (au)      (au)      (au)
-----------------------------------------------------------------------------
   1   24362.1    410.5   0.165786028   2.24031   1.49661  -0.00070   0.02166
   2   26794.5    373.2   0.007848199   0.09643   0.00135   0.31052   0.00018
   3   28712.0    348.3   0.348145804   3.99185  -0.00066  -1.99796  -0.00190
   4   28791.8    347.3   0.000566314   0.00648   0.00041  -0.08047   0.00053
   5   32959.2    303.4   0.054306177   0.54244  -0.00032  -0.73650  -0.00088
   6   38751.1    258.1   0.007374787   0.06265   0.13156  -0.00138  -0.21294
   7   40388.7    247.6   1.380258105  11.25060   0.00146   3.35419   0.00293
   8   46612.7    214.5   0.112073383   0.79154   0.88282  -0.00087   0.11032
   9   44771.9    223.4   0.140049100   1.02979  -1.00857   0.00003   0.11215
  10   46679.5    214.2   0.091501557   0.64532   0.80155  -0.00030   0.05328
  11   46351.4    215.7   0.028189127   0.20021   0.00257   0.44745  -0.00031
  12   45434.7    220.1   0.144854342   1.04959   1.02370  -0.00206   0.04021
  13   46396.7    215.5   0.113130800   0.80273   0.24342   0.00091  -0.86225
  14   45519.0    219.7   0.094659211   0.68461  -0.07417   0.00129  -0.82408
  15   50653.7    197.4   1.027437789   6.67759   2.57892  -0.00243   0.16352
  16   49790.7    200.8   0.404032662   2.67143   0.36635   0.00300  -1.59286
  17   49522.1    201.9   0.002240303   0.01489  -0.05191  -0.00028  -0.11045
  18   48485.3    206.2   0.085897466   0.58324  -0.76369   0.00052  -0.00366
  19   50792.6    196.9   0.001752315   0.01136  -0.00046  -0.10657  -0.00024
  20   52743.9    189.6   0.092885616   0.57976   0.00037   0.76142   0.00099
  21   48554.7    206.0   0.062899251   0.42647  -0.64602   0.00071  -0.09553
  22   51560.1    193.9   0.000567609   0.00362   0.00724   0.05976   0.00028
  23   52074.9    192.0   0.001817119   0.01149   0.00246  -0.10715  -0.00005
  24   54506.8    183.5   0.120686751   0.72893   0.85310  -0.00031  -0.03401
  25   51946.5    192.5   0.031435347   0.19922  -0.25752   0.00137  -0.36456
  26   52653.6    189.9   0.000151182   0.00095   0.00009  -0.03074   0.00040
  27   54678.0    182.9   0.002715417   0.01635   0.00241   0.12783  -0.00136
  28   60462.8    165.4   0.004771003   0.02598  -0.11549   0.00153   0.11241
  29   53150.7    188.1   0.009833910   0.06091   0.24191  -0.00078   0.04887
  30   54589.1    183.2   0.021109204   0.12730   0.01481   0.00046  -0.35649

FINAL SINGLE POINT ENERGY      -941.856202573682

DIPOLE MOMENT
-------------
                                X             Y             Z
Electronic contribution:      9.95804      -0.00458      -0.28809
Nuclear contribution   :     -6.65023       0.00357       0.32967
                        -----------------------------------------
Total Dipole Moment    :      3.30781      -0.00101       0.04159
                        -----------------------------------------
Magnitude (a.u.)       :      3.30807
Magnitude (Debye)      :      8.40846

Rotational constants in cm-1:     0.012195     0.006904     0.005187
Rotational constants in MHz :   365.608197   206.963406   155.506693

                             ****ORCA TERMINATED NORMALLY****
TOTAL RUN TIME: 0 days 3 hours 12 minutes 46 seconds 254 msec
