                         Program Version 5.0.2 -  RELEASE  -
|  1> %maxcore 19200
|  2> %pal
|  3>  nprocs= 8
|  4> end
|  5> ! RI-B2PLYP D3BJ def2-TZVP def2/J def2-TZVP/C RIJCOSX CPCM TightSCF
|  6> %TDDFT DCORR 4
|  7>    NROOTS   30
|  8>    TDA      FALSE
|  9> END
| 10>
| 11> %CPCM
| 12>    SMD          TRUE
| 13>    SMDsolvent   "ACETONITRILE"
| 14> END
| 15>
| 16>
| 17> * xyz 1 1
| 18>  C 2.239128 3.596997 -0.115023
| 19>  C 2.928375 2.416072 -0.052316
| 20>  C 2.233183 1.193935 0.016949
| 21>  C 0.805868 1.208193 -0.009906
| 22>  C 0.138098 2.457766 -0.057358
| 23>  C 0.834050 3.627809 -0.104825
| 24>  C 0.092838 0.000763 0.003285
| 25>  C 0.804842 -1.207237 -0.012359
| 26>  C 2.232163 -1.194233 0.014781
| 27>  C 2.926372 -2.416814 -0.056186
| 28>  H 4.003413 -2.436763 -0.089302
| 29>  C 2.236167 -3.597055 -0.121143
| 30>  C 0.831057 -3.626705 -0.111628
| 31>  C 0.136058 -2.456167 -0.062347
| 32>  H 2.794316 4.523639 -0.180809
| 33>  H 4.005408 2.435194 -0.085919
| 34>  H -0.943757 2.455960 -0.065059
| 35>  H 0.313855 4.574865 -0.146579
| 36>  H 2.790606 -4.524051 -0.188234
| 37>  H 0.310086 -4.573251 -0.155265
| 38>  H -0.945794 -2.453453 -0.070402
| 39>  N 2.896462 -0.000520 0.097320
| 40>  C 4.351299 -0.001410 0.264811
| 41>  H 4.650968 -0.875021 0.828927
| 42>  H 4.850682 -0.000207 -0.702690
| 43>  H 4.651857 0.870145 0.831629
| 44>  C -1.390626 0.001439 0.011946
| 45>  C -2.092877 0.003720 -1.198942
| 46>  C -2.073194 -0.000431 1.237284
| 47>  C -3.484327 0.004209 -1.160953
| 48>  C -3.461998 0.000182 1.224283
| 49>  C -4.188971 0.002560 0.036601
| 50>  H -4.029501 0.005865 -2.098887
| 51>  H -3.990245 -0.001324 2.172185
| 52>  C -1.322498 -0.003413 2.530177
| 53>  H -0.678113 -0.880618 2.618349
| 54>  H -0.673684 0.870326 2.620050
| 55>  H -2.001593 -0.002585 3.379901
| 56>  C -1.367995 0.005246 -2.506411
| 57>  H -0.722058 0.879956 -2.607063
| 58>  H -0.724491 -0.870894 -2.610298
| 59>  H -2.063827 0.007749 -3.342484
| 60>  C -5.682651 0.004431 0.058057
| 61>  H -6.070855 0.885572 0.571514
| 62>  H -6.098883 -0.006793 -0.947398
| 63>  H -6.073219 -0.862687 0.592902
| 64> *
| 65>
| 66>
| 67>                          ****END OF INPUT****

CARTESIAN COORDINATES (ANGSTROEM)
---------------------------------
  C      2.239128    3.596997   -0.115023
  C      2.928375    2.416072   -0.052316
  C      2.233183    1.193935    0.016949
  C      0.805868    1.208193   -0.009906
  C      0.138098    2.457766   -0.057358
  C      0.834050    3.627809   -0.104825
  C      0.092838    0.000763    0.003285
  C      0.804842   -1.207237   -0.012359
  C      2.232163   -1.194233    0.014781
  C      2.926372   -2.416814   -0.056186
  H      4.003413   -2.436763   -0.089302
  C      2.236167   -3.597055   -0.121143
  C      0.831057   -3.626705   -0.111628
  C      0.136058   -2.456167   -0.062347
  H      2.794316    4.523639   -0.180809
  H      4.005408    2.435194   -0.085919
  H     -0.943757    2.455960   -0.065059
  H      0.313855    4.574865   -0.146579
  H      2.790606   -4.524051   -0.188234
  H      0.310086   -4.573251   -0.155265
  H     -0.945794   -2.453453   -0.070402
  N      2.896462   -0.000520    0.097320
  C      4.351299   -0.001410    0.264811
  H      4.650968   -0.875021    0.828927
  H      4.850682   -0.000207   -0.702690
  H      4.651857    0.870145    0.831629
  C     -1.390626    0.001439    0.011946
  C     -2.092877    0.003720   -1.198942
  C     -2.073194   -0.000431    1.237284
  C     -3.484327    0.004209   -1.160953
  C     -3.461998    0.000182    1.224283
  C     -4.188971    0.002560    0.036601
  H     -4.029501    0.005865   -2.098887
  H     -3.990245   -0.001324    2.172185
  C     -1.322498   -0.003413    2.530177
  H     -0.678113   -0.880618    2.618349
  H     -0.673684    0.870326    2.620050
  H     -2.001593   -0.002585    3.379901
  C     -1.367995    0.005246   -2.506411
  H     -0.722058    0.879956   -2.607063
  H     -0.724491   -0.870894   -2.610298
  H     -2.063827    0.007749   -3.342484
  C     -5.682651    0.004431    0.058057
  H     -6.070855    0.885572    0.571514
  H     -6.098883   -0.006793   -0.947398
  H     -6.073219   -0.862687    0.592902

 Total Charge           Charge          ....    1
 Multiplicity           Mult            ....    1
 Number of Electrons    NEL             ....  166
 Basis Dimension        Dim             ....  876

ORBITAL ENERGIES
----------------

  NO   OCC          E(Eh)            E(eV)
   0   2.0000     -14.938477      -406.4966
   1   2.0000     -10.706441      -291.3371
   2   2.0000     -10.706420      -291.3365
   3   2.0000     -10.686595      -290.7970
   4   2.0000     -10.657846      -290.0147
   5   2.0000     -10.657827      -290.0142
   6   2.0000     -10.654044      -289.9113
   7   2.0000     -10.644985      -289.6648
   8   2.0000     -10.644984      -289.6647
   9   2.0000     -10.640162      -289.5335
  10   2.0000     -10.640159      -289.5334
  11   2.0000     -10.635236      -289.3995
  12   2.0000     -10.635229      -289.3993
  13   2.0000     -10.632420      -289.3229
  14   2.0000     -10.632265      -289.3186
  15   2.0000     -10.630530      -289.2714
  16   2.0000     -10.630528      -289.2714
  17   2.0000     -10.628411      -289.2138
  18   2.0000     -10.626021      -289.1487
  19   2.0000     -10.608216      -288.6642
  20   2.0000     -10.607882      -288.6551
  21   2.0000     -10.602644      -288.5126
  22   2.0000     -10.602572      -288.5107
  23   2.0000     -10.600079      -288.4428
  24   2.0000      -1.159818       -31.5603
  25   2.0000      -1.025796       -27.9133
  26   2.0000      -1.012887       -27.5621
  27   2.0000      -0.993178       -27.0257
  28   2.0000      -0.954793       -25.9812
  29   2.0000      -0.905557       -24.6415
  30   2.0000      -0.904289       -24.6070
  31   2.0000      -0.903324       -24.5807
  32   2.0000      -0.887173       -24.1412
  33   2.0000      -0.873222       -23.7616
  34   2.0000      -0.843269       -22.9465
  35   2.0000      -0.807423       -21.9711
  36   2.0000      -0.800955       -21.7951
  37   2.0000      -0.785172       -21.3656
  38   2.0000      -0.773104       -21.0372
  39   2.0000      -0.763633       -20.7795
  40   2.0000      -0.711749       -19.3677
  41   2.0000      -0.709191       -19.2981
  42   2.0000      -0.669535       -18.2190
  43   2.0000      -0.667012       -18.1503
  44   2.0000      -0.662881       -18.0379
  45   2.0000      -0.649210       -17.6659
  46   2.0000      -0.616382       -16.7726
  47   2.0000      -0.580131       -15.7862
  48   2.0000      -0.577039       -15.7020
  49   2.0000      -0.572745       -15.5852
  50   2.0000      -0.563569       -15.3355
  51   2.0000      -0.561646       -15.2832
  52   2.0000      -0.558535       -15.1985
  53   2.0000      -0.538169       -14.6443
  54   2.0000      -0.523639       -14.2489
  55   2.0000      -0.521857       -14.2005
  56   2.0000      -0.518246       -14.1022
  57   2.0000      -0.501417       -13.6442
  58   2.0000      -0.492958       -13.4141
  59   2.0000      -0.482717       -13.1354
  60   2.0000      -0.480022       -13.0621
  61   2.0000      -0.477381       -12.9902
  62   2.0000      -0.475141       -12.9292
  63   2.0000      -0.472163       -12.8482
  64   2.0000      -0.469268       -12.7694
  65   2.0000      -0.465248       -12.6600
  66   2.0000      -0.464486       -12.6393
  67   2.0000      -0.455393       -12.3919
  68   2.0000      -0.449082       -12.2202
  69   2.0000      -0.435845       -11.8599
  70   2.0000      -0.430845       -11.7239
  71   2.0000      -0.427898       -11.6437
  72   2.0000      -0.425335       -11.5740
  73   2.0000      -0.407170       -11.0796
  74   2.0000      -0.398773       -10.8512
  75   2.0000      -0.395041       -10.7496
  76   2.0000      -0.395028       -10.7493
  77   2.0000      -0.367338        -9.9958
  78   2.0000      -0.323151        -8.7934
  79   2.0000      -0.304361        -8.2821
  80   2.0000      -0.282667        -7.6918
  81   2.0000      -0.279825        -7.6144
  82   2.0000      -0.273945        -7.4544
  83   0.0000      -0.071627        -1.9491
  84   0.0000       0.004922         0.1339
  85   0.0000       0.030766         0.8372
  86   0.0000       0.036323         0.9884
  87   0.0000       0.047459         1.2914

MULLIKEN ATOMIC CHARGES
-----------------------
   0 C :   -0.076761
   1 C :   -0.278233
   2 C :    0.150826
   3 C :    0.119302
   4 C :   -0.230956
   5 C :   -0.159156
   6 C :    0.389283
   7 C :    0.119697
   8 C :    0.150264
   9 C :   -0.278374
  10 H :    0.176272
  11 C :   -0.076727
  12 C :   -0.158736
  13 C :   -0.231209
  14 H :    0.176243
  15 H :    0.176395
  16 H :    0.182824
  17 H :    0.169622
  18 H :    0.176315
  19 H :    0.169663
  20 H :    0.182833
  21 N :    0.023253
  22 C :   -0.302930
  23 H :    0.174971
  24 H :    0.177299
  25 H :    0.174986
  26 C :   -0.082948
  27 C :    0.034988
  28 C :    0.050919
  29 C :   -0.302587
  30 C :   -0.292212
  31 C :    0.150784
  32 H :    0.145182
  33 H :    0.145536
  34 C :   -0.416668
  35 H :    0.147391
  36 H :    0.147406
  37 H :    0.143682
  38 C :   -0.418398
  39 H :    0.147592
  40 H :    0.147539
  41 H :    0.144172
  42 C :   -0.402323
  43 H :    0.137616
  44 H :    0.137853
  45 H :    0.137510
Sum of atomic charges:    1.0000000

LOEWDIN ATOMIC CHARGES
----------------------
   0 C :   -0.081910
   1 C :   -0.103645
   2 C :   -0.067292
   3 C :   -0.054763
   4 C :   -0.057223
   5 C :   -0.124364
   6 C :    0.058713
   7 C :   -0.054740
   8 C :   -0.067295
   9 C :   -0.103662
  10 H :    0.164910
  11 C :   -0.081903
  12 C :   -0.124365
  13 C :   -0.057212
  14 H :    0.162979
  15 H :    0.164914
  16 H :    0.171575
  17 H :    0.158510
  18 H :    0.162979
  19 H :    0.158509
  20 H :    0.171576
  21 N :    0.308326
  22 C :   -0.207673
  23 H :    0.135976
  24 H :    0.134355
  25 H :    0.135968
  26 C :   -0.064328
  27 C :   -0.128355
  28 C :   -0.128547
  29 C :   -0.101612
  30 C :   -0.096785
  31 C :   -0.165047
  32 H :    0.155198
  33 H :    0.156041
  34 C :   -0.234167
  35 H :    0.133191
  36 H :    0.133185
  37 H :    0.129924
  38 C :   -0.233876
  39 H :    0.133213
  40 H :    0.133217
  41 H :    0.129924
  42 C :   -0.243643
  43 H :    0.130735
  44 H :    0.127859
  45 H :    0.130634

  Mayer bond orders larger than 0.100000
B(  0-C ,  1-C ) :   1.5405 B(  0-C ,  5-C ) :   1.2326 B(  0-C , 14-H ) :   0.9690
B(  1-C ,  2-C ) :   1.2307 B(  1-C , 15-H ) :   0.9779 B(  2-C ,  3-C ) :   1.2749
B(  2-C , 21-N ) :   1.2587 B(  3-C ,  4-C ) :   1.1854 B(  3-C ,  6-C ) :   1.1618
B(  4-C ,  5-C ) :   1.5793 B(  4-C , 16-H ) :   0.9669 B(  5-C , 17-H ) :   0.9817
B(  6-C ,  7-C ) :   1.1614 B(  6-C , 26-C ) :   0.3061 B(  7-C ,  8-C ) :   1.2750
B(  7-C , 13-C ) :   1.1853 B(  8-C ,  9-C ) :   1.2305 B(  8-C , 21-N ) :   1.2588
B(  9-C , 10-H ) :   0.9785 B(  9-C , 11-C ) :   1.5398 B( 11-C , 12-C ) :   1.2322
B( 11-C , 18-H ) :   0.9690 B( 12-C , 13-C ) :   1.5795 B( 12-C , 19-H ) :   0.9817
B( 13-C , 20-H ) :   0.9669 B( 21-N , 22-C ) :   0.8760 B( 22-C , 23-H ) :   0.9583
B( 22-C , 24-H ) :   0.9594 B( 22-C , 25-H ) :   0.9583 B( 26-C , 27-C ) :   1.3291
B( 26-C , 28-C ) :   1.3064 B( 27-C , 29-C ) :   1.4437 B( 27-C , 38-C ) :   0.9282
B( 28-C , 30-C ) :   1.4617 B( 28-C , 34-C ) :   0.9302 B( 29-C , 31-C ) :   1.3779
B( 29-C , 32-H ) :   0.9863 B( 30-C , 31-C ) :   1.3344 B( 30-C , 33-H ) :   1.0000
B( 31-C , 42-C ) :   0.9191 B( 34-C , 35-H ) :   0.9764 B( 34-C , 36-H ) :   0.9766
B( 34-C , 37-H ) :   0.9901 B( 38-C , 39-H ) :   0.9757 B( 38-C , 40-H ) :   0.9755
B( 38-C , 41-H ) :   0.9920 B( 42-C , 43-H ) :   0.9705 B( 42-C , 44-H ) :   0.9977
B( 42-C , 45-H ) :   0.9712

MP2 TOTAL ENERGY:     -943.832243875 Eh

-----------------------------------------------------------------------------
         ABSORPTION SPECTRUM VIA TRANSITION ELECTRIC DIPOLE MOMENTS
-----------------------------------------------------------------------------
State   Energy    Wavelength  fosc         T2        TX        TY        TZ
        (cm-1)      (nm)                 (au**2)    (au)      (au)      (au)
-----------------------------------------------------------------------------
   1   23988.1    416.9   0.148170303   2.03349   1.42586  -0.00062   0.02039
   2   24077.5    415.3   0.000458438   0.00627   0.00072   0.07917  -0.00004
   3   26041.2    384.0   0.038205283   0.48299   0.00054   0.69497   0.00108
   4   29298.5    341.3   0.308318132   3.46441  -0.00061  -1.86129  -0.00159
   5   32128.6    311.2   0.023467432   0.24046   0.00020   0.49037   0.00061
   6   39591.2    252.6   1.351098706  11.23477  -0.00131  -3.35183  -0.00326
   7   40133.0    249.2   0.006002134   0.04924   0.13838   0.00400  -0.17341
   8   43791.0    228.4   0.189754326   1.42654  -1.19303   0.00106  -0.05665
   9   44755.9    223.4   0.010708821   0.07877  -0.21305  -0.00058   0.18270
  10   40990.3    244.0   0.013730383   0.11027  -0.15572   0.00044  -0.29330
  11   44829.1    223.1   0.050398717   0.37011   0.00309   0.60836   0.00026
  12   46619.9    214.5   0.196854863   1.39011  -1.17638   0.00188   0.07899
  13   44631.8    224.1   0.058246656   0.42964  -0.63116   0.00083  -0.17685
  14   44053.5    227.0   0.037603365   0.28101  -0.39561  -0.00003   0.35285
  15   42755.9    233.9   0.013226521   0.10184   0.30529  -0.00119   0.09295
  16   49233.7    203.1   0.793342777   5.30486  -2.29246   0.00122   0.22246
  17   49564.4    201.8   0.480085216   3.18878  -0.24061   0.00360  -1.76943
  18   49855.2    200.6   0.229524928   1.51564   1.23111  -0.00125  -0.00037
  19   47765.8    209.4   0.001034063   0.00713   0.00214   0.08439   0.00038
  20   47629.8    210.0   0.000155716   0.00108  -0.00245   0.03267  -0.00177
  21   46592.0    214.6   0.015676064   0.11076  -0.29423   0.00026  -0.15554
  22   47498.7    210.5   0.085698974   0.59398   0.28757   0.00071  -0.71504
  23   47760.7    209.4   0.000131899   0.00091  -0.00103  -0.03013   0.00012
  24   52028.9    192.2   0.079392895   0.50236   0.00012  -0.70877  -0.00043
  25   49196.8    203.3   0.003066587   0.02052   0.00698   0.14308   0.00080
  26   48614.0    205.7   0.042377339   0.28698   0.52775  -0.00238   0.09191
  27   50428.2    198.3   0.003903091   0.02548   0.00182   0.15962   0.00034
  28   49099.7    203.7   0.019206699   0.12878   0.34452  -0.00060   0.10043
  29   49108.8    203.6   0.000240566   0.00161  -0.00136  -0.04012   0.00091
  30   52243.3    191.4   0.094994045   0.59861   0.76880  -0.00097   0.08688

Dispersion correction           -0.053815382
FINAL SINGLE POINT ENERGY      -942.522957035654

DIPOLE MOMENT
-------------
                                X             Y             Z
Electronic contribution:     10.00556      -0.00464      -0.28567
Nuclear contribution   :     -6.65023       0.00357       0.32967
                        -----------------------------------------
Total Dipole Moment    :      3.35533      -0.00107       0.04400
                        -----------------------------------------
Magnitude (a.u.)       :      3.35562
Magnitude (Debye)      :      8.52930

Rotational constants in cm-1:     0.012195     0.006904     0.005187
Rotational constants in MHz :   365.608197   206.963406   155.506693

                             ****ORCA TERMINATED NORMALLY****
TOTAL RUN TIME: 0 days 0 hours 47 minutes 31 seconds 491 msec
