                         Program Version 5.0.2 -  RELEASE  -
|  1> %maxcore 20000
|  2> %pal
|  3>  nprocs= 4
|  4> end
|  5> ! RI-B2GP-PLYP   def2-TZVP def2/J def2-TZVP/C RIJCOSX CPCM TightSCF
|  6> %TDDFT
|  7>    NROOTS   30
|  8>    dcorr 4
|  9>    TDA      FALSE
| 10> END
| 11>
| 12> %CPCM
| 13>    SMD          TRUE
| 14>    SMDsolvent   "ACETONITRILE"
| 15> END
| 16>
| 17>
| 18> * xyz 1 1
| 19>  C 2.239128 3.596997 -0.115023
| 20>  C 2.928375 2.416072 -0.052316
| 21>  C 2.233183 1.193935 0.016949
| 22>  C 0.805868 1.208193 -0.009906
| 23>  C 0.138098 2.457766 -0.057358
| 24>  C 0.834050 3.627809 -0.104825
| 25>  C 0.092838 0.000763 0.003285
| 26>  C 0.804842 -1.207237 -0.012359
| 27>  C 2.232163 -1.194233 0.014781
| 28>  C 2.926372 -2.416814 -0.056186
| 29>  H 4.003413 -2.436763 -0.089302
| 30>  C 2.236167 -3.597055 -0.121143
| 31>  C 0.831057 -3.626705 -0.111628
| 32>  C 0.136058 -2.456167 -0.062347
| 33>  H 2.794316 4.523639 -0.180809
| 34>  H 4.005408 2.435194 -0.085919
| 35>  H -0.943757 2.455960 -0.065059
| 36>  H 0.313855 4.574865 -0.146579
| 37>  H 2.790606 -4.524051 -0.188234
| 38>  H 0.310086 -4.573251 -0.155265
| 39>  H -0.945794 -2.453453 -0.070402
| 40>  N 2.896462 -0.000520 0.097320
| 41>  C 4.351299 -0.001410 0.264811
| 42>  H 4.650968 -0.875021 0.828927
| 43>  H 4.850682 -0.000207 -0.702690
| 44>  H 4.651857 0.870145 0.831629
| 45>  C -1.390626 0.001439 0.011946
| 46>  C -2.092877 0.003720 -1.198942
| 47>  C -2.073194 -0.000431 1.237284
| 48>  C -3.484327 0.004209 -1.160953
| 49>  C -3.461998 0.000182 1.224283
| 50>  C -4.188971 0.002560 0.036601
| 51>  H -4.029501 0.005865 -2.098887
| 52>  H -3.990245 -0.001324 2.172185
| 53>  C -1.322498 -0.003413 2.530177
| 54>  H -0.678113 -0.880618 2.618349
| 55>  H -0.673684 0.870326 2.620050
| 56>  H -2.001593 -0.002585 3.379901
| 57>  C -1.367995 0.005246 -2.506411
| 58>  H -0.722058 0.879956 -2.607063
| 59>  H -0.724491 -0.870894 -2.610298
| 60>  H -2.063827 0.007749 -3.342484
| 61>  C -5.682651 0.004431 0.058057
| 62>  H -6.070855 0.885572 0.571514
| 63>  H -6.098883 -0.006793 -0.947398
| 64>  H -6.073219 -0.862687 0.592902
| 65> *
| 66>
| 67>
| 68>                          ****END OF INPUT****

CARTESIAN COORDINATES (ANGSTROEM)
---------------------------------
  C      2.239128    3.596997   -0.115023
  C      2.928375    2.416072   -0.052316
  C      2.233183    1.193935    0.016949
  C      0.805868    1.208193   -0.009906
  C      0.138098    2.457766   -0.057358
  C      0.834050    3.627809   -0.104825
  C      0.092838    0.000763    0.003285
  C      0.804842   -1.207237   -0.012359
  C      2.232163   -1.194233    0.014781
  C      2.926372   -2.416814   -0.056186
  H      4.003413   -2.436763   -0.089302
  C      2.236167   -3.597055   -0.121143
  C      0.831057   -3.626705   -0.111628
  C      0.136058   -2.456167   -0.062347
  H      2.794316    4.523639   -0.180809
  H      4.005408    2.435194   -0.085919
  H     -0.943757    2.455960   -0.065059
  H      0.313855    4.574865   -0.146579
  H      2.790606   -4.524051   -0.188234
  H      0.310086   -4.573251   -0.155265
  H     -0.945794   -2.453453   -0.070402
  N      2.896462   -0.000520    0.097320
  C      4.351299   -0.001410    0.264811
  H      4.650968   -0.875021    0.828927
  H      4.850682   -0.000207   -0.702690
  H      4.651857    0.870145    0.831629
  C     -1.390626    0.001439    0.011946
  C     -2.092877    0.003720   -1.198942
  C     -2.073194   -0.000431    1.237284
  C     -3.484327    0.004209   -1.160953
  C     -3.461998    0.000182    1.224283
  C     -4.188971    0.002560    0.036601
  H     -4.029501    0.005865   -2.098887
  H     -3.990245   -0.001324    2.172185
  C     -1.322498   -0.003413    2.530177
  H     -0.678113   -0.880618    2.618349
  H     -0.673684    0.870326    2.620050
  H     -2.001593   -0.002585    3.379901
  C     -1.367995    0.005246   -2.506411
  H     -0.722058    0.879956   -2.607063
  H     -0.724491   -0.870894   -2.610298
  H     -2.063827    0.007749   -3.342484
  C     -5.682651    0.004431    0.058057
  H     -6.070855    0.885572    0.571514
  H     -6.098883   -0.006793   -0.947398
  H     -6.073219   -0.862687    0.592902

 Total Charge           Charge          ....    1
 Multiplicity           Mult            ....    1
 Number of Electrons    NEL             ....  166
 Basis Dimension        Dim             ....  876

ORBITAL ENERGIES
----------------

  NO   OCC          E(Eh)            E(eV)
   0   2.0000     -15.126200      -411.6048
   1   2.0000     -10.868746      -295.7536
   2   2.0000     -10.868724      -295.7530
   3   2.0000     -10.849905      -295.2409
   4   2.0000     -10.817576      -294.3612
   5   2.0000     -10.817555      -294.3606
   6   2.0000     -10.813760      -294.2574
   7   2.0000     -10.806317      -294.0548
   8   2.0000     -10.806316      -294.0548
   9   2.0000     -10.801205      -293.9157
  10   2.0000     -10.801202      -293.9157
  11   2.0000     -10.794738      -293.7398
  12   2.0000     -10.794731      -293.7396
  13   2.0000     -10.793512      -293.7064
  14   2.0000     -10.793365      -293.7024
  15   2.0000     -10.790099      -293.6135
  16   2.0000     -10.790098      -293.6135
  17   2.0000     -10.788822      -293.5788
  18   2.0000     -10.786958      -293.5281
  19   2.0000     -10.768354      -293.0218
  20   2.0000     -10.768014      -293.0125
  21   2.0000     -10.762460      -292.8614
  22   2.0000     -10.762394      -292.8596
  23   2.0000     -10.759811      -292.7894
  24   2.0000      -1.210186       -32.9308
  25   2.0000      -1.073697       -29.2168
  26   2.0000      -1.059909       -28.8416
  27   2.0000      -1.040279       -28.3074
  28   2.0000      -1.000196       -27.2167
  29   2.0000      -0.948572       -25.8120
  30   2.0000      -0.948525       -25.8107
  31   2.0000      -0.947160       -25.7735
  32   2.0000      -0.930096       -25.3092
  33   2.0000      -0.915331       -24.9074
  34   2.0000      -0.883700       -24.0467
  35   2.0000      -0.847643       -23.0655
  36   2.0000      -0.840290       -22.8655
  37   2.0000      -0.825000       -22.4494
  38   2.0000      -0.811483       -22.0816
  39   2.0000      -0.800280       -21.7767
  40   2.0000      -0.747254       -20.3338
  41   2.0000      -0.744513       -20.2592
  42   2.0000      -0.704082       -19.1591
  43   2.0000      -0.701158       -19.0795
  44   2.0000      -0.694387       -18.8952
  45   2.0000      -0.682426       -18.5697
  46   2.0000      -0.646555       -17.5937
  47   2.0000      -0.610180       -16.6038
  48   2.0000      -0.606104       -16.4929
  49   2.0000      -0.601584       -16.3699
  50   2.0000      -0.592787       -16.1306
  51   2.0000      -0.590048       -16.0560
  52   2.0000      -0.587280       -15.9807
  53   2.0000      -0.566321       -15.4104
  54   2.0000      -0.550677       -14.9847
  55   2.0000      -0.549814       -14.9612
  56   2.0000      -0.546018       -14.8579
  57   2.0000      -0.528978       -14.3942
  58   2.0000      -0.519022       -14.1233
  59   2.0000      -0.507474       -13.8091
  60   2.0000      -0.505591       -13.7578
  61   2.0000      -0.503910       -13.7121
  62   2.0000      -0.500723       -13.6254
  63   2.0000      -0.498410       -13.5624
  64   2.0000      -0.494804       -13.4643
  65   2.0000      -0.491537       -13.3754
  66   2.0000      -0.490475       -13.3465
  67   2.0000      -0.481021       -13.0892
  68   2.0000      -0.471372       -12.8267
  69   2.0000      -0.460765       -12.5380
  70   2.0000      -0.455880       -12.4051
  71   2.0000      -0.452969       -12.3259
  72   2.0000      -0.449897       -12.2423
  73   2.0000      -0.430037       -11.7019
  74   2.0000      -0.421135       -11.4597
  75   2.0000      -0.418592       -11.3905
  76   2.0000      -0.417546       -11.3620
  77   2.0000      -0.385253       -10.4833
  78   2.0000      -0.338343        -9.2068
  79   2.0000      -0.316940        -8.6244
  80   2.0000      -0.297693        -8.1006
  81   2.0000      -0.295062        -8.0291
  82   2.0000      -0.287041        -7.8108
  83   0.0000      -0.056540        -1.5385
  84   0.0000       0.022018         0.5991
  85   0.0000       0.049193         1.3386
  86   0.0000       0.053702         1.4613
  87   0.0000       0.065536         1.7833

MULLIKEN ATOMIC CHARGES
-----------------------
   0 C :   -0.066663
   1 C :   -0.301635
   2 C :    0.165968
   3 C :    0.117242
   4 C :   -0.238825
   5 C :   -0.168158
   6 C :    0.411966
   7 C :    0.117555
   8 C :    0.165419
   9 C :   -0.301899
  10 H :    0.179154
  11 C :   -0.066545
  12 C :   -0.167728
  13 C :   -0.239062
  14 H :    0.180396
  15 H :    0.179289
  16 H :    0.187146
  17 H :    0.173681
  18 H :    0.180476
  19 H :    0.173734
  20 H :    0.187154
  21 N :    0.013087
  22 C :   -0.304290
  23 H :    0.176137
  24 H :    0.177782
  25 H :    0.176149
  26 C :   -0.070483
  27 C :    0.021873
  28 C :    0.037357
  29 C :   -0.306242
  30 C :   -0.295828
  31 C :    0.143404
  32 H :    0.151648
  33 H :    0.152559
  34 C :   -0.419662
  35 H :    0.148512
  36 H :    0.148527
  37 H :    0.146489
  38 C :   -0.421164
  39 H :    0.148656
  40 H :    0.148600
  41 H :    0.147014
  42 C :   -0.407221
  43 H :    0.139294
  44 H :    0.139949
  45 H :    0.139189
Sum of atomic charges:    1.0000000

LOEWDIN ATOMIC CHARGES
----------------------
   0 C :   -0.078990
   1 C :   -0.106449
   2 C :   -0.063839
   3 C :   -0.057387
   4 C :   -0.055978
   5 C :   -0.126872
   6 C :    0.063736
   7 C :   -0.057365
   8 C :   -0.063842
   9 C :   -0.106467
  10 H :    0.164717
  11 C :   -0.078982
  12 C :   -0.126873
  13 C :   -0.055967
  14 H :    0.163323
  15 H :    0.164721
  16 H :    0.171716
  17 H :    0.158397
  18 H :    0.163323
  19 H :    0.158396
  20 H :    0.171717
  21 N :    0.302551
  22 C :   -0.205899
  23 H :    0.135244
  24 H :    0.133325
  25 H :    0.135235
  26 C :   -0.065236
  27 C :   -0.127358
  28 C :   -0.127652
  29 C :   -0.102624
  30 C :   -0.097810
  31 C :   -0.163864
  32 H :    0.155314
  33 H :    0.156147
  34 C :   -0.232330
  35 H :    0.132613
  36 H :    0.132607
  37 H :    0.129631
  38 C :   -0.232014
  39 H :    0.132639
  40 H :    0.132643
  41 H :    0.129633
  42 C :   -0.241613
  43 H :    0.130208
  44 H :    0.127466
  45 H :    0.130111

  Mayer bond orders larger than 0.100000
B(  0-C ,  1-C ) :   1.5481 B(  0-C ,  5-C ) :   1.2298 B(  0-C , 14-H ) :   0.9688
B(  1-C ,  2-C ) :   1.2349 B(  1-C , 15-H ) :   0.9796 B(  2-C ,  3-C ) :   1.2785
B(  2-C , 21-N ) :   1.2646 B(  3-C ,  4-C ) :   1.1815 B(  3-C ,  6-C ) :   1.1627
B(  4-C ,  5-C ) :   1.5924 B(  4-C , 16-H ) :   0.9684 B(  5-C , 17-H ) :   0.9811
B(  6-C ,  7-C ) :   1.1622 B(  6-C , 26-C ) :   0.2655 B(  7-C ,  8-C ) :   1.2787
B(  7-C , 13-C ) :   1.1814 B(  8-C ,  9-C ) :   1.2347 B(  8-C , 21-N ) :   1.2647
B(  9-C , 10-H ) :   0.9803 B(  9-C , 11-C ) :   1.5472 B( 11-C , 12-C ) :   1.2293
B( 11-C , 18-H ) :   0.9688 B( 12-C , 13-C ) :   1.5927 B( 12-C , 19-H ) :   0.9811
B( 13-C , 20-H ) :   0.9683 B( 21-N , 22-C ) :   0.8683 B( 22-C , 23-H ) :   0.9600
B( 22-C , 24-H ) :   0.9621 B( 22-C , 25-H ) :   0.9600 B( 26-C , 27-C ) :   1.3460
B( 26-C , 28-C ) :   1.3213 B( 27-C , 29-C ) :   1.4554 B( 27-C , 38-C ) :   0.9319
B( 28-C , 30-C ) :   1.4750 B( 28-C , 34-C ) :   0.9344 B( 29-C , 31-C ) :   1.3813
B( 29-C , 32-H ) :   0.9841 B( 30-C , 31-C ) :   1.3396 B( 30-C , 33-H ) :   0.9959
B( 31-C , 42-C ) :   0.9199 B( 34-C , 35-H ) :   0.9786 B( 34-C , 36-H ) :   0.9788
B( 34-C , 37-H ) :   0.9911 B( 38-C , 39-H ) :   0.9778 B( 38-C , 40-H ) :   0.9776
B( 38-C , 41-H ) :   0.9932 B( 42-C , 43-H ) :   0.9729 B( 42-C , 44-H ) :   0.9988
B( 42-C , 45-H ) :   0.9735

MP2 TOTAL ENERGY:     -943.640314193 Eh

-----------------------------------------------------------------------------
         ABSORPTION SPECTRUM VIA TRANSITION ELECTRIC DIPOLE MOMENTS
-----------------------------------------------------------------------------
State   Energy    Wavelength  fosc         T2        TX        TY        TZ
        (cm-1)      (nm)                 (au**2)    (au)      (au)      (au)
-----------------------------------------------------------------------------
   1   24513.8    407.9   0.164205819   2.20523  -1.48485   0.00067  -0.02100
   2   25625.9    390.2   0.002836402   0.03644   0.00123   0.19089   0.00006
   3   29844.1    335.1   0.367535177   4.05431  -0.00074  -2.01353  -0.00192
   4   27388.0    365.1   0.000666383   0.00801  -0.00038   0.08950  -0.00048
   5   33162.1    301.5   0.046564830   0.46227  -0.00028  -0.67990  -0.00082
   6   40326.4    248.0   0.007051459   0.05757  -0.13992   0.00181   0.19490
   7   40350.0    247.8   1.380124205  11.26031   0.00149   3.35564   0.00293
   8   46770.4    213.8   0.114332880   0.80478  -0.88985   0.00091  -0.11378
   9   44745.5    223.5   0.123019872   0.90511  -0.94421  -0.00002   0.11654
  10   47026.2    212.6   0.096955637   0.67875   0.82303  -0.00019   0.03700
  11   45952.1    217.6   0.032911363   0.23578   0.00031   0.48558  -0.00028
  12   46051.8    217.1   0.147764894   1.05633   1.02768  -0.00107   0.01457
  13   44832.6    223.1   0.139337857   1.02318   0.17971   0.00106  -0.99543
  14   44245.6    226.0   0.005232828   0.03894  -0.08355  -0.00038   0.17876
  15   49988.2    200.0   0.935870194   6.16345   2.46709  -0.00265   0.27732
  16   49923.8    200.3   0.466721420   3.07769   0.48012   0.00307  -1.68736
  17   47070.4    212.4   0.042709015   0.29871  -0.52761   0.00010  -0.14260
  18   49388.2    202.5   0.120784711   0.80513   0.89711  -0.00072  -0.01774
  19   49997.9    200.0   0.002486703   0.01637  -0.00060  -0.12796  -0.00030
  20   49776.7    200.9   0.000843001   0.00558   0.00648   0.07435   0.00235
  21   53072.0    188.4   0.091070650   0.56492  -0.00327   0.75161   0.00041
  22   48047.3    208.1   0.037605903   0.25767   0.49930   0.00388   0.09140
  23   50958.8    196.2   0.000447896   0.00289   0.00052  -0.05378  -0.00079
  24   49368.7    202.6   0.025069089   0.16717  -0.19440  -0.00149   0.35969
  25   54739.2    182.7   0.137659902   0.82791  -0.89810   0.00103  -0.14603
  26   57722.1    173.2   0.004597469   0.02622  -0.11296  -0.00071   0.11602
  27   51138.1    195.5   0.000197108   0.00127  -0.00027   0.03562  -0.00063
  28   52734.1    189.6   0.003115945   0.01945  -0.00030  -0.13947  -0.00069
  29   58545.6    170.8   0.000143637   0.00081   0.00375  -0.02817   0.00028
  30   51029.4    196.0   0.011510210   0.07426   0.26706   0.00015   0.05417

FINAL SINGLE POINT ENERGY      -941.945978792595

DIPOLE MOMENT
-------------
                                X             Y             Z
Electronic contribution:      9.96032      -0.00462      -0.28729
Nuclear contribution   :     -6.65023       0.00357       0.32967
                        -----------------------------------------
Total Dipole Moment    :      3.31009      -0.00106       0.04238
                        -----------------------------------------
Magnitude (a.u.)       :      3.31036
Magnitude (Debye)      :      8.41426

Rotational constants in cm-1:     0.012195     0.006904     0.005187
Rotational constants in MHz :   365.608197   206.963406   155.506693

                             ****ORCA TERMINATED NORMALLY****
TOTAL RUN TIME: 0 days 1 hours 31 minutes 44 seconds 860 msec
