                         Program Version 5.0.2 -  RELEASE  -
|  1> %maxcore 12800
|  2> %pal
|  3>  nprocs= 4
|  4> end
|  5> !STEOM-DLPNO-CCSD DEF2-TZVP DEF2-TZVP/C def2/J TightSCF TightPNO CPCM
|  6> %MDCI
|  7>    Dorootwise true
|  8>    OTHRESH 0.005
|  9>    VTHRESH 0.005
| 10>    TCutPNOSingles 1e-11
| 11>    DTol 1e-5
| 12>    NROOTS  25
| 13>    DOSOLV  TRUE
| 14>    MAXITER 500
| 15> END
| 16> %CPCM
| 17>    SMD          TRUE
| 18>    SMDsolvent   "ACETONITRILE"
| 19> END
| 20>
| 21>
| 22> * xyz 0 1
| 23> C                   0.80076000   -3.36589900   -0.94031900
| 24> C                   1.56762900   -2.27623000   -0.62942800
| 25> C                   0.96864500   -1.01160700   -0.49117200
| 26> C                  -0.44255300   -0.87352900   -0.64853800
| 27> C                  -1.18590300   -2.02861200   -1.00217200
| 28> C                  -0.58402200   -3.24407300   -1.14214400
| 29> C                  -1.04536500    0.38971900   -0.48459700
| 30> C                  -0.23230800    1.50034600   -0.18168400
| 31> C                   1.18007700    1.33535500   -0.06854800
| 32> C                   1.99463300    2.44870900    0.20421000
| 33> H                   3.06488400    2.32622300    0.27219300
| 34> C                   1.42954700    3.68117400    0.38824000
| 35> C                   0.03728200    3.85668200    0.32650400
| 36> C                  -0.76922900    2.79221000    0.05136000
| 37> H                   1.27586800   -4.33274800   -1.04429700
| 38> H                   2.63304700   -2.38282800   -0.49297200
| 39> H                  -2.24810800   -1.92751400   -1.17021500
| 40> H                  -1.16822400   -4.11245700   -1.41435200
| 41> H                   2.06898500    4.52853700    0.59883000
| 42> H                  -0.39205700    4.83309100    0.50480200
| 43> H                  -1.84130000    2.91962600    0.01922100
| 44> N                   1.73133400    0.09124300   -0.21623500
| 45> C                  -2.50193500    0.54536800   -0.62499200
| 46> C                  -3.37339600   -0.15174800    0.21585900
| 47> C                  -3.03314500    1.39038600   -1.60213500
| 48> C                  -4.75851700   -0.02611000    0.12108100
| 49> C                  -4.40600100    1.51149800   -1.73173800
| 50> C                  -5.25209500    0.81581100   -0.87831200
| 51> H                  -4.81458700    2.15195300   -2.50405100
| 52> H                  -2.36763700    1.92865700   -2.26612000
| 53> C                   3.16334700   -0.06177200   -0.07966600
| 54> C                   3.70948900   -0.28724400    1.16966700
| 55> C                   3.97063200    0.02202900   -1.20573100
| 56> C                   5.08134600   -0.43082800    1.30875300
| 57> H                   3.06345200   -0.34961500    2.03630500
| 58> C                   5.33582800   -0.11988400   -1.07392300
| 59> H                   3.52548100    0.19786300   -2.17684500
| 60> C                   5.90122600   -0.34596100    0.18395200
| 61> H                   5.50110900   -0.60692400    2.28838700
| 62> H                   5.98483800   -0.05777300   -1.93736300
| 63> O                   7.24318800   -0.46851000    0.21328700
| 64> C                   7.85720000   -0.69379500    1.47383200
| 65> H                   8.92467000   -0.75678800    1.28283800
| 66> H                   7.66326500    0.12905600    2.16531000
| 67> H                   7.51646700   -1.62934700    1.92283400
| 68> H                  -2.94792200   -0.80015300    0.97571000
| 69> H                  -6.32510800    0.92661900   -0.99429800
| 70> B                  -5.72909500   -0.79870600    1.14661100
| 71> F                  -5.21212800   -2.07360400    1.49079400
| 72> F                  -7.02282600   -0.98445000    0.60252600
| 73> F                  -5.87788200   -0.06578200    2.35759400
| 74> *
| 75>
| 76>
| 77>                          ****END OF INPUT****

CARTESIAN COORDINATES (ANGSTROEM)
---------------------------------
  C      0.800760   -3.365899   -0.940319
  C      1.567629   -2.276230   -0.629428
  C      0.968645   -1.011607   -0.491172
  C     -0.442553   -0.873529   -0.648538
  C     -1.185903   -2.028612   -1.002172
  C     -0.584022   -3.244073   -1.142144
  C     -1.045365    0.389719   -0.484597
  C     -0.232308    1.500346   -0.181684
  C      1.180077    1.335355   -0.068548
  C      1.994633    2.448709    0.204210
  H      3.064884    2.326223    0.272193
  C      1.429547    3.681174    0.388240
  C      0.037282    3.856682    0.326504
  C     -0.769229    2.792210    0.051360
  H      1.275868   -4.332748   -1.044297
  H      2.633047   -2.382828   -0.492972
  H     -2.248108   -1.927514   -1.170215
  H     -1.168224   -4.112457   -1.414352
  H      2.068985    4.528537    0.598830
  H     -0.392057    4.833091    0.504802
  H     -1.841300    2.919626    0.019221
  N      1.731334    0.091243   -0.216235
  C     -2.501935    0.545368   -0.624992
  C     -3.373396   -0.151748    0.215859
  C     -3.033145    1.390386   -1.602135
  C     -4.758517   -0.026110    0.121081
  C     -4.406001    1.511498   -1.731738
  C     -5.252095    0.815811   -0.878312
  H     -4.814587    2.151953   -2.504051
  H     -2.367637    1.928657   -2.266120
  C      3.163347   -0.061772   -0.079666
  C      3.709489   -0.287244    1.169667
  C      3.970632    0.022029   -1.205731
  C      5.081346   -0.430828    1.308753
  H      3.063452   -0.349615    2.036305
  C      5.335828   -0.119884   -1.073923
  H      3.525481    0.197863   -2.176845
  C      5.901226   -0.345961    0.183952
  H      5.501109   -0.606924    2.288387
  H      5.984838   -0.057773   -1.937363
  O      7.243188   -0.468510    0.213287
  C      7.857200   -0.693795    1.473832
  H      8.924670   -0.756788    1.282838
  H      7.663265    0.129056    2.165310
  H      7.516467   -1.629347    1.922834
  H     -2.947922   -0.800153    0.975710
  H     -6.325108    0.926619   -0.994298
  B     -5.729095   -0.798706    1.146611
  F     -5.212128   -2.073604    1.490794
  F     -7.022826   -0.984450    0.602526
  F     -5.877882   -0.065782    2.357594

 Total Charge           Charge          ....    0
 Multiplicity           Mult            ....    1
 Number of Electrons    NEL             ....  222
 Basis Dimension        Dim             .... 1106

ORBITAL ENERGIES
----------------

  NO   OCC          E(Eh)            E(eV)
   0   2.0000     -26.229292      -713.7353
   1   2.0000     -26.228726      -713.7199
   2   2.0000     -26.226955      -713.6717
   3   2.0000     -20.587218      -560.2067
   4   2.0000     -15.656598      -426.0377
   5   2.0000     -11.326891      -308.2204
   6   2.0000     -11.326801      -308.2179
   7   2.0000     -11.316000      -307.9240
   8   2.0000     -11.308718      -307.7259
   9   2.0000     -11.276121      -306.8388
  10   2.0000     -11.270597      -306.6885
  11   2.0000     -11.268381      -306.6282
  12   2.0000     -11.268231      -306.6241
  13   2.0000     -11.261142      -306.4313
  14   2.0000     -11.261032      -306.4283
  15   2.0000     -11.255795      -306.2858
  16   2.0000     -11.255430      -306.2758
  17   2.0000     -11.248824      -306.0961
  18   2.0000     -11.248674      -306.0920
  19   2.0000     -11.247789      -306.0679
  20   2.0000     -11.242174      -305.9151
  21   2.0000     -11.241951      -305.9090
  22   2.0000     -11.238326      -305.8104
  23   2.0000     -11.237998      -305.8015
  24   2.0000     -11.236092      -305.7496
  25   2.0000     -11.234197      -305.6980
  26   2.0000     -11.233075      -305.6675
  27   2.0000     -11.231699      -305.6301
  28   2.0000     -11.228096      -305.5320
  29   2.0000     -11.226187      -305.4801
  30   2.0000     -11.199278      -304.7479
  31   2.0000      -7.647903      -208.1100
  32   2.0000      -1.565180       -42.5907
  33   2.0000      -1.519605       -41.3506
  34   2.0000      -1.516931       -41.2778
  35   2.0000      -1.418412       -38.5969
  36   2.0000      -1.348899       -36.7054
  37   2.0000      -1.199845       -32.6494
  38   2.0000      -1.182534       -32.1784
  39   2.0000      -1.163019       -31.6474
  40   2.0000      -1.149065       -31.2676
  41   2.0000      -1.113012       -30.2866
  42   2.0000      -1.059151       -28.8210
  43   2.0000      -1.042579       -28.3700
  44   2.0000      -1.041645       -28.3446
  45   2.0000      -1.034513       -28.1505
  46   2.0000      -1.021506       -27.7966
  47   2.0000      -1.012816       -27.5601
  48   2.0000      -1.002389       -27.2764
  49   2.0000      -0.945977       -25.7414
  50   2.0000      -0.923565       -25.1315
  51   2.0000      -0.892103       -24.2754
  52   2.0000      -0.877133       -23.8680
  53   2.0000      -0.851341       -23.1662
  54   2.0000      -0.837522       -22.7901
  55   2.0000      -0.828616       -22.5478
  56   2.0000      -0.824425       -22.4337
  57   2.0000      -0.795519       -21.6472
  58   2.0000      -0.774988       -21.0885
  59   2.0000      -0.766461       -20.8565
  60   2.0000      -0.755785       -20.5660
  61   2.0000      -0.741345       -20.1730
  62   2.0000      -0.717723       -19.5302
  63   2.0000      -0.708069       -19.2675
  64   2.0000      -0.690982       -18.8026
  65   2.0000      -0.687255       -18.7012
  66   2.0000      -0.685162       -18.6442
  67   2.0000      -0.682809       -18.5802
  68   2.0000      -0.666053       -18.1242
  69   2.0000      -0.659858       -17.9557
  70   2.0000      -0.657597       -17.8941
  71   2.0000      -0.655899       -17.8479
  72   2.0000      -0.654773       -17.8173
  73   2.0000      -0.631723       -17.1900
  74   2.0000      -0.627447       -17.0737
  75   2.0000      -0.624809       -17.0019
  76   2.0000      -0.617529       -16.8038
  77   2.0000      -0.616400       -16.7731
  78   2.0000      -0.612747       -16.6737
  79   2.0000      -0.610623       -16.6159
  80   2.0000      -0.607000       -16.5173
  81   2.0000      -0.603497       -16.4220
  82   2.0000      -0.600845       -16.3498
  83   2.0000      -0.584282       -15.8991
  84   2.0000      -0.575772       -15.6675
  85   2.0000      -0.574669       -15.6375
  86   2.0000      -0.570725       -15.5302
  87   2.0000      -0.564214       -15.3530
  88   2.0000      -0.561204       -15.2711
  89   2.0000      -0.554129       -15.0786
  90   2.0000      -0.541996       -14.7485
  91   2.0000      -0.534965       -14.5571
  92   2.0000      -0.527138       -14.3442
  93   2.0000      -0.523251       -14.2384
  94   2.0000      -0.522802       -14.2262
  95   2.0000      -0.518155       -14.0997
  96   2.0000      -0.510982       -13.9045
  97   2.0000      -0.499499       -13.5921
  98   2.0000      -0.491687       -13.3795
  99   2.0000      -0.482591       -13.1320
 100   2.0000      -0.477099       -12.9825
 101   2.0000      -0.475339       -12.9346
 102   2.0000      -0.443354       -12.0643
 103   2.0000      -0.424761       -11.5583
 104   2.0000      -0.372511       -10.1365
 105   2.0000      -0.352225        -9.5845
 106   2.0000      -0.342230        -9.3126
 107   2.0000      -0.339581        -9.2405
 108   2.0000      -0.331798        -9.0287
 109   2.0000      -0.326097        -8.8736
 110   2.0000      -0.308510        -8.3950
 111   0.0000       0.003141         0.0855
 112   0.0000       0.082368         2.2414
 113   0.0000       0.103270         2.8101
 114   0.0000       0.109689         2.9848
 115   0.0000       0.122419         3.3312

E(0)                                       ...  -1448.706973036
E(0)                                       ...  -1448.706973036
E(CORR)(strong-pairs)                      ...     -5.337196518
E(CORR)(weak-pairs)                        ...     -0.011705637
E(CORR)(corrected)                         ...     -5.348902155
E(TOT)                                     ...  -1454.055875192

MULLIKEN ATOMIC CHARGES
-----------------------
   0 C :   -0.099895
   1 C :   -0.251372
   2 C :    0.146030
   3 C :    0.116897
   4 C :   -0.268829
   5 C :   -0.156729
   6 C :    0.309168
   7 C :    0.136787
   8 C :    0.138050
   9 C :   -0.244535
  10 H :    0.190304
  11 C :   -0.105981
  12 C :   -0.149285
  13 C :   -0.287414
  14 H :    0.186403
  15 H :    0.189802
  16 H :    0.201694
  17 H :    0.180562
  18 H :    0.186484
  19 H :    0.180774
  20 H :    0.200876
  21 N :    0.194845
  22 C :    0.072484
  23 C :   -0.419163
  24 C :   -0.306303
  25 C :   -0.008853
  26 C :   -0.150518
  27 C :   -0.241832
  28 H :    0.167986
  29 H :    0.176012
  30 C :    0.056253
  31 C :   -0.268999
  32 C :   -0.243651
  33 C :   -0.206699
  34 H :    0.179139
  35 C :   -0.197238
  36 H :    0.177421
  37 C :    0.322708
  38 H :    0.184630
  39 H :    0.162920
  40 O :   -0.273271
  41 C :   -0.272129
  42 H :    0.172006
  43 H :    0.157231
  44 H :    0.156929
  45 H :    0.160227
  46 H :    0.158048
  47 B :    0.613815
  48 F :   -0.443155
  49 F :   -0.440208
  50 F :   -0.440425
Sum of atomic charges:   -0.0000003

LOEWDIN ATOMIC CHARGES
----------------------
   0 C :   -0.093337
   1 C :   -0.097229
   2 C :   -0.068632
   3 C :   -0.046347
   4 C :   -0.067903
   5 C :   -0.124621
   6 C :    0.046532
   7 C :   -0.046617
   8 C :   -0.068755
   9 C :   -0.096972
  10 H :    0.173906
  11 C :   -0.093445
  12 C :   -0.124901
  13 C :   -0.068533
  14 H :    0.167695
  15 H :    0.173924
  16 H :    0.174845
  17 H :    0.163734
  18 H :    0.167708
  19 H :    0.163676
  20 H :    0.174461
  21 N :    0.380200
  22 C :   -0.112413
  23 C :   -0.066656
  24 C :   -0.106210
  25 C :   -0.072077
  26 C :   -0.148564
  27 C :   -0.107524
  28 H :    0.156379
  29 H :    0.163996
  30 C :   -0.172071
  31 C :   -0.096279
  32 C :   -0.099226
  33 C :   -0.126993
  34 H :    0.170855
  35 C :   -0.111056
  36 H :    0.170631
  37 C :   -0.252312
  38 H :    0.167040
  39 H :    0.163300
  40 O :    0.237397
  41 C :   -0.319312
  42 H :    0.121686
  43 H :    0.117696
  44 H :    0.117588
  45 H :    0.167320
  46 H :    0.158218
  47 B :   -1.288664
  48 F :    0.128107
  49 F :    0.132438
  50 F :    0.117316

  Mayer bond orders larger than 0.100000
B(  0-C ,  1-C ) :   1.4191 B(  0-C ,  5-C ) :   1.1119 B(  0-C , 14-H ) :   0.9209
B(  1-C ,  2-C ) :   1.1529 B(  1-C , 15-H ) :   0.9238 B(  2-C ,  3-C ) :   1.1906
B(  2-C , 21-N ) :   1.1799 B(  3-C ,  4-C ) :   1.1204 B(  3-C ,  6-C ) :   1.1414
B(  4-C ,  5-C ) :   1.4546 B(  4-C , 16-H ) :   0.9117 B(  5-C , 17-H ) :   0.9344
B(  6-C ,  7-C ) :   1.1355 B(  6-C , 22-C ) :   0.7615 B(  7-C ,  8-C ) :   1.1924
B(  7-C , 13-C ) :   1.1211 B(  8-C ,  9-C ) :   1.1515 B(  8-C , 21-N ) :   1.1820
B(  9-C , 10-H ) :   0.9231 B(  9-C , 11-C ) :   1.4191 B( 11-C , 12-C ) :   1.1158
B( 11-C , 18-H ) :   0.9210 B( 12-C , 13-C ) :   1.4504 B( 12-C , 19-H ) :   0.9338
B( 13-C , 20-H ) :   0.9160 B( 21-N , 30-C ) :   0.6553 B( 22-C , 23-C ) :   1.2352
B( 22-C , 24-C ) :   1.2484 B( 23-C , 25-C ) :   1.2799 B( 23-C , 45-H ) :   0.9604
B( 24-C , 26-C ) :   1.3312 B( 24-C , 29-H ) :   0.9455 B( 25-C , 27-C ) :   1.2824
B( 25-C , 47-B ) :   0.8654 B( 26-C , 27-C ) :   1.2624 B( 26-C , 28-H ) :   0.9347
B( 27-C , 46-H ) :   0.9319 B( 30-C , 31-C ) :   1.4163 B( 30-C , 32-C ) :   1.3488
B( 31-C , 33-C ) :   1.2683 B( 31-C , 34-H ) :   0.9266 B( 32-C , 35-C ) :   1.3496
B( 32-C , 36-H ) :   0.9416 B( 33-C , 37-C ) :   1.2146 B( 33-C , 38-H ) :   0.9198
B( 35-C , 37-C ) :   1.2220 B( 35-C , 39-H ) :   0.9444 B( 37-C , 40-O ) :   1.1001
B( 40-O , 41-C ) :   0.8374 B( 41-C , 42-H ) :   0.9212 B( 41-C , 43-H ) :   0.9177
B( 41-C , 44-H ) :   0.9178 B( 47-B , 48-F ) :   0.8480 B( 47-B , 49-F ) :   0.8556
B( 47-B , 50-F ) :   0.8709

-----------------------------------------------------------------------------
         ABSORPTION SPECTRUM VIA TRANSITION ELECTRIC DIPOLE MOMENTS
-----------------------------------------------------------------------------
State   Energy  Wavelength   fosc         T2         TX        TY        TZ
        (cm-1)    (nm)                  (au**2)     (au)      (au)      (au)
-----------------------------------------------------------------------------
   1   23365.7    428.0   0.233110203   3.28441   1.79591   0.17504   0.16844
   2   27770.0    360.1   0.127343571   1.50965   0.09519   1.20462   0.22032
   3   27626.4    362.0   0.048068031   0.57281   0.74742   0.04938   0.07218
   4   28112.3    355.7   0.008256156   0.09668   0.12428   0.27550   0.06272
   5   25129.6    397.9   0.000413395   0.00542   0.03981   0.01989   0.00251
   6   33179.4    301.4   0.069589611   0.69048   0.03699   0.77981   0.28175
   7   36664.2    272.7   0.012461701   0.11190   0.01907   0.05456   0.32790
   8   39168.7    255.3   0.001801136   0.01514   0.08197   0.04952   0.03345
   9   36270.9    275.7   0.241670859   2.19352   0.11532   1.43451   0.34965
  10   42930.5    232.9   0.006830294   0.05238   0.21806   0.05032   0.00637
  11   43361.5    230.6   0.001592842   0.01209   0.09018   0.04717   0.04144
  12   45764.1    218.5   0.169516928   1.21945   1.07148   0.23164   0.13184
  13   46005.3    217.4   0.193298511   1.38324   0.20951   1.15088   0.11988
  14   46972.3    212.9   0.194089089   1.36030   1.11045   0.15559   0.31974
  15   42472.1    235.4   0.003048045   0.02363   0.11415   0.02773   0.07603
  16   48278.8    207.1   0.017911735   0.12214   0.34534   0.01624   0.04673
  17   46985.4    212.8   0.008959946   0.06278   0.00460   0.24072   0.05807
  18   49510.1    202.0   0.107220838   0.71295   0.84143   0.00852   0.06968
  19   50283.3    198.9   0.148012029   0.96906   0.97293   0.07102   0.05787
  20   48842.1    204.7   0.073940973   0.49839   0.55377   0.40007   0.14363
  21   53907.5    185.5   1.259326431   7.69067   2.76681   0.18713   0.00727
  22   58082.4    172.2   0.004172514   0.02365   0.03657   0.14702   0.01912
  23   59295.1    168.6   0.009318191   0.05174   0.01430   0.00728   0.22682

FINAL SINGLE POINT ENERGY     -1453.949413147885

DIPOLE MOMENT
-------------
                                X             Y             Z
Electronic contribution:    -37.60713      -4.54531       4.68703
Nuclear contribution   :     50.26136       6.51485      -7.04355
                        -----------------------------------------
Total Dipole Moment    :     12.65424       1.96954      -2.35652
                        -----------------------------------------
Magnitude (a.u.)       :     13.02160
Magnitude (Debye)      :     33.09827

Rotational constants in cm-1:     0.009893     0.002157     0.001956
Rotational constants in MHz :   296.592255    64.672752    58.643006

                             ****ORCA TERMINATED NORMALLY****
TOTAL RUN TIME: 3 days 12 hours 54 minutes 22 seconds 992 msec
