                         Program Version 5.0.2 -  RELEASE  -
|  1> %maxcore 3200
|  2> %pal
|  3>  nprocs= 8
|  4> end
|  5> ! RI-wB2PLYP def2-TZVP def2/J def2-TZVP/C RIJCOSX CPCM TightSCF
|  6> %TDDFT DCORR 1
|  7>    NROOTS   30
|  8>
|  9>    TDA      FALSE
| 10> END
| 11>
| 12> %CPCM
| 13>    SMD          TRUE
| 14>    SMDsolvent   "ACETONITRILE"
| 15> END
| 16>
| 17>
| 18> * xyz 0 1
| 19> C                   0.80076000   -3.36589900   -0.94031900
| 20> C                   1.56762900   -2.27623000   -0.62942800
| 21> C                   0.96864500   -1.01160700   -0.49117200
| 22> C                  -0.44255300   -0.87352900   -0.64853800
| 23> C                  -1.18590300   -2.02861200   -1.00217200
| 24> C                  -0.58402200   -3.24407300   -1.14214400
| 25> C                  -1.04536500    0.38971900   -0.48459700
| 26> C                  -0.23230800    1.50034600   -0.18168400
| 27> C                   1.18007700    1.33535500   -0.06854800
| 28> C                   1.99463300    2.44870900    0.20421000
| 29> H                   3.06488400    2.32622300    0.27219300
| 30> C                   1.42954700    3.68117400    0.38824000
| 31> C                   0.03728200    3.85668200    0.32650400
| 32> C                  -0.76922900    2.79221000    0.05136000
| 33> H                   1.27586800   -4.33274800   -1.04429700
| 34> H                   2.63304700   -2.38282800   -0.49297200
| 35> H                  -2.24810800   -1.92751400   -1.17021500
| 36> H                  -1.16822400   -4.11245700   -1.41435200
| 37> H                   2.06898500    4.52853700    0.59883000
| 38> H                  -0.39205700    4.83309100    0.50480200
| 39> H                  -1.84130000    2.91962600    0.01922100
| 40> N                   1.73133400    0.09124300   -0.21623500
| 41> C                  -2.50193500    0.54536800   -0.62499200
| 42> C                  -3.37339600   -0.15174800    0.21585900
| 43> C                  -3.03314500    1.39038600   -1.60213500
| 44> C                  -4.75851700   -0.02611000    0.12108100
| 45> C                  -4.40600100    1.51149800   -1.73173800
| 46> C                  -5.25209500    0.81581100   -0.87831200
| 47> H                  -4.81458700    2.15195300   -2.50405100
| 48> H                  -2.36763700    1.92865700   -2.26612000
| 49> C                   3.16334700   -0.06177200   -0.07966600
| 50> C                   3.70948900   -0.28724400    1.16966700
| 51> C                   3.97063200    0.02202900   -1.20573100
| 52> C                   5.08134600   -0.43082800    1.30875300
| 53> H                   3.06345200   -0.34961500    2.03630500
| 54> C                   5.33582800   -0.11988400   -1.07392300
| 55> H                   3.52548100    0.19786300   -2.17684500
| 56> C                   5.90122600   -0.34596100    0.18395200
| 57> H                   5.50110900   -0.60692400    2.28838700
| 58> H                   5.98483800   -0.05777300   -1.93736300
| 59> O                   7.24318800   -0.46851000    0.21328700
| 60> C                   7.85720000   -0.69379500    1.47383200
| 61> H                   8.92467000   -0.75678800    1.28283800
| 62> H                   7.66326500    0.12905600    2.16531000
| 63> H                   7.51646700   -1.62934700    1.92283400
| 64> H                  -2.94792200   -0.80015300    0.97571000
| 65> H                  -6.32510800    0.92661900   -0.99429800
| 66> B                  -5.72909500   -0.79870600    1.14661100
| 67> F                  -5.21212800   -2.07360400    1.49079400
| 68> F                  -7.02282600   -0.98445000    0.60252600
| 69> F                  -5.87788200   -0.06578200    2.35759400
| 70> *
| 71>
| 72>
| 73>                          ****END OF INPUT****

CARTESIAN COORDINATES (ANGSTROEM)
---------------------------------
  C      0.800760   -3.365899   -0.940319
  C      1.567629   -2.276230   -0.629428
  C      0.968645   -1.011607   -0.491172
  C     -0.442553   -0.873529   -0.648538
  C     -1.185903   -2.028612   -1.002172
  C     -0.584022   -3.244073   -1.142144
  C     -1.045365    0.389719   -0.484597
  C     -0.232308    1.500346   -0.181684
  C      1.180077    1.335355   -0.068548
  C      1.994633    2.448709    0.204210
  H      3.064884    2.326223    0.272193
  C      1.429547    3.681174    0.388240
  C      0.037282    3.856682    0.326504
  C     -0.769229    2.792210    0.051360
  H      1.275868   -4.332748   -1.044297
  H      2.633047   -2.382828   -0.492972
  H     -2.248108   -1.927514   -1.170215
  H     -1.168224   -4.112457   -1.414352
  H      2.068985    4.528537    0.598830
  H     -0.392057    4.833091    0.504802
  H     -1.841300    2.919626    0.019221
  N      1.731334    0.091243   -0.216235
  C     -2.501935    0.545368   -0.624992
  C     -3.373396   -0.151748    0.215859
  C     -3.033145    1.390386   -1.602135
  C     -4.758517   -0.026110    0.121081
  C     -4.406001    1.511498   -1.731738
  C     -5.252095    0.815811   -0.878312
  H     -4.814587    2.151953   -2.504051
  H     -2.367637    1.928657   -2.266120
  C      3.163347   -0.061772   -0.079666
  C      3.709489   -0.287244    1.169667
  C      3.970632    0.022029   -1.205731
  C      5.081346   -0.430828    1.308753
  H      3.063452   -0.349615    2.036305
  C      5.335828   -0.119884   -1.073923
  H      3.525481    0.197863   -2.176845
  C      5.901226   -0.345961    0.183952
  H      5.501109   -0.606924    2.288387
  H      5.984838   -0.057773   -1.937363
  O      7.243188   -0.468510    0.213287
  C      7.857200   -0.693795    1.473832
  H      8.924670   -0.756788    1.282838
  H      7.663265    0.129056    2.165310
  H      7.516467   -1.629347    1.922834
  H     -2.947922   -0.800153    0.975710
  H     -6.325108    0.926619   -0.994298
  B     -5.729095   -0.798706    1.146611
  F     -5.212128   -2.073604    1.490794
  F     -7.022826   -0.984450    0.602526
  F     -5.877882   -0.065782    2.357594

 Total Charge           Charge          ....    0
 Multiplicity           Mult            ....    1
 Number of Electrons    NEL             ....  222
 Basis Dimension        Dim             .... 1106

ORBITAL ENERGIES
----------------

  NO   OCC          E(Eh)            E(eV)
   0   2.0000     -25.367496      -690.2846
   1   2.0000     -25.366991      -690.2709
   2   2.0000     -25.365303      -690.2250
   3   2.0000     -19.831195      -539.6342
   4   2.0000     -15.008754      -408.4090
   5   2.0000     -10.779820      -293.3338
   6   2.0000     -10.779741      -293.3317
   7   2.0000     -10.766705      -292.9769
   8   2.0000     -10.763660      -292.8941
   9   2.0000     -10.735874      -292.1380
  10   2.0000     -10.729570      -291.9664
  11   2.0000     -10.729439      -291.9629
  12   2.0000     -10.725752      -291.8625
  13   2.0000     -10.715110      -291.5730
  14   2.0000     -10.714998      -291.5699
  15   2.0000     -10.710684      -291.4525
  16   2.0000     -10.710331      -291.4429
  17   2.0000     -10.706750      -291.3455
  18   2.0000     -10.705321      -291.3066
  19   2.0000     -10.704465      -291.2833
  20   2.0000     -10.702914      -291.2411
  21   2.0000     -10.702711      -291.2356
  22   2.0000     -10.698276      -291.1149
  23   2.0000     -10.697967      -291.1065
  24   2.0000     -10.693592      -290.9874
  25   2.0000     -10.692407      -290.9552
  26   2.0000     -10.692387      -290.9546
  27   2.0000     -10.688277      -290.8428
  28   2.0000     -10.685183      -290.7586
  29   2.0000     -10.682853      -290.6952
  30   2.0000     -10.659511      -290.0600
  31   2.0000      -7.219686      -196.4576
  32   2.0000      -1.413596       -38.4659
  33   2.0000      -1.368452       -37.2375
  34   2.0000      -1.365901       -37.1681
  35   2.0000      -1.300772       -35.3958
  36   2.0000      -1.248130       -33.9633
  37   2.0000      -1.110808       -30.2266
  38   2.0000      -1.095719       -29.8160
  39   2.0000      -1.076433       -29.2912
  40   2.0000      -1.063675       -28.9441
  41   2.0000      -1.031721       -28.0745
  42   2.0000      -0.984925       -26.8012
  43   2.0000      -0.970132       -26.3986
  44   2.0000      -0.967052       -26.3148
  45   2.0000      -0.959962       -26.1219
  46   2.0000      -0.946856       -25.7653
  47   2.0000      -0.937870       -25.5207
  48   2.0000      -0.932080       -25.3632
  49   2.0000      -0.884682       -24.0734
  50   2.0000      -0.863029       -23.4842
  51   2.0000      -0.838275       -22.8106
  52   2.0000      -0.824217       -22.4281
  53   2.0000      -0.799548       -21.7568
  54   2.0000      -0.786193       -21.3934
  55   2.0000      -0.776010       -21.1163
  56   2.0000      -0.773588       -21.0504
  57   2.0000      -0.748875       -20.3779
  58   2.0000      -0.731439       -19.9035
  59   2.0000      -0.728544       -19.8247
  60   2.0000      -0.708434       -19.2775
  61   2.0000      -0.704211       -19.1625
  62   2.0000      -0.682426       -18.5698
  63   2.0000      -0.671610       -18.2754
  64   2.0000      -0.660659       -17.9775
  65   2.0000      -0.647847       -17.6288
  66   2.0000      -0.637740       -17.3538
  67   2.0000      -0.634348       -17.2615
  68   2.0000      -0.632990       -17.2245
  69   2.0000      -0.627633       -17.0788
  70   2.0000      -0.626618       -17.0511
  71   2.0000      -0.621318       -16.9069
  72   2.0000      -0.612015       -16.6538
  73   2.0000      -0.604621       -16.4526
  74   2.0000      -0.597595       -16.2614
  75   2.0000      -0.596876       -16.2418
  76   2.0000      -0.590766       -16.0756
  77   2.0000      -0.587434       -15.9849
  78   2.0000      -0.581625       -15.8268
  79   2.0000      -0.578799       -15.7499
  80   2.0000      -0.574292       -15.6273
  81   2.0000      -0.557082       -15.1590
  82   2.0000      -0.556345       -15.1389
  83   2.0000      -0.553394       -15.0586
  84   2.0000      -0.550953       -14.9922
  85   2.0000      -0.540658       -14.7121
  86   2.0000      -0.528397       -14.3784
  87   2.0000      -0.525416       -14.2973
  88   2.0000      -0.521688       -14.1959
  89   2.0000      -0.521349       -14.1866
  90   2.0000      -0.520267       -14.1572
  91   2.0000      -0.512042       -13.9334
  92   2.0000      -0.506696       -13.7879
  93   2.0000      -0.506346       -13.7784
  94   2.0000      -0.503556       -13.7024
  95   2.0000      -0.495912       -13.4945
  96   2.0000      -0.488865       -13.3027
  97   2.0000      -0.487742       -13.2721
  98   2.0000      -0.478039       -13.0081
  99   2.0000      -0.462222       -12.5777
 100   2.0000      -0.461705       -12.5636
 101   2.0000      -0.458942       -12.4885
 102   2.0000      -0.435501       -11.8506
 103   2.0000      -0.415961       -11.3189
 104   2.0000      -0.383757       -10.4426
 105   2.0000      -0.363729        -9.8976
 106   2.0000      -0.356339        -9.6965
 107   2.0000      -0.350796        -9.5456
 108   2.0000      -0.343681        -9.3520
 109   2.0000      -0.332903        -9.0588
 110   2.0000      -0.320170        -8.7123
 111   0.0000      -0.033340        -0.9072
 112   0.0000       0.044262         1.2044
 113   0.0000       0.064480         1.7546
 114   0.0000       0.071970         1.9584
 115   0.0000       0.083003         2.2586

MULLIKEN ATOMIC CHARGES
-----------------------
   0 C :   -0.117013
   1 C :   -0.246206
   2 C :    0.177214
   3 C :    0.083238
   4 C :   -0.241157
   5 C :   -0.183614
   6 C :    0.302063
   7 C :    0.083756
   8 C :    0.173726
   9 C :   -0.245522
  10 H :    0.208863
  11 C :   -0.116442
  12 C :   -0.182588
  13 C :   -0.245883
  14 H :    0.196692
  15 H :    0.209678
  16 H :    0.218541
  17 H :    0.190491
  18 H :    0.196942
  19 H :    0.190116
  20 H :    0.218763
  21 N :    0.120252
  22 C :    0.000951
  23 C :   -0.369615
  24 C :   -0.290806
  25 C :   -0.014408
  26 C :   -0.174362
  27 C :   -0.226363
  28 H :    0.176748
  29 H :    0.194923
  30 C :   -0.039856
  31 C :   -0.235625
  32 C :   -0.209834
  33 C :   -0.232791
  34 H :    0.192384
  35 C :   -0.204049
  36 H :    0.189409
  37 C :    0.346383
  38 H :    0.196315
  39 H :    0.176825
  40 O :   -0.312117
  41 C :   -0.257836
  42 H :    0.169917
  43 H :    0.157558
  44 H :    0.157035
  45 H :    0.184924
  46 H :    0.169276
  47 B :    0.623099
  48 F :   -0.454834
  49 F :   -0.452327
  50 F :   -0.452833
Sum of atomic charges:    0.0000000

LOEWDIN ATOMIC CHARGES
----------------------
   0 C :   -0.082771
   1 C :   -0.104535
   2 C :   -0.057845
   3 C :   -0.055293
   4 C :   -0.060803
   5 C :   -0.132615
   6 C :    0.068519
   7 C :   -0.055592
   8 C :   -0.057973
   9 C :   -0.104246
  10 H :    0.173049
  11 C :   -0.082947
  12 C :   -0.132750
  13 C :   -0.061602
  14 H :    0.166993
  15 H :    0.173054
  16 H :    0.173923
  17 H :    0.162118
  18 H :    0.166988
  19 H :    0.162028
  20 H :    0.173562
  21 N :    0.357454
  22 C :   -0.111894
  23 C :   -0.061728
  24 C :   -0.103349
  25 C :   -0.066131
  26 C :   -0.146774
  27 C :   -0.102318
  28 H :    0.155496
  29 H :    0.163654
  30 C :   -0.178985
  31 C :   -0.088552
  32 C :   -0.091557
  33 C :   -0.129277
  34 H :    0.170095
  35 C :   -0.113007
  36 H :    0.169685
  37 C :   -0.240459
  38 H :    0.165353
  39 H :    0.161927
  40 O :    0.214202
  41 C :   -0.308384
  42 H :    0.120183
  43 H :    0.116493
  44 H :    0.116368
  45 H :    0.167300
  46 H :    0.157469
  47 B :   -1.267845
  48 F :    0.116618
  49 F :    0.121051
  50 F :    0.105650

  Mayer bond orders larger than 0.100000
B(  0-C ,  1-C ) :   1.5480 B(  0-C ,  5-C ) :   1.2236 B(  0-C , 14-H ) :   0.9633
B(  1-C ,  2-C ) :   1.2284 B(  1-C , 15-H ) :   0.9590 B(  2-C ,  3-C ) :   1.2808
B(  2-C , 21-N ) :   1.2296 B(  3-C ,  4-C ) :   1.1845 B(  3-C ,  6-C ) :   1.2011
B(  4-C ,  5-C ) :   1.6092 B(  4-C , 16-H ) :   0.9405 B(  5-C , 17-H ) :   0.9727
B(  6-C ,  7-C ) :   1.1939 B(  6-C , 22-C ) :   0.8462 B(  7-C ,  8-C ) :   1.2858
B(  7-C , 13-C ) :   1.1873 B(  8-C ,  9-C ) :   1.2295 B(  8-C , 21-N ) :   1.2299
B(  9-C , 10-H ) :   0.9587 B(  9-C , 11-C ) :   1.5509 B( 11-C , 12-C ) :   1.2241
B( 11-C , 18-H ) :   0.9622 B( 12-C , 13-C ) :   1.6038 B( 12-C , 19-H ) :   0.9739
B( 13-C , 20-H ) :   0.9422 B( 21-N , 30-C ) :   0.7024 B( 22-C , 23-C ) :   1.3369
B( 22-C , 24-C ) :   1.3371 B( 23-C , 25-C ) :   1.3776 B( 23-C , 45-H ) :   0.9806
B( 24-C , 26-C ) :   1.4441 B( 24-C , 29-H ) :   0.9810 B( 25-C , 27-C ) :   1.3905
B( 25-C , 47-B ) :   0.9382 B( 26-C , 27-C ) :   1.3847 B( 26-C , 28-H ) :   0.9802
B( 27-C , 46-H ) :   0.9653 B( 30-C , 31-C ) :   1.4998 B( 30-C , 32-C ) :   1.4461
B( 31-C , 33-C ) :   1.3740 B( 31-C , 34-H ) :   0.9633 B( 32-C , 35-C ) :   1.4581
B( 32-C , 36-H ) :   0.9791 B( 33-C , 37-C ) :   1.3137 B( 33-C , 38-H ) :   0.9583
B( 35-C , 37-C ) :   1.3294 B( 35-C , 39-H ) :   0.9802 B( 37-C , 40-O ) :   1.1366
B( 40-O , 41-C ) :   0.8839 B( 41-C , 42-H ) :   0.9718 B( 41-C , 43-H ) :   0.9696
B( 41-C , 44-H ) :   0.9697 B( 47-B , 48-F ) :   0.8831 B( 47-B , 49-F ) :   0.8876
B( 47-B , 50-F ) :   0.8991

MP2 TOTAL ENERGY:    -1454.665386556 Eh

-----------------------------------------------------------------------------
         ABSORPTION SPECTRUM VIA TRANSITION ELECTRIC DIPOLE MOMENTS
-----------------------------------------------------------------------------
State   Energy    Wavelength  fosc         T2        TX        TY        TZ
        (cm-1)      (nm)                 (au**2)    (au)      (au)      (au)
-----------------------------------------------------------------------------
   1   26125.2    382.8   0.321359683   4.04956  -1.99334   0.20035  -0.18974
   2   31288.6    319.6   0.344708223   3.62694   0.15892   1.86381   0.35763
   3   33587.6    297.7   0.099505698   0.97531  -0.97351   0.13347  -0.09891
   4   35010.8    285.6   0.083429440   0.78450   0.15720   0.86521   0.10584
   5   36198.1    276.3   0.051089755   0.46465  -0.02443   0.53544   0.42113
   6   34627.4    288.8   0.003207727   0.03050  -0.14330  -0.07690  -0.06364
   7   40850.1    244.8   0.034771113   0.28022   0.00517  -0.06554   0.52526
   8   42597.3    234.8   1.278147896   9.87813   0.28297   3.07256   0.59788
   9   43516.8    229.8   0.033207663   0.25122   0.12462  -0.47338  -0.10770
  10   47391.6    211.0   0.138897285   0.96487  -0.92649   0.12286  -0.30229
  11   48771.1    205.0   0.006131642   0.04139  -0.17256  -0.09487   0.05110
  12   47716.7    209.6   0.113158197   0.78071   0.86110   0.19777   0.00995
  13   44625.1    224.1   0.056268642   0.41511   0.26678  -0.58646   0.00077
  14   47649.0    209.9   0.139922724   0.96674  -0.98238   0.03891  -0.01237
  15   48146.5    207.7   0.024754953   0.16927   0.00005  -0.33337   0.24111
  16   49380.3    202.5   0.002894252   0.01930  -0.13586   0.02887  -0.00238
  17   48662.4    205.5   0.016366818   0.11073   0.13877  -0.17145   0.24914
  18   52181.7    191.6   0.904844645   5.70862   2.36498  -0.24180   0.23875
  19   53393.2    187.3   1.631687774  10.06067   3.14776  -0.32229   0.21994
  20   53735.9    186.1   0.439696859   2.69380  -0.44518  -1.11586   1.11825
  21   52895.7    189.1   0.072808887   0.45315  -0.42292   0.08517  -0.51675
  22   53847.8    185.7   0.421964589   2.57979   0.01794   0.26336  -1.58433
  23   53652.9    186.4   0.040973214   0.25141   0.02025   0.46210   0.19354
  24   52751.9    189.6   0.015517031   0.09684   0.18797   0.09836  -0.22766
  25   53539.6    186.8   0.007272151   0.04472  -0.13275  -0.00962   0.16432
  26   52396.3    190.9   0.068332344   0.42934   0.11005   0.15160  -0.62789
  27   54844.1    182.3   0.001001799   0.00601  -0.05157   0.00294   0.05784
  28   55037.8    181.7   0.005697788   0.03408  -0.06486  -0.16909  -0.03585
  29   55365.7    180.6   0.182229347   1.08356  -0.15331  -1.02168  -0.12740
  30   56517.4    176.9   0.015793327   0.09200   0.04563   0.23067  -0.19159

FINAL SINGLE POINT ENERGY     -1452.970349323155

DIPOLE MOMENT
-------------
                                X             Y             Z
Electronic contribution:    -37.79231      -4.49426       4.65320
Nuclear contribution   :     50.26136       6.51485      -7.04355
                        -----------------------------------------
Total Dipole Moment    :     12.46906       2.02059      -2.39035
                        -----------------------------------------
Magnitude (a.u.)       :     12.85589
Magnitude (Debye)      :     32.67708

Rotational constants in cm-1:     0.009893     0.002157     0.001956
Rotational constants in MHz :   296.592255    64.672752    58.643006

                             ****ORCA TERMINATED NORMALLY****
TOTAL RUN TIME: 0 days 2 hours 7 minutes 23 seconds 657 msec
