                         Program Version 5.0.2 -  RELEASE  -
|  1> %maxcore 24000
|  2> %pal
|  3>  nprocs= 8
|  4> end
|  5> ! RI-DSD-BLYP D3BJ def2-TZVP def2/J def2-TZVP/C RIJCOSX CPCM TightSCF
|  6> %TDDFT
|  7>    NROOTS   30
|  8>    dcorr 4
|  9>    doscs true
| 10>    scspar 0.333, 1.2, 0.43, 1.24
| 11>    TDA      FALSE
| 12> END
| 13>
| 14> %CPCM
| 15>    SMD          TRUE
| 16>    SMDsolvent   "ACETONITRILE"
| 17> END
| 18>
| 19>
| 20> * xyz 0 1
| 21> C                   0.80076000   -3.36589900   -0.94031900
| 22> C                   1.56762900   -2.27623000   -0.62942800
| 23> C                   0.96864500   -1.01160700   -0.49117200
| 24> C                  -0.44255300   -0.87352900   -0.64853800
| 25> C                  -1.18590300   -2.02861200   -1.00217200
| 26> C                  -0.58402200   -3.24407300   -1.14214400
| 27> C                  -1.04536500    0.38971900   -0.48459700
| 28> C                  -0.23230800    1.50034600   -0.18168400
| 29> C                   1.18007700    1.33535500   -0.06854800
| 30> C                   1.99463300    2.44870900    0.20421000
| 31> H                   3.06488400    2.32622300    0.27219300
| 32> C                   1.42954700    3.68117400    0.38824000
| 33> C                   0.03728200    3.85668200    0.32650400
| 34> C                  -0.76922900    2.79221000    0.05136000
| 35> H                   1.27586800   -4.33274800   -1.04429700
| 36> H                   2.63304700   -2.38282800   -0.49297200
| 37> H                  -2.24810800   -1.92751400   -1.17021500
| 38> H                  -1.16822400   -4.11245700   -1.41435200
| 39> H                   2.06898500    4.52853700    0.59883000
| 40> H                  -0.39205700    4.83309100    0.50480200
| 41> H                  -1.84130000    2.91962600    0.01922100
| 42> N                   1.73133400    0.09124300   -0.21623500
| 43> C                  -2.50193500    0.54536800   -0.62499200
| 44> C                  -3.37339600   -0.15174800    0.21585900
| 45> C                  -3.03314500    1.39038600   -1.60213500
| 46> C                  -4.75851700   -0.02611000    0.12108100
| 47> C                  -4.40600100    1.51149800   -1.73173800
| 48> C                  -5.25209500    0.81581100   -0.87831200
| 49> H                  -4.81458700    2.15195300   -2.50405100
| 50> H                  -2.36763700    1.92865700   -2.26612000
| 51> C                   3.16334700   -0.06177200   -0.07966600
| 52> C                   3.70948900   -0.28724400    1.16966700
| 53> C                   3.97063200    0.02202900   -1.20573100
| 54> C                   5.08134600   -0.43082800    1.30875300
| 55> H                   3.06345200   -0.34961500    2.03630500
| 56> C                   5.33582800   -0.11988400   -1.07392300
| 57> H                   3.52548100    0.19786300   -2.17684500
| 58> C                   5.90122600   -0.34596100    0.18395200
| 59> H                   5.50110900   -0.60692400    2.28838700
| 60> H                   5.98483800   -0.05777300   -1.93736300
| 61> O                   7.24318800   -0.46851000    0.21328700
| 62> C                   7.85720000   -0.69379500    1.47383200
| 63> H                   8.92467000   -0.75678800    1.28283800
| 64> H                   7.66326500    0.12905600    2.16531000
| 65> H                   7.51646700   -1.62934700    1.92283400
| 66> H                  -2.94792200   -0.80015300    0.97571000
| 67> H                  -6.32510800    0.92661900   -0.99429800
| 68> B                  -5.72909500   -0.79870600    1.14661100
| 69> F                  -5.21212800   -2.07360400    1.49079400
| 70> F                  -7.02282600   -0.98445000    0.60252600
| 71> F                  -5.87788200   -0.06578200    2.35759400
| 72> *
| 73>
| 74>
| 75>                          ****END OF INPUT****

CARTESIAN COORDINATES (ANGSTROEM)
---------------------------------
  C      0.800760   -3.365899   -0.940319
  C      1.567629   -2.276230   -0.629428
  C      0.968645   -1.011607   -0.491172
  C     -0.442553   -0.873529   -0.648538
  C     -1.185903   -2.028612   -1.002172
  C     -0.584022   -3.244073   -1.142144
  C     -1.045365    0.389719   -0.484597
  C     -0.232308    1.500346   -0.181684
  C      1.180077    1.335355   -0.068548
  C      1.994633    2.448709    0.204210
  H      3.064884    2.326223    0.272193
  C      1.429547    3.681174    0.388240
  C      0.037282    3.856682    0.326504
  C     -0.769229    2.792210    0.051360
  H      1.275868   -4.332748   -1.044297
  H      2.633047   -2.382828   -0.492972
  H     -2.248108   -1.927514   -1.170215
  H     -1.168224   -4.112457   -1.414352
  H      2.068985    4.528537    0.598830
  H     -0.392057    4.833091    0.504802
  H     -1.841300    2.919626    0.019221
  N      1.731334    0.091243   -0.216235
  C     -2.501935    0.545368   -0.624992
  C     -3.373396   -0.151748    0.215859
  C     -3.033145    1.390386   -1.602135
  C     -4.758517   -0.026110    0.121081
  C     -4.406001    1.511498   -1.731738
  C     -5.252095    0.815811   -0.878312
  H     -4.814587    2.151953   -2.504051
  H     -2.367637    1.928657   -2.266120
  C      3.163347   -0.061772   -0.079666
  C      3.709489   -0.287244    1.169667
  C      3.970632    0.022029   -1.205731
  C      5.081346   -0.430828    1.308753
  H      3.063452   -0.349615    2.036305
  C      5.335828   -0.119884   -1.073923
  H      3.525481    0.197863   -2.176845
  C      5.901226   -0.345961    0.183952
  H      5.501109   -0.606924    2.288387
  H      5.984838   -0.057773   -1.937363
  O      7.243188   -0.468510    0.213287
  C      7.857200   -0.693795    1.473832
  H      8.924670   -0.756788    1.282838
  H      7.663265    0.129056    2.165310
  H      7.516467   -1.629347    1.922834
  H     -2.947922   -0.800153    0.975710
  H     -6.325108    0.926619   -0.994298
  B     -5.729095   -0.798706    1.146611
  F     -5.212128   -2.073604    1.490794
  F     -7.022826   -0.984450    0.602526
  F     -5.877882   -0.065782    2.357594

 Total Charge           Charge          ....    0
 Multiplicity           Mult            ....    1
 Number of Electrons    NEL             ....  222
 Basis Dimension        Dim             .... 1106

ORBITAL ENERGIES
----------------

  NO   OCC          E(Eh)            E(eV)
   0   2.0000     -25.613083      -696.9674
   1   2.0000     -25.612577      -696.9537
   2   2.0000     -25.610984      -696.9103
   3   2.0000     -20.042729      -545.3904
   4   2.0000     -15.183833      -413.1731
   5   2.0000     -10.918836      -297.1166
   6   2.0000     -10.918755      -297.1144
   7   2.0000     -10.904910      -296.7377
   8   2.0000     -10.903076      -296.6878
   9   2.0000     -10.874832      -295.9192
  10   2.0000     -10.868340      -295.7426
  11   2.0000     -10.868207      -295.7390
  12   2.0000     -10.867055      -295.7076
  13   2.0000     -10.854792      -295.3739
  14   2.0000     -10.854679      -295.3708
  15   2.0000     -10.850138      -295.2473
  16   2.0000     -10.849779      -295.2375
  17   2.0000     -10.845461      -295.1200
  18   2.0000     -10.844624      -295.0972
  19   2.0000     -10.843832      -295.0757
  20   2.0000     -10.842086      -295.0281
  21   2.0000     -10.841882      -295.0226
  22   2.0000     -10.837878      -294.9137
  23   2.0000     -10.837566      -294.9052
  24   2.0000     -10.832821      -294.7761
  25   2.0000     -10.831804      -294.7484
  26   2.0000     -10.831720      -294.7461
  27   2.0000     -10.827457      -294.6301
  28   2.0000     -10.824729      -294.5559
  29   2.0000     -10.822377      -294.4919
  30   2.0000     -10.797613      -293.8180
  31   2.0000      -7.321813      -199.2367
  32   2.0000      -1.412612       -38.4391
  33   2.0000      -1.368215       -37.2310
  34   2.0000      -1.365692       -37.1624
  35   2.0000      -1.288546       -35.0631
  36   2.0000      -1.228528       -33.4300
  37   2.0000      -1.086679       -29.5700
  38   2.0000      -1.071378       -29.1537
  39   2.0000      -1.052160       -28.6307
  40   2.0000      -1.039294       -28.2806
  41   2.0000      -1.006195       -27.3800
  42   2.0000      -0.958288       -26.0763
  43   2.0000      -0.943076       -25.6624
  44   2.0000      -0.940801       -25.6005
  45   2.0000      -0.933749       -25.4086
  46   2.0000      -0.920843       -25.0574
  47   2.0000      -0.911560       -24.8048
  48   2.0000      -0.905128       -24.6298
  49   2.0000      -0.855564       -23.2811
  50   2.0000      -0.834020       -22.6948
  51   2.0000      -0.807649       -21.9772
  52   2.0000      -0.793123       -21.5820
  53   2.0000      -0.768639       -20.9157
  54   2.0000      -0.755416       -20.5559
  55   2.0000      -0.745134       -20.2761
  56   2.0000      -0.742906       -20.2155
  57   2.0000      -0.717169       -19.5152
  58   2.0000      -0.697401       -18.9773
  59   2.0000      -0.695440       -18.9239
  60   2.0000      -0.673159       -18.3176
  61   2.0000      -0.672638       -18.3034
  62   2.0000      -0.648228       -17.6392
  63   2.0000      -0.636934       -17.3319
  64   2.0000      -0.624295       -16.9879
  65   2.0000      -0.615436       -16.7469
  66   2.0000      -0.605924       -16.4880
  67   2.0000      -0.603110       -16.4115
  68   2.0000      -0.599307       -16.3080
  69   2.0000      -0.593743       -16.1566
  70   2.0000      -0.591800       -16.1037
  71   2.0000      -0.585793       -15.9402
  72   2.0000      -0.579969       -15.7818
  73   2.0000      -0.566823       -15.4241
  74   2.0000      -0.563641       -15.3374
  75   2.0000      -0.562488       -15.3061
  76   2.0000      -0.555076       -15.1044
  77   2.0000      -0.553969       -15.0743
  78   2.0000      -0.547032       -14.8855
  79   2.0000      -0.545285       -14.8379
  80   2.0000      -0.540167       -14.6987
  81   2.0000      -0.527068       -14.3422
  82   2.0000      -0.525740       -14.3061
  83   2.0000      -0.521060       -14.1788
  84   2.0000      -0.515993       -14.0409
  85   2.0000      -0.506888       -13.7931
  86   2.0000      -0.495599       -13.4859
  87   2.0000      -0.495338       -13.4788
  88   2.0000      -0.491666       -13.3789
  89   2.0000      -0.482177       -13.1207
  90   2.0000      -0.480293       -13.0694
  91   2.0000      -0.478759       -13.0277
  92   2.0000      -0.476070       -12.9545
  93   2.0000      -0.471128       -12.8200
  94   2.0000      -0.468171       -12.7396
  95   2.0000      -0.462521       -12.5858
  96   2.0000      -0.455677       -12.3996
  97   2.0000      -0.448990       -12.2176
  98   2.0000      -0.439270       -11.9531
  99   2.0000      -0.428492       -11.6599
 100   2.0000      -0.427612       -11.6359
 101   2.0000      -0.422369       -11.4932
 102   2.0000      -0.395228       -10.7547
 103   2.0000      -0.381492       -10.3809
 104   2.0000      -0.342970        -9.3327
 105   2.0000      -0.323916        -8.8142
 106   2.0000      -0.318561        -8.6685
 107   2.0000      -0.311312        -8.4712
 108   2.0000      -0.304246        -8.2790
 109   2.0000      -0.295376        -8.0376
 110   2.0000      -0.283280        -7.7084
 111   0.0000      -0.047283        -1.2866
 112   0.0000       0.029163         0.7936
 113   0.0000       0.048403         1.3171
 114   0.0000       0.055418         1.5080
 115   0.0000       0.066431         1.8077

MULLIKEN ATOMIC CHARGES
-----------------------
   0 C :   -0.090618
   1 C :   -0.256023
   2 C :    0.198919
   3 C :    0.091053
   4 C :   -0.258393
   5 C :   -0.167568
   6 C :    0.342097
   7 C :    0.090276
   8 C :    0.193694
   9 C :   -0.255716
  10 H :    0.186385
  11 C :   -0.090047
  12 C :   -0.165485
  13 C :   -0.263585
  14 H :    0.178665
  15 H :    0.187360
  16 H :    0.196589
  17 H :    0.173057
  18 H :    0.178910
  19 H :    0.172627
  20 H :    0.197197
  21 N :    0.129169
  22 C :    0.077929
  23 C :   -0.403554
  24 C :   -0.312426
  25 C :   -0.019574
  26 C :   -0.151593
  27 C :   -0.224294
  28 H :    0.158424
  29 H :    0.172570
  30 C :    0.088336
  31 C :   -0.253100
  32 C :   -0.229817
  33 C :   -0.236197
  34 H :    0.172643
  35 C :   -0.202540
  36 H :    0.169599
  37 C :    0.387644
  38 H :    0.175226
  39 H :    0.156191
  40 O :   -0.347988
  41 C :   -0.187092
  42 H :    0.153495
  43 H :    0.138624
  44 H :    0.138064
  45 H :    0.161193
  46 H :    0.153178
  47 B :    0.750444
  48 F :   -0.486052
  49 F :   -0.483462
  50 F :   -0.484436
Sum of atomic charges:    0.0000000

LOEWDIN ATOMIC CHARGES
----------------------
   0 C :   -0.078970
   1 C :   -0.101927
   2 C :   -0.054858
   3 C :   -0.053867
   4 C :   -0.057178
   5 C :   -0.129532
   6 C :    0.070140
   7 C :   -0.054185
   8 C :   -0.054979
   9 C :   -0.101645
  10 H :    0.168855
  11 C :   -0.079126
  12 C :   -0.129653
  13 C :   -0.058039
  14 H :    0.162533
  15 H :    0.168853
  16 H :    0.169746
  17 H :    0.157722
  18 H :    0.162527
  19 H :    0.157634
  20 H :    0.169378
  21 N :    0.351604
  22 C :   -0.108400
  23 C :   -0.057910
  24 C :   -0.099688
  25 C :   -0.063890
  26 C :   -0.143897
  27 C :   -0.098920
  28 H :    0.150941
  29 H :    0.159031
  30 C :   -0.172370
  31 C :   -0.084662
  32 C :   -0.087519
  33 C :   -0.126141
  34 H :    0.165337
  35 C :   -0.110153
  36 H :    0.164959
  37 C :   -0.233207
  38 H :    0.161130
  39 H :    0.157363
  40 O :    0.203693
  41 C :   -0.291093
  42 H :    0.115211
  43 H :    0.111694
  44 H :    0.111567
  45 H :    0.162800
  46 H :    0.153264
  47 B :   -1.222907
  48 F :    0.101769
  49 F :    0.106250
  50 F :    0.090715

  Mayer bond orders larger than 0.100000
B(  0-C ,  1-C ) :   1.5320 B(  0-C ,  5-C ) :   1.2215 B(  0-C , 14-H ) :   0.9719
B(  1-C ,  2-C ) :   1.2534 B(  1-C , 15-H ) :   0.9723 B(  2-C ,  3-C ) :   1.2563
B(  2-C , 21-N ) :   1.2292 B(  3-C ,  4-C ) :   1.1911 B(  3-C ,  6-C ) :   1.1825
B(  3-C , 22-C ) :  -0.1104 B(  4-C ,  5-C ) :   1.5981 B(  4-C , 16-H ) :   0.9596
B(  5-C , 17-H ) :   0.9828 B(  6-C ,  7-C ) :   1.1753 B(  6-C , 22-C ) :   0.8222
B(  7-C ,  8-C ) :   1.2637 B(  7-C , 13-C ) :   1.1938 B(  7-C , 22-C ) :  -0.1078
B(  8-C ,  9-C ) :   1.2543 B(  8-C , 21-N ) :   1.2297 B(  9-C , 10-H ) :   0.9721
B(  9-C , 11-C ) :   1.5349 B( 11-C , 12-C ) :   1.2221 B( 11-C , 18-H ) :   0.9708
B( 12-C , 13-C ) :   1.5920 B( 12-C , 19-H ) :   0.9842 B( 13-C , 20-H ) :   0.9614
B( 21-N , 30-C ) :   0.6968 B( 22-C , 23-C ) :   1.3349 B( 22-C , 24-C ) :   1.3407
B( 23-C , 25-C ) :   1.3890 B( 23-C , 45-H ) :   1.0009 B( 24-C , 26-C ) :   1.4469
B( 24-C , 29-H ) :   0.9931 B( 25-C , 27-C ) :   1.3997 B( 25-C , 47-B ) :   0.9147
B( 26-C , 27-C ) :   1.3734 B( 26-C , 28-H ) :   0.9886 B( 27-C , 46-H ) :   0.9761
B( 30-C , 31-C ) :   1.5139 B( 30-C , 32-C ) :   1.4594 B( 31-C , 33-C ) :   1.3791
B( 31-C , 34-H ) :   0.9748 B( 32-C , 35-C ) :   1.4596 B( 32-C , 36-H ) :   0.9903
B( 33-C , 37-C ) :   1.3227 B( 33-C , 38-H ) :   0.9737 B( 35-C , 37-C ) :   1.3257
B( 35-C , 39-H ) :   0.9959 B( 37-C , 40-O ) :   1.1124 B( 40-O , 41-C ) :   0.8782
B( 41-C , 42-H ) :   0.9751 B( 41-C , 43-H ) :   0.9741 B( 41-C , 44-H ) :   0.9741
B( 47-B , 48-F ) :   0.8356 B( 47-B , 49-F ) :   0.8411 B( 47-B , 50-F ) :   0.8523

MP2 TOTAL ENERGY:    -1455.541247459 Eh

-----------------------------------------------------------------------------
         ABSORPTION SPECTRUM VIA TRANSITION ELECTRIC DIPOLE MOMENTS
-----------------------------------------------------------------------------
State   Energy    Wavelength  fosc         T2        TX        TY        TZ
        (cm-1)      (nm)                 (au**2)    (au)      (au)      (au)
-----------------------------------------------------------------------------
   1   15991.5    625.3   0.189112475   3.89319  -1.95429   0.19800  -0.18642
   2   21254.5    470.5   0.241286336   3.73730   0.14540   1.89558   0.35061
   3   19953.7    501.2   0.052977456   0.87406  -0.92584   0.05284  -0.11867
   4   18880.2    529.7   0.006813932   0.11881  -0.15818  -0.29134   0.09442
   5   13283.1    752.8   0.000890930   0.02208  -0.14339   0.03263   0.02132
   6   23000.2    434.8   0.043201591   0.61836  -0.01322  -0.70200  -0.35409
   7   28009.1    357.0   0.024863714   0.29224  -0.00075  -0.19518   0.50413
   8   27542.3    363.1   0.569091300   6.80231   0.22809   2.52838   0.59797
   9   25573.4    391.0   0.273162297   3.51647  -0.18897  -1.84298  -0.29017
  10   30029.5    333.0   0.037064155   0.40633   0.10267  -0.62810  -0.03582
  11   43444.5    230.2   0.105566212   0.79995  -0.84335   0.11737  -0.27376
  12   45025.1    222.1   0.004824642   0.03528  -0.16833  -0.08308  -0.00618
  13   41029.4    243.7   0.109960257   0.88230   0.93827  -0.04367   0.00589
  14   35393.1    282.5   0.038172059   0.35506  -0.09001  -0.57176   0.14160
  15   32776.5    305.1   0.033133017   0.33279   0.57516  -0.04441  -0.00412
  16   36724.8    272.3   0.008090327   0.07252   0.26927   0.00279   0.00311
  17   31765.5    314.8   0.019457426   0.20165  -0.16559   0.23072  -0.34785
  18   40698.5    245.7   0.675204571   5.46176   2.32296  -0.19861   0.16170
  19   29242.6    342.0   0.054043090   0.60841   0.72739  -0.01864  -0.28102
  20   44495.2    224.7   1.420334177  10.50879  -3.16860   0.43165  -0.53142
  21   37927.6    263.7   0.139376839   1.20979   0.65616   0.54566  -0.69390
  22   39514.5    253.1   0.088011495   0.73326  -0.02221  -0.54465   0.66039
  23   39992.8    250.0   0.108470963   0.89291   0.39368   0.60651  -0.60834
  24   38012.1    263.1   0.002413901   0.02091  -0.03143   0.11347   0.08393
  25   44243.8    226.0   0.338817436   2.52109   0.01777   0.17894  -1.57758
  26   34642.9    288.7   0.037152942   0.35306   0.35642  -0.04950  -0.47284
  27   37468.0    266.9   0.073359424   0.64457   0.39595   0.69723   0.04072
  28   34034.1    293.8   0.025079363   0.24259   0.35962  -0.33229  -0.05340
  29   41238.9    242.5   0.107333374   0.85685   0.05257   0.92191  -0.06458
  30   39394.3    253.8   0.002298003   0.01920   0.06552   0.09265  -0.07955

Dispersion correction           -0.049962131
FINAL SINGLE POINT ENERGY     -1452.903353666999

DIPOLE MOMENT
-------------
                                X             Y             Z
Electronic contribution:    -37.83610      -4.49780       4.65353
Nuclear contribution   :     50.26136       6.51485      -7.04355
                        -----------------------------------------
Total Dipole Moment    :     12.42526       2.01705      -2.39002
                        -----------------------------------------
Magnitude (a.u.)       :     12.81280
Magnitude (Debye)      :     32.56755

Rotational constants in cm-1:     0.009893     0.002157     0.001956
Rotational constants in MHz :   296.592255    64.672752    58.643006

                             ****ORCA TERMINATED NORMALLY****
TOTAL RUN TIME: 0 days 2 hours 9 minutes 17 seconds 237 msec
