                         Program Version 5.0.2 -  RELEASE  -
|  1> %maxcore 20000
|  2> %pal
|  3>  nprocs= 6
|  4> end
|  5> ! RI-SCS-PBE-QIDH   def2-TZVP def2/J def2-TZVP/C RIJCOSX CPCM TightSCF
|  6> %TDDFT
|  7>    NROOTS   30
|  8>    dcorr 4
|  9>    doscs true
| 10>    TDA      FALSE
| 11> END
| 12>
| 13> %CPCM
| 14>    SMD          TRUE
| 15>    SMDsolvent   "ACETONITRILE"
| 16> END
| 17>
| 18>
| 19> * xyz 0 1
| 20> C                   0.80076000   -3.36589900   -0.94031900
| 21> C                   1.56762900   -2.27623000   -0.62942800
| 22> C                   0.96864500   -1.01160700   -0.49117200
| 23> C                  -0.44255300   -0.87352900   -0.64853800
| 24> C                  -1.18590300   -2.02861200   -1.00217200
| 25> C                  -0.58402200   -3.24407300   -1.14214400
| 26> C                  -1.04536500    0.38971900   -0.48459700
| 27> C                  -0.23230800    1.50034600   -0.18168400
| 28> C                   1.18007700    1.33535500   -0.06854800
| 29> C                   1.99463300    2.44870900    0.20421000
| 30> H                   3.06488400    2.32622300    0.27219300
| 31> C                   1.42954700    3.68117400    0.38824000
| 32> C                   0.03728200    3.85668200    0.32650400
| 33> C                  -0.76922900    2.79221000    0.05136000
| 34> H                   1.27586800   -4.33274800   -1.04429700
| 35> H                   2.63304700   -2.38282800   -0.49297200
| 36> H                  -2.24810800   -1.92751400   -1.17021500
| 37> H                  -1.16822400   -4.11245700   -1.41435200
| 38> H                   2.06898500    4.52853700    0.59883000
| 39> H                  -0.39205700    4.83309100    0.50480200
| 40> H                  -1.84130000    2.91962600    0.01922100
| 41> N                   1.73133400    0.09124300   -0.21623500
| 42> C                  -2.50193500    0.54536800   -0.62499200
| 43> C                  -3.37339600   -0.15174800    0.21585900
| 44> C                  -3.03314500    1.39038600   -1.60213500
| 45> C                  -4.75851700   -0.02611000    0.12108100
| 46> C                  -4.40600100    1.51149800   -1.73173800
| 47> C                  -5.25209500    0.81581100   -0.87831200
| 48> H                  -4.81458700    2.15195300   -2.50405100
| 49> H                  -2.36763700    1.92865700   -2.26612000
| 50> C                   3.16334700   -0.06177200   -0.07966600
| 51> C                   3.70948900   -0.28724400    1.16966700
| 52> C                   3.97063200    0.02202900   -1.20573100
| 53> C                   5.08134600   -0.43082800    1.30875300
| 54> H                   3.06345200   -0.34961500    2.03630500
| 55> C                   5.33582800   -0.11988400   -1.07392300
| 56> H                   3.52548100    0.19786300   -2.17684500
| 57> C                   5.90122600   -0.34596100    0.18395200
| 58> H                   5.50110900   -0.60692400    2.28838700
| 59> H                   5.98483800   -0.05777300   -1.93736300
| 60> O                   7.24318800   -0.46851000    0.21328700
| 61> C                   7.85720000   -0.69379500    1.47383200
| 62> H                   8.92467000   -0.75678800    1.28283800
| 63> H                   7.66326500    0.12905600    2.16531000
| 64> H                   7.51646700   -1.62934700    1.92283400
| 65> H                  -2.94792200   -0.80015300    0.97571000
| 66> H                  -6.32510800    0.92661900   -0.99429800
| 67> B                  -5.72909500   -0.79870600    1.14661100
| 68> F                  -5.21212800   -2.07360400    1.49079400
| 69> F                  -7.02282600   -0.98445000    0.60252600
| 70> F                  -5.87788200   -0.06578200    2.35759400
| 71> *
| 72>
| 73>
| 74>                          ****END OF INPUT****

CARTESIAN COORDINATES (ANGSTROEM)
---------------------------------
  C      0.800760   -3.365899   -0.940319
  C      1.567629   -2.276230   -0.629428
  C      0.968645   -1.011607   -0.491172
  C     -0.442553   -0.873529   -0.648538
  C     -1.185903   -2.028612   -1.002172
  C     -0.584022   -3.244073   -1.142144
  C     -1.045365    0.389719   -0.484597
  C     -0.232308    1.500346   -0.181684
  C      1.180077    1.335355   -0.068548
  C      1.994633    2.448709    0.204210
  H      3.064884    2.326223    0.272193
  C      1.429547    3.681174    0.388240
  C      0.037282    3.856682    0.326504
  C     -0.769229    2.792210    0.051360
  H      1.275868   -4.332748   -1.044297
  H      2.633047   -2.382828   -0.492972
  H     -2.248108   -1.927514   -1.170215
  H     -1.168224   -4.112457   -1.414352
  H      2.068985    4.528537    0.598830
  H     -0.392057    4.833091    0.504802
  H     -1.841300    2.919626    0.019221
  N      1.731334    0.091243   -0.216235
  C     -2.501935    0.545368   -0.624992
  C     -3.373396   -0.151748    0.215859
  C     -3.033145    1.390386   -1.602135
  C     -4.758517   -0.026110    0.121081
  C     -4.406001    1.511498   -1.731738
  C     -5.252095    0.815811   -0.878312
  H     -4.814587    2.151953   -2.504051
  H     -2.367637    1.928657   -2.266120
  C      3.163347   -0.061772   -0.079666
  C      3.709489   -0.287244    1.169667
  C      3.970632    0.022029   -1.205731
  C      5.081346   -0.430828    1.308753
  H      3.063452   -0.349615    2.036305
  C      5.335828   -0.119884   -1.073923
  H      3.525481    0.197863   -2.176845
  C      5.901226   -0.345961    0.183952
  H      5.501109   -0.606924    2.288387
  H      5.984838   -0.057773   -1.937363
  O      7.243188   -0.468510    0.213287
  C      7.857200   -0.693795    1.473832
  H      8.924670   -0.756788    1.282838
  H      7.663265    0.129056    2.165310
  H      7.516467   -1.629347    1.922834
  H     -2.947922   -0.800153    0.975710
  H     -6.325108    0.926619   -0.994298
  B     -5.729095   -0.798706    1.146611
  F     -5.212128   -2.073604    1.490794
  F     -7.022826   -0.984450    0.602526
  F     -5.877882   -0.065782    2.357594

 Total Charge           Charge          ....    0
 Multiplicity           Mult            ....    1
 Number of Electrons    NEL             ....  222
 Basis Dimension        Dim             .... 1106

ORBITAL ENERGIES
----------------

  NO   OCC          E(Eh)            E(eV)
   0   2.0000     -25.604132      -696.7239
   1   2.0000     -25.603589      -696.7091
   2   2.0000     -25.601929      -696.6639
   3   2.0000     -20.039717      -545.3084
   4   2.0000     -15.183816      -413.1726
   5   2.0000     -10.914226      -296.9912
   6   2.0000     -10.914148      -296.9891
   7   2.0000     -10.900964      -296.6303
   8   2.0000     -10.897308      -296.5308
   9   2.0000     -10.870785      -295.8091
  10   2.0000     -10.864440      -295.6364
  11   2.0000     -10.864314      -295.6330
  12   2.0000     -10.857889      -295.4582
  13   2.0000     -10.849255      -295.2232
  14   2.0000     -10.849143      -295.2202
  15   2.0000     -10.844845      -295.1032
  16   2.0000     -10.844492      -295.0936
  17   2.0000     -10.841471      -295.0114
  18   2.0000     -10.839297      -294.9523
  19   2.0000     -10.838456      -294.9294
  20   2.0000     -10.836957      -294.8886
  21   2.0000     -10.836757      -294.8832
  22   2.0000     -10.832460      -294.7662
  23   2.0000     -10.832149      -294.7578
  24   2.0000     -10.827283      -294.6253
  25   2.0000     -10.826775      -294.6115
  26   2.0000     -10.826106      -294.5933
  27   2.0000     -10.822681      -294.5001
  28   2.0000     -10.819143      -294.4039
  29   2.0000     -10.817124      -294.3489
  30   2.0000     -10.793644      -293.7100
  31   2.0000      -7.310638      -198.9326
  32   2.0000      -1.422137       -38.6983
  33   2.0000      -1.377565       -37.4854
  34   2.0000      -1.375015       -37.4161
  35   2.0000      -1.300406       -35.3858
  36   2.0000      -1.241801       -33.7911
  37   2.0000      -1.099077       -29.9074
  38   2.0000      -1.083624       -29.4869
  39   2.0000      -1.064247       -28.9596
  40   2.0000      -1.051286       -28.6069
  41   2.0000      -1.017972       -27.7004
  42   2.0000      -0.969702       -26.3869
  43   2.0000      -0.954444       -25.9717
  44   2.0000      -0.951884       -25.9021
  45   2.0000      -0.944574       -25.7032
  46   2.0000      -0.931727       -25.3536
  47   2.0000      -0.922455       -25.1013
  48   2.0000      -0.915918       -24.9234
  49   2.0000      -0.865920       -23.5629
  50   2.0000      -0.844500       -22.9800
  51   2.0000      -0.818440       -22.2709
  52   2.0000      -0.803772       -21.8718
  53   2.0000      -0.778506       -21.1842
  54   2.0000      -0.765224       -20.8228
  55   2.0000      -0.755116       -20.5478
  56   2.0000      -0.752860       -20.4864
  57   2.0000      -0.726924       -19.7806
  58   2.0000      -0.707133       -19.2421
  59   2.0000      -0.705727       -19.2038
  60   2.0000      -0.683272       -18.5928
  61   2.0000      -0.681840       -18.5538
  62   2.0000      -0.657814       -17.9000
  63   2.0000      -0.646360       -17.5883
  64   2.0000      -0.634043       -17.2532
  65   2.0000      -0.624076       -16.9820
  66   2.0000      -0.613857       -16.7039
  67   2.0000      -0.610761       -16.6197
  68   2.0000      -0.607688       -16.5360
  69   2.0000      -0.602536       -16.3958
  70   2.0000      -0.600583       -16.3427
  71   2.0000      -0.594601       -16.1799
  72   2.0000      -0.587785       -15.9944
  73   2.0000      -0.576576       -15.6894
  74   2.0000      -0.571324       -15.5465
  75   2.0000      -0.570625       -15.5275
  76   2.0000      -0.564164       -15.3517
  77   2.0000      -0.561576       -15.2813
  78   2.0000      -0.555100       -15.1050
  79   2.0000      -0.553004       -15.0480
  80   2.0000      -0.547568       -14.9001
  81   2.0000      -0.533917       -14.5286
  82   2.0000      -0.532754       -14.4970
  83   2.0000      -0.528390       -14.3782
  84   2.0000      -0.524154       -14.2630
  85   2.0000      -0.514433       -13.9984
  86   2.0000      -0.502451       -13.6724
  87   2.0000      -0.502010       -13.6604
  88   2.0000      -0.498347       -13.5607
  89   2.0000      -0.491384       -13.3712
  90   2.0000      -0.489462       -13.3189
  91   2.0000      -0.485736       -13.2176
  92   2.0000      -0.485454       -13.2099
  93   2.0000      -0.478535       -13.0216
  94   2.0000      -0.475743       -12.9456
  95   2.0000      -0.469104       -12.7650
  96   2.0000      -0.462353       -12.5813
  97   2.0000      -0.458789       -12.4843
  98   2.0000      -0.449128       -12.2214
  99   2.0000      -0.435195       -11.8422
 100   2.0000      -0.434758       -11.8304
 101   2.0000      -0.431136       -11.7318
 102   2.0000      -0.405841       -11.0435
 103   2.0000      -0.388496       -10.5715
 104   2.0000      -0.353985        -9.6324
 105   2.0000      -0.334862        -9.1120
 106   2.0000      -0.329742        -8.9727
 107   2.0000      -0.322328        -8.7710
 108   2.0000      -0.315359        -8.5814
 109   2.0000      -0.305445        -8.3116
 110   2.0000      -0.293896        -7.9973
 111   0.0000      -0.058042        -1.5794
 112   0.0000       0.019124         0.5204
 113   0.0000       0.039364         1.0712
 114   0.0000       0.045938         1.2500
 115   0.0000       0.057268         1.5583

MULLIKEN ATOMIC CHARGES
-----------------------
   0 C :   -0.093195
   1 C :   -0.281297
   2 C :    0.206141
   3 C :    0.084411
   4 C :   -0.272243
   5 C :   -0.174075
   6 C :    0.346427
   7 C :    0.083173
   8 C :    0.200974
   9 C :   -0.281101
  10 H :    0.194406
  11 C :   -0.092397
  12 C :   -0.172775
  13 C :   -0.277406
  14 H :    0.185952
  15 H :    0.195482
  16 H :    0.204986
  17 H :    0.181995
  18 H :    0.186182
  19 H :    0.181589
  20 H :    0.205371
  21 N :    0.208260
  22 C :    0.066228
  23 C :   -0.427802
  24 C :   -0.326306
  25 C :   -0.004677
  26 C :   -0.159037
  27 C :   -0.235633
  28 H :    0.168656
  29 H :    0.183224
  30 C :    0.031277
  31 C :   -0.252988
  32 C :   -0.225363
  33 C :   -0.254647
  34 H :    0.180884
  35 C :   -0.226956
  36 H :    0.177964
  37 C :    0.391613
  38 H :    0.186172
  39 H :    0.165271
  40 O :   -0.316881
  41 C :   -0.233702
  42 H :    0.165577
  43 H :    0.150453
  44 H :    0.149894
  45 H :    0.173545
  46 H :    0.163931
  47 B :    0.700609
  48 F :   -0.472169
  49 F :   -0.469746
  50 F :   -0.470249
Sum of atomic charges:   -0.0000000

LOEWDIN ATOMIC CHARGES
----------------------
   0 C :   -0.081240
   1 C :   -0.103338
   2 C :   -0.058787
   3 C :   -0.056225
   4 C :   -0.059705
   5 C :   -0.130802
   6 C :    0.066169
   7 C :   -0.056543
   8 C :   -0.058913
   9 C :   -0.103064
  10 H :    0.172371
  11 C :   -0.081393
  12 C :   -0.130949
  13 C :   -0.060548
  14 H :    0.166082
  15 H :    0.172374
  16 H :    0.173044
  17 H :    0.161474
  18 H :    0.166074
  19 H :    0.161387
  20 H :    0.172694
  21 N :    0.354585
  22 C :   -0.113691
  23 C :   -0.060113
  24 C :   -0.101849
  25 C :   -0.067184
  26 C :   -0.145971
  27 C :   -0.100328
  28 H :    0.154766
  29 H :    0.163053
  30 C :   -0.179469
  31 C :   -0.087361
  32 C :   -0.090216
  33 C :   -0.127715
  34 H :    0.169262
  35 C :   -0.111416
  36 H :    0.168864
  37 C :   -0.238615
  38 H :    0.164717
  39 H :    0.161301
  40 O :    0.208974
  41 C :   -0.301239
  42 H :    0.118477
  43 H :    0.115114
  44 H :    0.114991
  45 H :    0.166898
  46 H :    0.157070
  47 B :   -1.227630
  48 F :    0.103716
  49 F :    0.108164
  50 F :    0.092686

  Mayer bond orders larger than 0.100000
B(  0-C ,  1-C ) :   1.5286 B(  0-C ,  5-C ) :   1.2201 B(  0-C , 14-H ) :   0.9685
B(  1-C ,  2-C ) :   1.2531 B(  1-C , 15-H ) :   0.9697 B(  2-C ,  3-C ) :   1.2567
B(  2-C , 21-N ) :   1.2329 B(  3-C ,  4-C ) :   1.1802 B(  3-C ,  6-C ) :   1.1862
B(  3-C , 22-C ) :  -0.1158 B(  4-C ,  5-C ) :   1.5960 B(  4-C , 16-H ) :   0.9573
B(  5-C , 17-H ) :   0.9784 B(  6-C ,  7-C ) :   1.1792 B(  6-C , 22-C ) :   0.8192
B(  7-C ,  8-C ) :   1.2640 B(  7-C , 13-C ) :   1.1827 B(  7-C , 22-C ) :  -0.1109
B(  8-C ,  9-C ) :   1.2537 B(  8-C , 21-N ) :   1.2334 B(  9-C , 10-H ) :   0.9698
B(  9-C , 11-C ) :   1.5312 B( 11-C , 12-C ) :   1.2210 B( 11-C , 18-H ) :   0.9674
B( 12-C , 13-C ) :   1.5910 B( 12-C , 19-H ) :   0.9797 B( 13-C , 20-H ) :   0.9588
B( 21-N , 30-C ) :   0.7231 B( 22-C , 23-C ) :   1.3404 B( 22-C , 24-C ) :   1.3490
B( 23-C , 25-C ) :   1.3840 B( 23-C , 45-H ) :   0.9996 B( 24-C , 26-C ) :   1.4441
B( 24-C , 29-H ) :   0.9911 B( 25-C , 27-C ) :   1.4006 B( 25-C , 47-B ) :   0.9113
B( 26-C , 27-C ) :   1.3733 B( 26-C , 28-H ) :   0.9832 B( 27-C , 46-H ) :   0.9734
B( 30-C , 31-C ) :   1.5329 B( 30-C , 32-C ) :   1.4752 B( 31-C , 33-C ) :   1.3959
B( 31-C , 34-H ) :   0.9702 B( 32-C , 35-C ) :   1.4610 B( 32-C , 36-H ) :   0.9858
B( 33-C , 37-C ) :   1.3224 B( 33-C , 38-H ) :   0.9648 B( 35-C , 37-C ) :   1.3213
B( 35-C , 39-H ) :   0.9946 B( 37-C , 40-O ) :   1.1247 B( 40-O , 41-C ) :   0.8929
B( 41-C , 42-H ) :   0.9701 B( 41-C , 43-H ) :   0.9701 B( 41-C , 44-H ) :   0.9702
B( 47-B , 48-F ) :   0.8555 B( 47-B , 49-F ) :   0.8610 B( 47-B , 50-F ) :   0.8721

MP2 TOTAL ENERGY:    -1455.454927812 Eh

-----------------------------------------------------------------------------
         ABSORPTION SPECTRUM VIA TRANSITION ELECTRIC DIPOLE MOMENTS
-----------------------------------------------------------------------------
State   Energy    Wavelength  fosc         T2        TX        TY        TZ
        (cm-1)      (nm)                 (au**2)    (au)      (au)      (au)
-----------------------------------------------------------------------------
   1   23568.6    424.3   0.277030415   3.86963  -1.94845   0.19680  -0.18555
   2   28838.7    346.8   0.326300070   3.72493   0.14523   1.89258   0.34924
   3   29554.8    338.4   0.078537092   0.87483   0.92670  -0.04892   0.11689
   4   29893.6    334.5   0.009563134   0.10532   0.13940   0.27526  -0.10058
   5   28277.1    353.6   0.002250990   0.02621  -0.15978   0.01325   0.02241
   6   32659.9    306.2   0.061621586   0.62115   0.01555   0.70638   0.34919
   7   38056.8    262.8   0.045219942   0.39118  -0.02829  -0.44746   0.43607
   8   38174.5    262.0   0.714382210   6.16074   0.21323   2.38954   0.63669
   9   38433.3    260.2   0.477979997   4.09428   0.19668   1.98882   0.31655
  10   40306.4    248.1   0.036800953   0.30058   0.09152  -0.54014  -0.02118
  11   46371.6    215.6   0.136641130   0.97007  -0.93298   0.13373  -0.28590
  12   47236.8    211.7   0.002541268   0.01771  -0.10250  -0.08419  -0.01075
  13   45885.9    217.9   0.113600832   0.81504   0.90194  -0.03923  -0.00034
  14   44947.3    222.5   0.052955462   0.38787   0.11698   0.59557  -0.13955
  15   44369.5    225.4   0.054562507   0.40484  -0.63382   0.05458   0.01159
  16   45329.4    220.6   0.007133955   0.05181  -0.22523   0.00730  -0.03212
  17   45305.3    220.7   0.009427254   0.06850  -0.00748  -0.12787   0.22825
  18   49185.8    203.3   0.753770090   5.04516  -2.22517   0.22845  -0.20391
  19   44852.7    223.0   0.057310994   0.42065   0.58767   0.00303  -0.27439
  20   51292.7    195.0   1.650104979  10.59087  -3.17751   0.44617  -0.54335
  21   48821.0    204.8   0.206658216   1.39355  -0.87621  -0.47127   0.63538
  22   48031.7    208.2   0.006121467   0.04196  -0.19003   0.03831   0.06617
  23   50486.7    198.1   0.249936423   1.62978   0.24567   0.84851  -0.92166
  24   50230.7    199.1   0.035969485   0.23574  -0.46232  -0.10941   0.10018
  25   50249.0    199.0   0.012088720   0.07920  -0.23393   0.10685   0.11428
  26   52622.8    190.0   0.442773610   2.77003   0.10014   0.16749  -1.65286
  27   50136.9    199.5   0.054909613   0.36055   0.37031   0.46672   0.07484
  28   50951.6    196.3   0.040187259   0.25966   0.17730   0.47625  -0.03753
  29   49531.1    201.9   0.039818382   0.26466   0.36675  -0.35249  -0.07681
  30   52408.2    190.8   0.147317970   0.92541  -0.07448  -0.95626   0.07371

FINAL SINGLE POINT ENERGY     -1453.371383283284

DIPOLE MOMENT
-------------
                                X             Y             Z
Electronic contribution:    -37.80787      -4.49688       4.65041
Nuclear contribution   :     50.26136       6.51485      -7.04355
                        -----------------------------------------
Total Dipole Moment    :     12.45349       2.01797      -2.39314
                        -----------------------------------------
Magnitude (a.u.)       :     12.84090
Magnitude (Debye)      :     32.63898

Rotational constants in cm-1:     0.009893     0.002157     0.001956
Rotational constants in MHz :   296.592255    64.672752    58.643006

                             ****ORCA TERMINATED NORMALLY****
TOTAL RUN TIME: 0 days 9 hours 45 minutes 31 seconds 200 msec
