                         Program Version 5.0.2 -  RELEASE  -
|  1> %maxcore 3200
|  2> %pal
|  3>  nprocs= 8
|  4> end
|  5> ! RI-B2PLYP D3BJ def2-TZVP def2/J def2-TZVP/C RIJCOSX CPCM TightSCF
|  6> %TDDFT DCORR 4
|  7>    NROOTS   30
|  8>
|  9>    TDA      FALSE
| 10> END
| 11>
| 12> %CPCM
| 13>    SMD          TRUE
| 14>    SMDsolvent   "ACETONITRILE"
| 15> END
| 16>
| 17>
| 18> * xyz 0 1
| 19> C                   0.80076000   -3.36589900   -0.94031900
| 20> C                   1.56762900   -2.27623000   -0.62942800
| 21> C                   0.96864500   -1.01160700   -0.49117200
| 22> C                  -0.44255300   -0.87352900   -0.64853800
| 23> C                  -1.18590300   -2.02861200   -1.00217200
| 24> C                  -0.58402200   -3.24407300   -1.14214400
| 25> C                  -1.04536500    0.38971900   -0.48459700
| 26> C                  -0.23230800    1.50034600   -0.18168400
| 27> C                   1.18007700    1.33535500   -0.06854800
| 28> C                   1.99463300    2.44870900    0.20421000
| 29> H                   3.06488400    2.32622300    0.27219300
| 30> C                   1.42954700    3.68117400    0.38824000
| 31> C                   0.03728200    3.85668200    0.32650400
| 32> C                  -0.76922900    2.79221000    0.05136000
| 33> H                   1.27586800   -4.33274800   -1.04429700
| 34> H                   2.63304700   -2.38282800   -0.49297200
| 35> H                  -2.24810800   -1.92751400   -1.17021500
| 36> H                  -1.16822400   -4.11245700   -1.41435200
| 37> H                   2.06898500    4.52853700    0.59883000
| 38> H                  -0.39205700    4.83309100    0.50480200
| 39> H                  -1.84130000    2.91962600    0.01922100
| 40> N                   1.73133400    0.09124300   -0.21623500
| 41> C                  -2.50193500    0.54536800   -0.62499200
| 42> C                  -3.37339600   -0.15174800    0.21585900
| 43> C                  -3.03314500    1.39038600   -1.60213500
| 44> C                  -4.75851700   -0.02611000    0.12108100
| 45> C                  -4.40600100    1.51149800   -1.73173800
| 46> C                  -5.25209500    0.81581100   -0.87831200
| 47> H                  -4.81458700    2.15195300   -2.50405100
| 48> H                  -2.36763700    1.92865700   -2.26612000
| 49> C                   3.16334700   -0.06177200   -0.07966600
| 50> C                   3.70948900   -0.28724400    1.16966700
| 51> C                   3.97063200    0.02202900   -1.20573100
| 52> C                   5.08134600   -0.43082800    1.30875300
| 53> H                   3.06345200   -0.34961500    2.03630500
| 54> C                   5.33582800   -0.11988400   -1.07392300
| 55> H                   3.52548100    0.19786300   -2.17684500
| 56> C                   5.90122600   -0.34596100    0.18395200
| 57> H                   5.50110900   -0.60692400    2.28838700
| 58> H                   5.98483800   -0.05777300   -1.93736300
| 59> O                   7.24318800   -0.46851000    0.21328700
| 60> C                   7.85720000   -0.69379500    1.47383200
| 61> H                   8.92467000   -0.75678800    1.28283800
| 62> H                   7.66326500    0.12905600    2.16531000
| 63> H                   7.51646700   -1.62934700    1.92283400
| 64> H                  -2.94792200   -0.80015300    0.97571000
| 65> H                  -6.32510800    0.92661900   -0.99429800
| 66> B                  -5.72909500   -0.79870600    1.14661100
| 67> F                  -5.21212800   -2.07360400    1.49079400
| 68> F                  -7.02282600   -0.98445000    0.60252600
| 69> F                  -5.87788200   -0.06578200    2.35759400
| 70> *
| 71>
| 72>
| 73>                          ****END OF INPUT****

CARTESIAN COORDINATES (ANGSTROEM)
---------------------------------
  C      0.800760   -3.365899   -0.940319
  C      1.567629   -2.276230   -0.629428
  C      0.968645   -1.011607   -0.491172
  C     -0.442553   -0.873529   -0.648538
  C     -1.185903   -2.028612   -1.002172
  C     -0.584022   -3.244073   -1.142144
  C     -1.045365    0.389719   -0.484597
  C     -0.232308    1.500346   -0.181684
  C      1.180077    1.335355   -0.068548
  C      1.994633    2.448709    0.204210
  H      3.064884    2.326223    0.272193
  C      1.429547    3.681174    0.388240
  C      0.037282    3.856682    0.326504
  C     -0.769229    2.792210    0.051360
  H      1.275868   -4.332748   -1.044297
  H      2.633047   -2.382828   -0.492972
  H     -2.248108   -1.927514   -1.170215
  H     -1.168224   -4.112457   -1.414352
  H      2.068985    4.528537    0.598830
  H     -0.392057    4.833091    0.504802
  H     -1.841300    2.919626    0.019221
  N      1.731334    0.091243   -0.216235
  C     -2.501935    0.545368   -0.624992
  C     -3.373396   -0.151748    0.215859
  C     -3.033145    1.390386   -1.602135
  C     -4.758517   -0.026110    0.121081
  C     -4.406001    1.511498   -1.731738
  C     -5.252095    0.815811   -0.878312
  H     -4.814587    2.151953   -2.504051
  H     -2.367637    1.928657   -2.266120
  C      3.163347   -0.061772   -0.079666
  C      3.709489   -0.287244    1.169667
  C      3.970632    0.022029   -1.205731
  C      5.081346   -0.430828    1.308753
  H      3.063452   -0.349615    2.036305
  C      5.335828   -0.119884   -1.073923
  H      3.525481    0.197863   -2.176845
  C      5.901226   -0.345961    0.183952
  H      5.501109   -0.606924    2.288387
  H      5.984838   -0.057773   -1.937363
  O      7.243188   -0.468510    0.213287
  C      7.857200   -0.693795    1.473832
  H      8.924670   -0.756788    1.282838
  H      7.663265    0.129056    2.165310
  H      7.516467   -1.629347    1.922834
  H     -2.947922   -0.800153    0.975710
  H     -6.325108    0.926619   -0.994298
  B     -5.729095   -0.798706    1.146611
  F     -5.212128   -2.073604    1.490794
  F     -7.022826   -0.984450    0.602526
  F     -5.877882   -0.065782    2.357594

 Total Charge           Charge          ....    0
 Multiplicity           Mult            ....    1
 Number of Electrons    NEL             ....  222
 Basis Dimension        Dim             .... 1106

ORBITAL ENERGIES
----------------

  NO   OCC          E(Eh)            E(eV)
   0   2.0000     -25.292103      -688.2331
   1   2.0000     -25.291610      -688.2197
   2   2.0000     -25.290138      -688.1796
   3   2.0000     -19.758909      -537.6672
   4   2.0000     -14.935820      -406.4243
   5   2.0000     -10.704889      -291.2948
   6   2.0000     -10.704806      -291.2926
   7   2.0000     -10.690350      -290.8992
   8   2.0000     -10.689333      -290.8715
   9   2.0000     -10.663967      -290.1813
  10   2.0000     -10.657871      -290.0154
  11   2.0000     -10.657744      -290.0120
  12   2.0000     -10.656030      -289.9653
  13   2.0000     -10.642096      -289.5862
  14   2.0000     -10.641977      -289.5829
  15   2.0000     -10.637785      -289.4688
  16   2.0000     -10.637430      -289.4592
  17   2.0000     -10.633844      -289.3616
  18   2.0000     -10.632886      -289.3355
  19   2.0000     -10.632154      -289.3156
  20   2.0000     -10.631953      -289.3101
  21   2.0000     -10.631753      -289.3047
  22   2.0000     -10.627619      -289.1922
  23   2.0000     -10.627316      -289.1840
  24   2.0000     -10.622209      -289.0450
  25   2.0000     -10.621157      -289.0164
  26   2.0000     -10.619976      -288.9842
  27   2.0000     -10.615620      -288.8657
  28   2.0000     -10.613350      -288.8039
  29   2.0000     -10.610762      -288.7335
  30   2.0000     -10.586897      -288.0841
  31   2.0000      -7.149907      -194.5589
  32   2.0000      -1.331234       -36.2247
  33   2.0000      -1.287523       -35.0353
  34   2.0000      -1.285092       -34.9691
  35   2.0000      -1.219049       -33.1720
  36   2.0000      -1.163226       -31.6530
  37   2.0000      -1.025176       -27.8965
  38   2.0000      -1.010898       -27.5079
  39   2.0000      -0.991967       -26.9928
  40   2.0000      -0.979584       -26.6558
  41   2.0000      -0.948006       -25.7965
  42   2.0000      -0.903207       -24.5775
  43   2.0000      -0.888794       -24.1853
  44   2.0000      -0.885731       -24.1020
  45   2.0000      -0.878767       -23.9125
  46   2.0000      -0.865974       -23.5643
  47   2.0000      -0.856412       -23.3042
  48   2.0000      -0.852025       -23.1848
  49   2.0000      -0.806066       -21.9342
  50   2.0000      -0.784782       -21.3550
  51   2.0000      -0.760999       -20.7078
  52   2.0000      -0.746681       -20.3182
  53   2.0000      -0.722999       -19.6738
  54   2.0000      -0.710129       -19.3236
  55   2.0000      -0.699213       -19.0265
  56   2.0000      -0.697930       -18.9916
  57   2.0000      -0.673801       -18.3351
  58   2.0000      -0.656048       -17.8520
  59   2.0000      -0.654244       -17.8029
  60   2.0000      -0.634509       -17.2659
  61   2.0000      -0.627109       -17.0645
  62   2.0000      -0.609681       -16.5903
  63   2.0000      -0.597113       -16.2483
  64   2.0000      -0.586877       -15.9697
  65   2.0000      -0.577444       -15.7131
  66   2.0000      -0.563379       -15.3303
  67   2.0000      -0.561273       -15.2730
  68   2.0000      -0.558434       -15.1958
  69   2.0000      -0.556125       -15.1329
  70   2.0000      -0.555390       -15.1129
  71   2.0000      -0.547811       -14.9067
  72   2.0000      -0.537369       -14.6226
  73   2.0000      -0.531209       -14.4549
  74   2.0000      -0.527995       -14.3675
  75   2.0000      -0.527293       -14.3484
  76   2.0000      -0.519985       -14.1495
  77   2.0000      -0.518927       -14.1207
  78   2.0000      -0.511953       -13.9309
  79   2.0000      -0.509342       -13.8599
  80   2.0000      -0.505898       -13.7662
  81   2.0000      -0.487745       -13.2722
  82   2.0000      -0.483257       -13.1501
  83   2.0000      -0.481645       -13.1062
  84   2.0000      -0.479798       -13.0560
  85   2.0000      -0.474539       -12.9129
  86   2.0000      -0.462706       -12.5909
  87   2.0000      -0.453039       -12.3278
  88   2.0000      -0.450678       -12.2636
  89   2.0000      -0.450184       -12.2501
  90   2.0000      -0.447705       -12.1827
  91   2.0000      -0.444236       -12.0883
  92   2.0000      -0.439819       -11.9681
  93   2.0000      -0.436970       -11.8906
  94   2.0000      -0.433708       -11.8018
  95   2.0000      -0.431105       -11.7310
  96   2.0000      -0.424400       -11.5485
  97   2.0000      -0.419691       -11.4204
  98   2.0000      -0.410783       -11.1780
  99   2.0000      -0.397986       -10.8297
 100   2.0000      -0.397806       -10.8249
 101   2.0000      -0.392481       -10.6799
 102   2.0000      -0.372383       -10.1331
 103   2.0000      -0.351088        -9.5536
 104   2.0000      -0.324633        -8.8337
 105   2.0000      -0.306268        -8.3340
 106   2.0000      -0.303654        -8.2629
 107   2.0000      -0.293685        -7.9916
 108   2.0000      -0.286891        -7.8067
 109   2.0000      -0.276369        -7.5204
 110   2.0000      -0.267843        -7.2884
 111   0.0000      -0.069499        -1.8912
 112   0.0000       0.004553         0.1239
 113   0.0000       0.022609         0.6152
 114   0.0000       0.029876         0.8130
 115   0.0000       0.039861         1.0847

MULLIKEN ATOMIC CHARGES
-----------------------
   0 C :   -0.102318
   1 C :   -0.225559
   2 C :    0.166903
   3 C :    0.098840
   4 C :   -0.246605
   5 C :   -0.158193
   6 C :    0.315578
   7 C :    0.098503
   8 C :    0.162079
   9 C :   -0.225206
  10 H :    0.184650
  11 C :   -0.101822
  12 C :   -0.156312
  13 C :   -0.252157
  14 H :    0.174365
  15 H :    0.185365
  16 H :    0.194117
  17 H :    0.168997
  18 H :    0.174609
  19 H :    0.168672
  20 H :    0.194404
  21 N :    0.141099
  22 C :    0.069446
  23 C :   -0.391224
  24 C :   -0.295672
  25 C :   -0.008706
  26 C :   -0.149752
  27 C :   -0.220057
  28 H :    0.153472
  29 H :    0.167903
  30 C :    0.071375
  31 C :   -0.243188
  32 C :   -0.219841
  33 C :   -0.230508
  34 H :    0.167910
  35 C :   -0.194952
  36 H :    0.164523
  37 C :    0.374457
  38 H :    0.172202
  39 H :    0.151785
  40 O :   -0.328628
  41 C :   -0.195153
  42 H :    0.153283
  43 H :    0.139656
  44 H :    0.139191
  45 H :    0.156160
  46 H :    0.147858
  47 B :    0.702909
  48 F :   -0.472866
  49 F :   -0.470284
  50 F :   -0.471309
Sum of atomic charges:   -0.0000000

LOEWDIN ATOMIC CHARGES
----------------------
   0 C :   -0.083557
   1 C :   -0.098221
   2 C :   -0.059867
   3 C :   -0.050334
   4 C :   -0.059521
   5 C :   -0.126385
   6 C :    0.062146
   7 C :   -0.050655
   8 C :   -0.059994
   9 C :   -0.097975
  10 H :    0.169544
  11 C :   -0.083706
  12 C :   -0.126524
  13 C :   -0.060362
  14 H :    0.162440
  15 H :    0.169543
  16 H :    0.169943
  17 H :    0.158286
  18 H :    0.162439
  19 H :    0.158194
  20 H :    0.169560
  21 N :    0.358944
  22 C :   -0.107975
  23 C :   -0.059258
  24 C :   -0.100788
  25 C :   -0.063351
  26 C :   -0.144034
  27 C :   -0.100274
  28 H :    0.151127
  29 H :    0.159131
  30 C :   -0.172392
  31 C :   -0.087126
  32 C :   -0.089880
  33 C :   -0.125060
  34 H :    0.165480
  35 C :   -0.108997
  36 H :    0.165146
  37 C :   -0.238717
  38 H :    0.161636
  39 H :    0.157776
  40 O :    0.215187
  41 C :   -0.297846
  42 H :    0.116448
  43 H :    0.112772
  44 H :    0.112653
  45 H :    0.162808
  46 H :    0.153229
  47 B :   -1.250429
  48 F :    0.111736
  49 F :    0.116185
  50 F :    0.100878

  Mayer bond orders larger than 0.100000
B(  0-C ,  1-C ) :   1.5221 B(  0-C ,  5-C ) :   1.2263 B(  0-C , 14-H ) :   0.9718
B(  1-C ,  2-C ) :   1.2493 B(  1-C , 15-H ) :   0.9674 B(  2-C ,  3-C ) :   1.2566
B(  2-C , 21-N ) :   1.2281 B(  3-C ,  4-C ) :   1.1926 B(  3-C ,  6-C ) :   1.1796
B(  4-C ,  5-C ) :   1.5839 B(  4-C , 16-H ) :   0.9558 B(  5-C , 17-H ) :   0.9820
B(  6-C ,  7-C ) :   1.1740 B(  6-C , 22-C ) :   0.8405 B(  7-C ,  8-C ) :   1.2636
B(  7-C , 13-C ) :   1.1957 B(  8-C ,  9-C ) :   1.2502 B(  8-C , 21-N ) :   1.2284
B(  9-C , 10-H ) :   0.9672 B(  9-C , 11-C ) :   1.5243 B( 11-C , 12-C ) :   1.2269
B( 11-C , 18-H ) :   0.9709 B( 12-C , 13-C ) :   1.5783 B( 12-C , 19-H ) :   0.9830
B( 13-C , 20-H ) :   0.9578 B( 21-N , 30-C ) :   0.6939 B( 22-C , 23-C ) :   1.3259
B( 22-C , 24-C ) :   1.3296 B( 23-C , 25-C ) :   1.3747 B( 23-C , 45-H ) :   1.0019
B( 24-C , 26-C ) :   1.4369 B( 24-C , 29-H ) :   0.9936 B( 25-C , 27-C ) :   1.3863
B( 25-C , 47-B ) :   0.9148 B( 26-C , 27-C ) :   1.3698 B( 26-C , 28-H ) :   0.9888
B( 27-C , 46-H ) :   0.9748 B( 30-C , 31-C ) :   1.4960 B( 30-C , 32-C ) :   1.4457
B( 31-C , 33-C ) :   1.3693 B( 31-C , 34-H ) :   0.9756 B( 32-C , 35-C ) :   1.4512
B( 32-C , 36-H ) :   0.9923 B( 33-C , 37-C ) :   1.3055 B( 33-C , 38-H ) :   0.9705
B( 35-C , 37-C ) :   1.3188 B( 35-C , 39-H ) :   0.9952 B( 37-C , 40-O ) :   1.1243
B( 40-O , 41-C ) :   0.8864 B( 41-C , 42-H ) :   0.9728 B( 41-C , 43-H ) :   0.9707
B( 41-C , 44-H ) :   0.9707 B( 47-B , 48-F ) :   0.8552 B( 47-B , 49-F ) :   0.8603
B( 47-B , 50-F ) :   0.8717

MP2 TOTAL ENERGY:    -1456.185444008 Eh

-----------------------------------------------------------------------------
         ABSORPTION SPECTRUM VIA TRANSITION ELECTRIC DIPOLE MOMENTS
-----------------------------------------------------------------------------
State   Energy    Wavelength  fosc         T2        TX        TY        TZ
        (cm-1)      (nm)                 (au**2)    (au)      (au)      (au)
-----------------------------------------------------------------------------
   1   23171.0    431.6   0.261073285   3.70931   1.90777  -0.19281   0.18045
   2   27193.2    367.7   0.081965960   0.99231  -0.55629   0.82601   0.02368
   3   25656.1    389.8   0.051445259   0.66013  -0.08787  -0.80163  -0.09899
   4   27878.3    358.7   0.146496946   1.72997   0.64832   1.12000   0.23506
   5   28615.2    349.5   0.072024246   0.82862  -0.11462   0.85164   0.30031
   6   31657.7    315.9   0.036619237   0.38081   0.02157   0.57104   0.23293
   7   33638.8    297.3   0.027084134   0.26506  -0.03137  -0.49547  -0.13635
   8   38626.6    258.9   0.154868784   1.31994  -0.08641  -0.89260  -0.71814
   9   38779.6    257.9   1.060715811   9.00475   0.27200   2.95628   0.43721
  10   41237.3    242.5   0.017924288   0.14310  -0.10331   0.36328  -0.02117
  11   40449.7    247.2   0.128229200   1.04363   0.99038  -0.18600   0.16785
  12   43593.4    229.4   0.046472084   0.35095  -0.54439   0.07923  -0.21980
  13   42982.7    232.7   0.088995126   0.68163   0.17167   0.80642  -0.04292
  14   45593.4    219.3   0.039329489   0.28398  -0.50896   0.05942  -0.14631
  15   42412.7    235.8   0.010538912   0.08180  -0.28553   0.01057   0.01281
  16   46101.8    216.9   0.085617288   0.61139   0.77619   0.00206  -0.09440
  17   41035.8    243.7   0.000326066   0.00262  -0.01735  -0.04630   0.01307
  18   45438.1    220.1   0.010195679   0.07387  -0.24456  -0.01440   0.11770
  19   43769.6    228.5   0.026790821   0.20151   0.10942  -0.36147  -0.24263
  20   45969.9    217.5   0.280949718   2.01201  -1.40190   0.14887  -0.15660
  21   44316.6    225.6   0.135298665   1.00509  -0.95491   0.15582  -0.26258
  22   46543.7    214.9   0.066440609   0.46995   0.63338   0.25923  -0.03968
  23   45288.6    220.8   0.125244923   0.91043   0.95365   0.02570  -0.01775
  24   47975.5    208.4   0.352751622   2.42061  -1.24783   0.77988  -0.50528
  25   49449.3    202.2   1.344127440   8.94862  -2.99031   0.04331  -0.06928
  26   50056.8    199.8   0.186214191   1.22469   0.16384   0.53296  -0.95593
  27   50299.0    198.8   0.118140116   0.77324   0.85784   0.00017   0.19326
  28   48846.7    204.7   0.183763830   1.23851   0.06870   0.03627  -1.11017
  29   48189.0    207.5   0.001902902   0.01300   0.01818  -0.01870  -0.11099
  30   50402.4    198.4   0.172812134   1.12875  -0.06761  -1.04155   0.19837

Dispersion correction           -0.061254336
FINAL SINGLE POINT ENERGY     -1454.402273357539

DIPOLE MOMENT
-------------
                                X             Y             Z
Electronic contribution:    -37.76770      -4.51433       4.66414
Nuclear contribution   :     50.26136       6.51485      -7.04355
                        -----------------------------------------
Total Dipole Moment    :     12.49367       2.00052      -2.37941
                        -----------------------------------------
Magnitude (a.u.)       :     12.87460
Magnitude (Debye)      :     32.72464

Rotational constants in cm-1:     0.009893     0.002157     0.001956
Rotational constants in MHz :   296.592255    64.672752    58.643006

                             ****ORCA TERMINATED NORMALLY****
TOTAL RUN TIME: 0 days 2 hours 29 minutes 35 seconds 152 msec
