                         Program Version 5.0.2 -  RELEASE  -
|  1> %maxcore 20000
|  2> %pal
|  3>  nprocs= 4
|  4> end
|  5> ! RI-wPBEPP86   def2-TZVP def2/J def2-TZVP/C RIJCOSX CPCM TightSCF
|  6> %TDDFT
|  7>    NROOTS   30
|  8>    dcorr 1
|  9>    TDA      FALSE
| 10> END
| 11>
| 12> %CPCM
| 13>    SMD          TRUE
| 14>    SMDsolvent   "ACETONITRILE"
| 15> END
| 16>
| 17>
| 18> * xyz 0 1
| 19> C                   0.80076000   -3.36589900   -0.94031900
| 20> C                   1.56762900   -2.27623000   -0.62942800
| 21> C                   0.96864500   -1.01160700   -0.49117200
| 22> C                  -0.44255300   -0.87352900   -0.64853800
| 23> C                  -1.18590300   -2.02861200   -1.00217200
| 24> C                  -0.58402200   -3.24407300   -1.14214400
| 25> C                  -1.04536500    0.38971900   -0.48459700
| 26> C                  -0.23230800    1.50034600   -0.18168400
| 27> C                   1.18007700    1.33535500   -0.06854800
| 28> C                   1.99463300    2.44870900    0.20421000
| 29> H                   3.06488400    2.32622300    0.27219300
| 30> C                   1.42954700    3.68117400    0.38824000
| 31> C                   0.03728200    3.85668200    0.32650400
| 32> C                  -0.76922900    2.79221000    0.05136000
| 33> H                   1.27586800   -4.33274800   -1.04429700
| 34> H                   2.63304700   -2.38282800   -0.49297200
| 35> H                  -2.24810800   -1.92751400   -1.17021500
| 36> H                  -1.16822400   -4.11245700   -1.41435200
| 37> H                   2.06898500    4.52853700    0.59883000
| 38> H                  -0.39205700    4.83309100    0.50480200
| 39> H                  -1.84130000    2.91962600    0.01922100
| 40> N                   1.73133400    0.09124300   -0.21623500
| 41> C                  -2.50193500    0.54536800   -0.62499200
| 42> C                  -3.37339600   -0.15174800    0.21585900
| 43> C                  -3.03314500    1.39038600   -1.60213500
| 44> C                  -4.75851700   -0.02611000    0.12108100
| 45> C                  -4.40600100    1.51149800   -1.73173800
| 46> C                  -5.25209500    0.81581100   -0.87831200
| 47> H                  -4.81458700    2.15195300   -2.50405100
| 48> H                  -2.36763700    1.92865700   -2.26612000
| 49> C                   3.16334700   -0.06177200   -0.07966600
| 50> C                   3.70948900   -0.28724400    1.16966700
| 51> C                   3.97063200    0.02202900   -1.20573100
| 52> C                   5.08134600   -0.43082800    1.30875300
| 53> H                   3.06345200   -0.34961500    2.03630500
| 54> C                   5.33582800   -0.11988400   -1.07392300
| 55> H                   3.52548100    0.19786300   -2.17684500
| 56> C                   5.90122600   -0.34596100    0.18395200
| 57> H                   5.50110900   -0.60692400    2.28838700
| 58> H                   5.98483800   -0.05777300   -1.93736300
| 59> O                   7.24318800   -0.46851000    0.21328700
| 60> C                   7.85720000   -0.69379500    1.47383200
| 61> H                   8.92467000   -0.75678800    1.28283800
| 62> H                   7.66326500    0.12905600    2.16531000
| 63> H                   7.51646700   -1.62934700    1.92283400
| 64> H                  -2.94792200   -0.80015300    0.97571000
| 65> H                  -6.32510800    0.92661900   -0.99429800
| 66> B                  -5.72909500   -0.79870600    1.14661100
| 67> F                  -5.21212800   -2.07360400    1.49079400
| 68> F                  -7.02282600   -0.98445000    0.60252600
| 69> F                  -5.87788200   -0.06578200    2.35759400
| 70> *
| 71>
| 72>
| 73>                          ****END OF INPUT****

CARTESIAN COORDINATES (ANGSTROEM)
---------------------------------
  C      0.800760   -3.365899   -0.940319
  C      1.567629   -2.276230   -0.629428
  C      0.968645   -1.011607   -0.491172
  C     -0.442553   -0.873529   -0.648538
  C     -1.185903   -2.028612   -1.002172
  C     -0.584022   -3.244073   -1.142144
  C     -1.045365    0.389719   -0.484597
  C     -0.232308    1.500346   -0.181684
  C      1.180077    1.335355   -0.068548
  C      1.994633    2.448709    0.204210
  H      3.064884    2.326223    0.272193
  C      1.429547    3.681174    0.388240
  C      0.037282    3.856682    0.326504
  C     -0.769229    2.792210    0.051360
  H      1.275868   -4.332748   -1.044297
  H      2.633047   -2.382828   -0.492972
  H     -2.248108   -1.927514   -1.170215
  H     -1.168224   -4.112457   -1.414352
  H      2.068985    4.528537    0.598830
  H     -0.392057    4.833091    0.504802
  H     -1.841300    2.919626    0.019221
  N      1.731334    0.091243   -0.216235
  C     -2.501935    0.545368   -0.624992
  C     -3.373396   -0.151748    0.215859
  C     -3.033145    1.390386   -1.602135
  C     -4.758517   -0.026110    0.121081
  C     -4.406001    1.511498   -1.731738
  C     -5.252095    0.815811   -0.878312
  H     -4.814587    2.151953   -2.504051
  H     -2.367637    1.928657   -2.266120
  C      3.163347   -0.061772   -0.079666
  C      3.709489   -0.287244    1.169667
  C      3.970632    0.022029   -1.205731
  C      5.081346   -0.430828    1.308753
  H      3.063452   -0.349615    2.036305
  C      5.335828   -0.119884   -1.073923
  H      3.525481    0.197863   -2.176845
  C      5.901226   -0.345961    0.183952
  H      5.501109   -0.606924    2.288387
  H      5.984838   -0.057773   -1.937363
  O      7.243188   -0.468510    0.213287
  C      7.857200   -0.693795    1.473832
  H      8.924670   -0.756788    1.282838
  H      7.663265    0.129056    2.165310
  H      7.516467   -1.629347    1.922834
  H     -2.947922   -0.800153    0.975710
  H     -6.325108    0.926619   -0.994298
  B     -5.729095   -0.798706    1.146611
  F     -5.212128   -2.073604    1.490794
  F     -7.022826   -0.984450    0.602526
  F     -5.877882   -0.065782    2.357594

 Total Charge           Charge          ....    0
 Multiplicity           Mult            ....    1
 Number of Electrons    NEL             ....  222
 Basis Dimension        Dim             .... 1106

ORBITAL ENERGIES
----------------

  NO   OCC          E(Eh)            E(eV)
   0   2.0000     -25.663522      -698.3399
   1   2.0000     -25.662968      -698.3249
   2   2.0000     -25.661131      -698.2749
   3   2.0000     -20.093343      -546.7677
   4   2.0000     -15.233400      -414.5219
   5   2.0000     -10.961314      -298.2725
   6   2.0000     -10.961238      -298.2704
   7   2.0000     -10.948891      -297.9345
   8   2.0000     -10.943968      -297.8005
   9   2.0000     -10.916856      -297.0627
  10   2.0000     -10.910416      -296.8875
  11   2.0000     -10.910289      -296.8841
  12   2.0000     -10.902841      -296.6814
  13   2.0000     -10.895575      -296.4837
  14   2.0000     -10.895466      -296.4807
  15   2.0000     -10.891284      -296.3669
  16   2.0000     -10.890932      -296.3573
  17   2.0000     -10.887967      -296.2766
  18   2.0000     -10.885568      -296.2114
  19   2.0000     -10.884665      -296.1868
  20   2.0000     -10.882742      -296.1345
  21   2.0000     -10.882541      -296.1290
  22   2.0000     -10.878018      -296.0059
  23   2.0000     -10.877706      -295.9974
  24   2.0000     -10.873330      -295.8784
  25   2.0000     -10.873109      -295.8723
  26   2.0000     -10.872037      -295.8432
  27   2.0000     -10.869180      -295.7654
  28   2.0000     -10.865274      -295.6591
  29   2.0000     -10.863343      -295.6066
  30   2.0000     -10.840083      -294.9737
  31   2.0000      -7.352555      -200.0732
  32   2.0000      -1.463021       -39.8108
  33   2.0000      -1.418062       -38.5874
  34   2.0000      -1.415423       -38.5156
  35   2.0000      -1.339877       -36.4599
  36   2.0000      -1.281700       -34.8768
  37   2.0000      -1.138922       -30.9917
  38   2.0000      -1.123126       -30.5618
  39   2.0000      -1.103751       -30.0346
  40   2.0000      -1.090639       -29.6778
  41   2.0000      -1.057216       -28.7683
  42   2.0000      -1.008324       -27.4379
  43   2.0000      -0.993013       -27.0213
  44   2.0000      -0.990380       -26.9496
  45   2.0000      -0.983020       -26.7493
  46   2.0000      -0.970111       -26.3981
  47   2.0000      -0.961083       -26.1524
  48   2.0000      -0.954093       -25.9622
  49   2.0000      -0.903474       -24.5848
  50   2.0000      -0.882138       -24.0042
  51   2.0000      -0.855899       -23.2902
  52   2.0000      -0.841315       -22.8933
  53   2.0000      -0.815587       -22.1933
  54   2.0000      -0.802169       -21.8281
  55   2.0000      -0.792427       -21.5630
  56   2.0000      -0.789780       -21.4910
  57   2.0000      -0.763679       -20.7808
  58   2.0000      -0.744018       -20.2458
  59   2.0000      -0.742460       -20.2034
  60   2.0000      -0.720010       -19.5925
  61   2.0000      -0.719478       -19.5780
  62   2.0000      -0.694017       -18.8852
  63   2.0000      -0.683158       -18.5897
  64   2.0000      -0.670658       -18.2495
  65   2.0000      -0.659272       -17.9397
  66   2.0000      -0.651532       -17.7291
  67   2.0000      -0.648644       -17.6505
  68   2.0000      -0.643255       -17.5039
  69   2.0000      -0.638155       -17.3651
  70   2.0000      -0.636196       -17.3118
  71   2.0000      -0.630816       -17.1654
  72   2.0000      -0.624944       -17.0056
  73   2.0000      -0.612943       -16.6790
  74   2.0000      -0.606116       -16.4933
  75   2.0000      -0.605753       -16.4834
  76   2.0000      -0.599778       -16.3208
  77   2.0000      -0.596060       -16.2196
  78   2.0000      -0.590363       -16.0646
  79   2.0000      -0.588101       -16.0031
  80   2.0000      -0.582155       -15.8412
  81   2.0000      -0.571239       -15.5442
  82   2.0000      -0.569653       -15.5011
  83   2.0000      -0.563511       -15.3339
  84   2.0000      -0.558566       -15.1994
  85   2.0000      -0.548475       -14.9248
  86   2.0000      -0.538867       -14.6633
  87   2.0000      -0.536118       -14.5885
  88   2.0000      -0.534895       -14.5552
  89   2.0000      -0.526453       -14.3255
  90   2.0000      -0.525031       -14.2868
  91   2.0000      -0.522167       -14.2089
  92   2.0000      -0.520273       -14.1573
  93   2.0000      -0.512413       -13.9435
  94   2.0000      -0.509704       -13.8697
  95   2.0000      -0.502577       -13.6758
  96   2.0000      -0.495806       -13.4916
  97   2.0000      -0.493218       -13.4211
  98   2.0000      -0.483398       -13.1539
  99   2.0000      -0.468526       -12.7492
 100   2.0000      -0.468086       -12.7373
 101   2.0000      -0.465003       -12.6534
 102   2.0000      -0.439069       -11.9477
 103   2.0000      -0.422300       -11.4914
 104   2.0000      -0.386031       -10.5044
 105   2.0000      -0.365923        -9.9573
 106   2.0000      -0.359060        -9.7705
 107   2.0000      -0.353427        -9.6172
 108   2.0000      -0.346336        -9.4243
 109   2.0000      -0.336340        -9.1523
 110   2.0000      -0.323137        -8.7930
 111   0.0000      -0.040369        -1.0985
 112   0.0000       0.037754         1.0273
 113   0.0000       0.058365         1.5882
 114   0.0000       0.065048         1.7700
 115   0.0000       0.077120         2.0985

MULLIKEN ATOMIC CHARGES
-----------------------
   0 C :   -0.107598
   1 C :   -0.282383
   2 C :    0.211235
   3 C :    0.071539
   4 C :   -0.261399
   5 C :   -0.190680
   6 C :    0.336371
   7 C :    0.071985
   8 C :    0.207320
   9 C :   -0.282174
  10 H :    0.213940
  11 C :   -0.106832
  12 C :   -0.189490
  13 C :   -0.266233
  14 H :    0.200140
  15 H :    0.215039
  16 H :    0.226731
  17 H :    0.195702
  18 H :    0.200365
  19 H :    0.195268
  20 H :    0.226618
  21 N :    0.155927
  22 C :    0.008635
  23 C :   -0.411273
  24 C :   -0.323329
  25 C :   -0.009900
  26 C :   -0.175587
  27 C :   -0.239194
  28 H :    0.183546
  29 H :    0.203387
  30 C :   -0.046068
  31 C :   -0.253996
  32 C :   -0.224935
  33 C :   -0.252145
  34 H :    0.197702
  35 C :   -0.224166
  36 H :    0.195125
  37 C :    0.383651
  38 H :    0.205596
  39 H :    0.184157
  40 O :   -0.321214
  41 C :   -0.270042
  42 H :    0.175422
  43 H :    0.161749
  44 H :    0.161161
  45 H :    0.196498
  46 H :    0.177980
  47 B :    0.659574
  48 F :   -0.462697
  49 F :   -0.460353
  50 F :   -0.460677
Sum of atomic charges:   -0.0000000

LOEWDIN ATOMIC CHARGES
----------------------
   0 C :   -0.081631
   1 C :   -0.106616
   2 C :   -0.058714
   3 C :   -0.058142
   4 C :   -0.061252
   5 C :   -0.133594
   6 C :    0.067827
   7 C :   -0.058446
   8 C :   -0.058833
   9 C :   -0.106328
  10 H :    0.174522
  11 C :   -0.081794
  12 C :   -0.133745
  13 C :   -0.062072
  14 H :    0.168990
  15 H :    0.174530
  16 H :    0.175351
  17 H :    0.164132
  18 H :    0.168981
  19 H :    0.164044
  20 H :    0.175014
  21 N :    0.353744
  22 C :   -0.115928
  23 C :   -0.061961
  24 C :   -0.103713
  25 C :   -0.068234
  26 C :   -0.147449
  27 C :   -0.101734
  28 H :    0.157664
  29 H :    0.165923
  30 C :   -0.183148
  31 C :   -0.089091
  32 C :   -0.092163
  33 C :   -0.130147
  34 H :    0.172300
  35 C :   -0.113180
  36 H :    0.171872
  37 C :   -0.240055
  38 H :    0.167134
  39 H :    0.164138
  40 O :    0.208641
  41 C :   -0.306773
  42 H :    0.120912
  43 H :    0.117175
  44 H :    0.117053
  45 H :    0.169605
  46 H :    0.159751
  47 B :   -1.238424
  48 F :    0.106849
  49 F :    0.111282
  50 F :    0.095731

  Mayer bond orders larger than 0.100000
B(  0-C ,  1-C ) :   1.5377 B(  0-C ,  5-C ) :   1.2161 B(  0-C , 14-H ) :   0.9645
B(  1-C ,  2-C ) :   1.2310 B(  1-C , 15-H ) :   0.9605 B(  2-C ,  3-C ) :   1.2810
B(  2-C , 21-N ) :   1.2331 B(  3-C ,  4-C ) :   1.1837 B(  3-C ,  6-C ) :   1.2077
B(  4-C ,  5-C ) :   1.6000 B(  4-C , 16-H ) :   0.9399 B(  5-C , 17-H ) :   0.9743
B(  6-C ,  7-C ) :   1.2002 B(  6-C , 22-C ) :   0.8291 B(  7-C ,  8-C ) :   1.2867
B(  7-C , 13-C ) :   1.1860 B(  8-C ,  9-C ) :   1.2317 B(  8-C , 21-N ) :   1.2337
B(  9-C , 10-H ) :   0.9606 B(  9-C , 11-C ) :   1.5408 B( 11-C , 12-C ) :   1.2169
B( 11-C , 18-H ) :   0.9633 B( 12-C , 13-C ) :   1.5950 B( 12-C , 19-H ) :   0.9756
B( 13-C , 20-H ) :   0.9416 B( 21-N , 30-C ) :   0.7255 B( 22-C , 23-C ) :   1.3438
B( 22-C , 24-C ) :   1.3450 B( 23-C , 25-C ) :   1.3877 B( 23-C , 45-H ) :   0.9778
B( 24-C , 26-C ) :   1.4442 B( 24-C , 29-H ) :   0.9816 B( 25-C , 27-C ) :   1.3984
B( 25-C , 47-B ) :   0.9290 B( 26-C , 27-C ) :   1.3795 B( 26-C , 28-H ) :   0.9796
B( 27-C , 46-H ) :   0.9663 B( 30-C , 31-C ) :   1.5300 B( 30-C , 32-C ) :   1.4721
B( 31-C , 33-C ) :   1.3970 B( 31-C , 34-H ) :   0.9637 B( 32-C , 35-C ) :   1.4596
B( 32-C , 36-H ) :   0.9790 B( 33-C , 37-C ) :   1.3172 B( 33-C , 38-H ) :   0.9532
B( 35-C , 37-C ) :   1.3214 B( 35-C , 39-H ) :   0.9837 B( 37-C , 40-O ) :   1.1225
B( 40-O , 41-C ) :   0.8873 B( 41-C , 42-H ) :   0.9680 B( 41-C , 43-H ) :   0.9679
B( 41-C , 44-H ) :   0.9679 B( 47-B , 48-F ) :   0.8657 B( 47-B , 49-F ) :   0.8707
B( 47-B , 50-F ) :   0.8812

MP2 TOTAL ENERGY:    -1456.200627368 Eh

-----------------------------------------------------------------------------
         ABSORPTION SPECTRUM VIA TRANSITION ELECTRIC DIPOLE MOMENTS
-----------------------------------------------------------------------------
State   Energy    Wavelength  fosc         T2        TX        TY        TZ
        (cm-1)      (nm)                 (au**2)    (au)      (au)      (au)
-----------------------------------------------------------------------------
   1   24412.7    409.6   0.295742189   3.98817   1.97811  -0.19923   0.18858
   2   30250.6    330.6   0.345977201   3.76521   0.16076   1.89943   0.36267
   3   31106.7    321.5   0.094342659   0.99846   0.98622  -0.12248   0.10401
   4   32542.6    307.3   0.056839069   0.57500   0.15231   0.74028   0.06162
   5   33241.5    300.8   0.047498876   0.47041   0.03744  -0.55267  -0.40443
   6   29921.3    334.2   0.003755799   0.04132   0.13456   0.12068   0.09302
   7   39565.6    252.7   0.035253904   0.29334   0.00602  -0.05754   0.53851
   8   40632.4    246.1   1.221660225   9.89815  -0.28044  -3.07382  -0.60923
   9   41830.6    239.1   0.028792678   0.22660  -0.11553   0.45668   0.06854
  10   47631.7    209.9   0.113524645   0.78464  -0.83246   0.12376  -0.27628
  11   48915.8    204.4   0.006718742   0.04522   0.19863   0.06586  -0.03776
  12   39035.7    256.2   0.062113784   0.52384   0.10905   0.71424   0.04266
  13   47803.9    209.2   0.126513502   0.87126  -0.93181   0.05275  -0.01421
  14   45804.1    218.3   0.034210717   0.24589  -0.25141  -0.37426   0.20642
  15   45228.3    221.1   0.089113340   0.64865   0.78916  -0.14407   0.07150
  16   47708.6    209.6   0.000483819   0.00334   0.05441   0.01927  -0.00268
  17   45453.0    220.0   0.021926612   0.15881  -0.15040   0.20700  -0.30552
  18   50550.2    197.8   0.884286217   5.75897  -2.37913   0.22902  -0.21505
  19   52330.2    191.1   1.698241844  10.68373   3.24026  -0.33634   0.26701
  20   52468.0    190.6   0.420529620   2.63863   0.41366   1.09498  -1.12629
  21   50732.6    197.1   0.063993658   0.41527  -0.38728   0.04015  -0.51349
  22   51205.6    195.3   0.324056594   2.08343   0.02239   0.25742  -1.42009
  23   50750.3    197.0   0.028500052   0.18488  -0.01457   0.30744   0.30024
  24   49188.9    203.3   0.011006533   0.07366   0.19760   0.04174  -0.18132
  25   49107.1    203.6   0.140044398   0.93885   0.14875   0.18680  -0.93906
  26   50699.2    197.2   0.003861312   0.02507   0.08986  -0.03262  -0.12623
  27   51463.0    194.3   0.002233137   0.01429   0.05346  -0.07852  -0.07255
  28   51998.6    192.3   0.201547554   1.27603  -0.19512  -1.10973  -0.08031
  29   51927.7    192.6   0.003138580   0.01990  -0.09444   0.10477  -0.00106
  30   53084.4    188.4   0.012665655   0.07855  -0.00465  -0.25691   0.11191

FINAL SINGLE POINT ENERGY     -1453.336345292370

DIPOLE MOMENT
-------------
                                X             Y             Z
Electronic contribution:    -37.81504      -4.48788       4.64493
Nuclear contribution   :     50.26136       6.51485      -7.04355
                        -----------------------------------------
Total Dipole Moment    :     12.44633       2.02697      -2.39862
                        -----------------------------------------
Magnitude (a.u.)       :     12.83640
Magnitude (Debye)      :     32.62753

Rotational constants in cm-1:     0.009893     0.002157     0.001956
Rotational constants in MHz :   296.592255    64.672752    58.643006

                             ****ORCA TERMINATED NORMALLY****
TOTAL RUN TIME: 0 days 16 hours 34 minutes 9 seconds 348 msec
