                         Program Version 5.0.2 -  RELEASE  -
|  1> %maxcore 20000
|  2> %pal
|  3>  nprocs= 4
|  4> end
|  5> ! RI-B2GP-PLYP   def2-TZVP def2/J def2-TZVP/C RIJCOSX CPCM TightSCF
|  6> %TDDFT
|  7>    NROOTS   30
|  8>    dcorr 4
|  9>    TDA      FALSE
| 10> END
| 11>
| 12> %CPCM
| 13>    SMD          TRUE
| 14>    SMDsolvent   "ACETONITRILE"
| 15> END
| 16>
| 17>
| 18> * xyz 0 1
| 19> C                   0.80076000   -3.36589900   -0.94031900
| 20> C                   1.56762900   -2.27623000   -0.62942800
| 21> C                   0.96864500   -1.01160700   -0.49117200
| 22> C                  -0.44255300   -0.87352900   -0.64853800
| 23> C                  -1.18590300   -2.02861200   -1.00217200
| 24> C                  -0.58402200   -3.24407300   -1.14214400
| 25> C                  -1.04536500    0.38971900   -0.48459700
| 26> C                  -0.23230800    1.50034600   -0.18168400
| 27> C                   1.18007700    1.33535500   -0.06854800
| 28> C                   1.99463300    2.44870900    0.20421000
| 29> H                   3.06488400    2.32622300    0.27219300
| 30> C                   1.42954700    3.68117400    0.38824000
| 31> C                   0.03728200    3.85668200    0.32650400
| 32> C                  -0.76922900    2.79221000    0.05136000
| 33> H                   1.27586800   -4.33274800   -1.04429700
| 34> H                   2.63304700   -2.38282800   -0.49297200
| 35> H                  -2.24810800   -1.92751400   -1.17021500
| 36> H                  -1.16822400   -4.11245700   -1.41435200
| 37> H                   2.06898500    4.52853700    0.59883000
| 38> H                  -0.39205700    4.83309100    0.50480200
| 39> H                  -1.84130000    2.91962600    0.01922100
| 40> N                   1.73133400    0.09124300   -0.21623500
| 41> C                  -2.50193500    0.54536800   -0.62499200
| 42> C                  -3.37339600   -0.15174800    0.21585900
| 43> C                  -3.03314500    1.39038600   -1.60213500
| 44> C                  -4.75851700   -0.02611000    0.12108100
| 45> C                  -4.40600100    1.51149800   -1.73173800
| 46> C                  -5.25209500    0.81581100   -0.87831200
| 47> H                  -4.81458700    2.15195300   -2.50405100
| 48> H                  -2.36763700    1.92865700   -2.26612000
| 49> C                   3.16334700   -0.06177200   -0.07966600
| 50> C                   3.70948900   -0.28724400    1.16966700
| 51> C                   3.97063200    0.02202900   -1.20573100
| 52> C                   5.08134600   -0.43082800    1.30875300
| 53> H                   3.06345200   -0.34961500    2.03630500
| 54> C                   5.33582800   -0.11988400   -1.07392300
| 55> H                   3.52548100    0.19786300   -2.17684500
| 56> C                   5.90122600   -0.34596100    0.18395200
| 57> H                   5.50110900   -0.60692400    2.28838700
| 58> H                   5.98483800   -0.05777300   -1.93736300
| 59> O                   7.24318800   -0.46851000    0.21328700
| 60> C                   7.85720000   -0.69379500    1.47383200
| 61> H                   8.92467000   -0.75678800    1.28283800
| 62> H                   7.66326500    0.12905600    2.16531000
| 63> H                   7.51646700   -1.62934700    1.92283400
| 64> H                  -2.94792200   -0.80015300    0.97571000
| 65> H                  -6.32510800    0.92661900   -0.99429800
| 66> B                  -5.72909500   -0.79870600    1.14661100
| 67> F                  -5.21212800   -2.07360400    1.49079400
| 68> F                  -7.02282600   -0.98445000    0.60252600
| 69> F                  -5.87788200   -0.06578200    2.35759400
| 70> *
| 71>
| 72>
| 73>                          ****END OF INPUT****

CARTESIAN COORDINATES (ANGSTROEM)
---------------------------------
  C      0.800760   -3.365899   -0.940319
  C      1.567629   -2.276230   -0.629428
  C      0.968645   -1.011607   -0.491172
  C     -0.442553   -0.873529   -0.648538
  C     -1.185903   -2.028612   -1.002172
  C     -0.584022   -3.244073   -1.142144
  C     -1.045365    0.389719   -0.484597
  C     -0.232308    1.500346   -0.181684
  C      1.180077    1.335355   -0.068548
  C      1.994633    2.448709    0.204210
  H      3.064884    2.326223    0.272193
  C      1.429547    3.681174    0.388240
  C      0.037282    3.856682    0.326504
  C     -0.769229    2.792210    0.051360
  H      1.275868   -4.332748   -1.044297
  H      2.633047   -2.382828   -0.492972
  H     -2.248108   -1.927514   -1.170215
  H     -1.168224   -4.112457   -1.414352
  H      2.068985    4.528537    0.598830
  H     -0.392057    4.833091    0.504802
  H     -1.841300    2.919626    0.019221
  N      1.731334    0.091243   -0.216235
  C     -2.501935    0.545368   -0.624992
  C     -3.373396   -0.151748    0.215859
  C     -3.033145    1.390386   -1.602135
  C     -4.758517   -0.026110    0.121081
  C     -4.406001    1.511498   -1.731738
  C     -5.252095    0.815811   -0.878312
  H     -4.814587    2.151953   -2.504051
  H     -2.367637    1.928657   -2.266120
  C      3.163347   -0.061772   -0.079666
  C      3.709489   -0.287244    1.169667
  C      3.970632    0.022029   -1.205731
  C      5.081346   -0.430828    1.308753
  H      3.063452   -0.349615    2.036305
  C      5.335828   -0.119884   -1.073923
  H      3.525481    0.197863   -2.176845
  C      5.901226   -0.345961    0.183952
  H      5.501109   -0.606924    2.288387
  H      5.984838   -0.057773   -1.937363
  O      7.243188   -0.468510    0.213287
  C      7.857200   -0.693795    1.473832
  H      8.924670   -0.756788    1.282838
  H      7.663265    0.129056    2.165310
  H      7.516467   -1.629347    1.922834
  H     -2.947922   -0.800153    0.975710
  H     -6.325108    0.926619   -0.994298
  B     -5.729095   -0.798706    1.146611
  F     -5.212128   -2.073604    1.490794
  F     -7.022826   -0.984450    0.602526
  F     -5.877882   -0.065782    2.357594

 Total Charge           Charge          ....    0
 Multiplicity           Mult            ....    1
 Number of Electrons    NEL             ....  222
 Basis Dimension        Dim             .... 1106

ORBITAL ENERGIES
----------------

  NO   OCC          E(Eh)            E(eV)
   0   2.0000     -25.534785      -694.8368
   1   2.0000     -25.534279      -694.8231
   2   2.0000     -25.532699      -694.7800
   3   2.0000     -19.973656      -543.5108
   4   2.0000     -15.123907      -411.5424
   5   2.0000     -10.867371      -295.7162
   6   2.0000     -10.867290      -295.7140
   7   2.0000     -10.853059      -295.3268
   8   2.0000     -10.851879      -295.2946
   9   2.0000     -10.824155      -294.5402
  10   2.0000     -10.817788      -294.3670
  11   2.0000     -10.817656      -294.3634
  12   2.0000     -10.816043      -294.3195
  13   2.0000     -10.803529      -293.9790
  14   2.0000     -10.803414      -293.9758
  15   2.0000     -10.798978      -293.8551
  16   2.0000     -10.798621      -293.8454
  17   2.0000     -10.794572      -293.7352
  18   2.0000     -10.793628      -293.7096
  19   2.0000     -10.792846      -293.6883
  20   2.0000     -10.791520      -293.6522
  21   2.0000     -10.791318      -293.6467
  22   2.0000     -10.787257      -293.5362
  23   2.0000     -10.786948      -293.5278
  24   2.0000     -10.782120      -293.3964
  25   2.0000     -10.781016      -293.3664
  26   2.0000     -10.780788      -293.3601
  27   2.0000     -10.776462      -293.2424
  28   2.0000     -10.773799      -293.1700
  29   2.0000     -10.771414      -293.1051
  30   2.0000     -10.746960      -292.4396
  31   2.0000      -7.280855      -198.1221
  32   2.0000      -1.394153       -37.9368
  33   2.0000      -1.349922       -36.7332
  34   2.0000      -1.347413       -36.6650
  35   2.0000      -1.272936       -34.6384
  36   2.0000      -1.214034       -33.0355
  37   2.0000      -1.073097       -29.2005
  38   2.0000      -1.058042       -28.7908
  39   2.0000      -1.038886       -28.2695
  40   2.0000      -1.026144       -27.9228
  41   2.0000      -0.993430       -27.0326
  42   2.0000      -0.946298       -25.7501
  43   2.0000      -0.931279       -25.3414
  44   2.0000      -0.928806       -25.2741
  45   2.0000      -0.921762       -25.0824
  46   2.0000      -0.908885       -24.7320
  47   2.0000      -0.899535       -24.4776
  48   2.0000      -0.893617       -24.3166
  49   2.0000      -0.844940       -22.9920
  50   2.0000      -0.823489       -22.4083
  51   2.0000      -0.797797       -21.7092
  52   2.0000      -0.783311       -21.3150
  53   2.0000      -0.758995       -20.6533
  54   2.0000      -0.745862       -20.2959
  55   2.0000      -0.735432       -20.0121
  56   2.0000      -0.733436       -19.9578
  57   2.0000      -0.708106       -19.2685
  58   2.0000      -0.688603       -18.7379
  59   2.0000      -0.687212       -18.7000
  60   2.0000      -0.665186       -18.1006
  61   2.0000      -0.663241       -18.0477
  62   2.0000      -0.640379       -17.4256
  63   2.0000      -0.628820       -17.1111
  64   2.0000      -0.616759       -16.7829
  65   2.0000      -0.607688       -16.5360
  66   2.0000      -0.596890       -16.2422
  67   2.0000      -0.593844       -16.1593
  68   2.0000      -0.591667       -16.1001
  69   2.0000      -0.586243       -15.9525
  70   2.0000      -0.584548       -15.9064
  71   2.0000      -0.578001       -15.7282
  72   2.0000      -0.571132       -15.5413
  73   2.0000      -0.559691       -15.2300
  74   2.0000      -0.556440       -15.1415
  75   2.0000      -0.555460       -15.1148
  76   2.0000      -0.548113       -14.9149
  77   2.0000      -0.546940       -14.8830
  78   2.0000      -0.540030       -14.6950
  79   2.0000      -0.538058       -14.6413
  80   2.0000      -0.533339       -14.5129
  81   2.0000      -0.517704       -14.0874
  82   2.0000      -0.516975       -14.0676
  83   2.0000      -0.513690       -13.9782
  84   2.0000      -0.509440       -13.8626
  85   2.0000      -0.500563       -13.6210
  86   2.0000      -0.489085       -13.3087
  87   2.0000      -0.486286       -13.2325
  88   2.0000      -0.482539       -13.1305
  89   2.0000      -0.476233       -12.9590
  90   2.0000      -0.473927       -12.8962
  91   2.0000      -0.470576       -12.8050
  92   2.0000      -0.469379       -12.7724
  93   2.0000      -0.464997       -12.6532
  94   2.0000      -0.462136       -12.5754
  95   2.0000      -0.456404       -12.4194
  96   2.0000      -0.449610       -12.2345
  97   2.0000      -0.443455       -12.0670
  98   2.0000      -0.433820       -11.8049
  99   2.0000      -0.422605       -11.4997
 100   2.0000      -0.421981       -11.4827
 101   2.0000      -0.416600       -11.3363
 102   2.0000      -0.391124       -10.6430
 103   2.0000      -0.375863       -10.2278
 104   2.0000      -0.340134        -9.2555
 105   2.0000      -0.321237        -8.7413
 106   2.0000      -0.316574        -8.6144
 107   2.0000      -0.308653        -8.3989
 108   2.0000      -0.301672        -8.2089
 109   2.0000      -0.292395        -7.9565
 110   2.0000      -0.281137        -7.6501
 111   0.0000      -0.054657        -1.4873
 112   0.0000       0.021278         0.5790
 113   0.0000       0.040263         1.0956
 114   0.0000       0.047323         1.2877
 115   0.0000       0.058094         1.5808

MULLIKEN ATOMIC CHARGES
-----------------------
   0 C :   -0.094839
   1 C :   -0.247863
   2 C :    0.189716
   3 C :    0.092737
   4 C :   -0.255253
   5 C :   -0.165576
   6 C :    0.333680
   7 C :    0.092236
   8 C :    0.184646
   9 C :   -0.247497
  10 H :    0.187084
  11 C :   -0.094355
  12 C :   -0.163518
  13 C :   -0.260598
  14 H :    0.178687
  15 H :    0.187985
  16 H :    0.197281
  17 H :    0.173173
  18 H :    0.178927
  19 H :    0.172764
  20 H :    0.197794
  21 N :    0.130919
  22 C :    0.071806
  23 C :   -0.399669
  24 C :   -0.308124
  25 C :   -0.016612
  26 C :   -0.152099
  27 C :   -0.223553
  28 H :    0.158441
  29 H :    0.172841
  30 C :    0.077973
  31 C :   -0.250236
  32 C :   -0.226854
  33 C :   -0.234406
  34 H :    0.172688
  35 C :   -0.200563
  36 H :    0.169584
  37 C :    0.382985
  38 H :    0.175648
  39 H :    0.156466
  40 O :   -0.343161
  41 C :   -0.192847
  42 H :    0.154550
  43 H :    0.140089
  44 H :    0.139555
  45 H :    0.161440
  46 H :    0.152914
  47 B :    0.735326
  48 F :   -0.482165
  49 F :   -0.479587
  50 F :   -0.480563
Sum of atomic charges:    0.0000000

LOEWDIN ATOMIC CHARGES
----------------------
   0 C :   -0.080366
   1 C :   -0.101119
   2 C :   -0.056312
   3 C :   -0.053035
   4 C :   -0.058051
   5 C :   -0.128828
   6 C :    0.067908
   7 C :   -0.053353
   8 C :   -0.056434
   9 C :   -0.100847
  10 H :    0.169296
  11 C :   -0.080521
  12 C :   -0.128956
  13 C :   -0.058905
  14 H :    0.162838
  15 H :    0.169295
  16 H :    0.170056
  17 H :    0.158203
  18 H :    0.162833
  19 H :    0.158114
  20 H :    0.169686
  21 N :    0.353261
  22 C :   -0.108600
  23 C :   -0.058461
  24 C :   -0.100173
  25 C :   -0.063919
  26 C :   -0.144086
  27 C :   -0.099385
  28 H :    0.151331
  29 H :    0.159392
  30 C :   -0.172728
  31 C :   -0.085525
  32 C :   -0.088364
  33 C :   -0.125964
  34 H :    0.165715
  35 C :   -0.109949
  36 H :    0.165345
  37 C :   -0.234792
  38 H :    0.161542
  39 H :    0.157810
  40 O :    0.206310
  41 C :   -0.293546
  42 H :    0.115851
  43 H :    0.112283
  44 H :    0.112159
  45 H :    0.163128
  46 H :    0.153581
  47 B :   -1.229780
  48 F :    0.104201
  49 F :    0.108673
  50 F :    0.093189

  Mayer bond orders larger than 0.100000
B(  0-C ,  1-C ) :   1.5302 B(  0-C ,  5-C ) :   1.2231 B(  0-C , 14-H ) :   0.9711
B(  1-C ,  2-C ) :   1.2525 B(  1-C , 15-H ) :   0.9700 B(  2-C ,  3-C ) :   1.2578
B(  2-C , 21-N ) :   1.2289 B(  3-C ,  4-C ) :   1.1924 B(  3-C ,  6-C ) :   1.1827
B(  3-C , 22-C ) :  -0.1047 B(  4-C ,  5-C ) :   1.5948 B(  4-C , 16-H ) :   0.9574
B(  5-C , 17-H ) :   0.9816 B(  6-C ,  7-C ) :   1.1759 B(  6-C , 22-C ) :   0.8272
B(  7-C ,  8-C ) :   1.2649 B(  7-C , 13-C ) :   1.1952 B(  7-C , 22-C ) :  -0.1021
B(  8-C ,  9-C ) :   1.2535 B(  8-C , 21-N ) :   1.2294 B(  9-C , 10-H ) :   0.9699
B(  9-C , 11-C ) :   1.5330 B( 11-C , 12-C ) :   1.2237 B( 11-C , 18-H ) :   0.9699
B( 12-C , 13-C ) :   1.5889 B( 12-C , 19-H ) :   0.9829 B( 13-C , 20-H ) :   0.9592
B( 21-N , 30-C ) :   0.6964 B( 22-C , 23-C ) :   1.3335 B( 22-C , 24-C ) :   1.3386
B( 23-C , 25-C ) :   1.3854 B( 23-C , 45-H ) :   0.9998 B( 24-C , 26-C ) :   1.4448
B( 24-C , 29-H ) :   0.9922 B( 25-C , 27-C ) :   1.3967 B( 25-C , 47-B ) :   0.9159
B( 26-C , 27-C ) :   1.3734 B( 26-C , 28-H ) :   0.9876 B( 27-C , 46-H ) :   0.9749
B( 30-C , 31-C ) :   1.5102 B( 30-C , 32-C ) :   1.4569 B( 31-C , 33-C ) :   1.3772
B( 31-C , 34-H ) :   0.9741 B( 32-C , 35-C ) :   1.4576 B( 32-C , 36-H ) :   0.9898
B( 33-C , 37-C ) :   1.3187 B( 33-C , 38-H ) :   0.9718 B( 35-C , 37-C ) :   1.3246
B( 35-C , 39-H ) :   0.9945 B( 37-C , 40-O ) :   1.1154 B( 40-O , 41-C ) :   0.8801
B( 41-C , 42-H ) :   0.9742 B( 41-C , 43-H ) :   0.9729 B( 41-C , 44-H ) :   0.9729
B( 47-B , 48-F ) :   0.8412 B( 47-B , 49-F ) :   0.8466 B( 47-B , 50-F ) :   0.8578

MP2 TOTAL ENERGY:    -1455.905638935 Eh

-----------------------------------------------------------------------------
         ABSORPTION SPECTRUM VIA TRANSITION ELECTRIC DIPOLE MOMENTS
-----------------------------------------------------------------------------
State   Energy    Wavelength  fosc         T2        TX        TY        TZ
        (cm-1)      (nm)                 (au**2)    (au)      (au)      (au)
-----------------------------------------------------------------------------
   1   23721.0    421.6   0.277013053   3.84453  -1.94209   0.19654  -0.18484
   2   29869.6    334.8   0.333365356   3.67424   0.12718   1.88247   0.33817
   3   28923.6    345.7   0.073282443   0.83411  -0.90415  -0.00954  -0.12858
   4   29044.2    344.3   0.004241713   0.04808   0.12883   0.11666  -0.13369
   5   27016.3    370.1   0.002795113   0.03406  -0.17749   0.02481   0.04407
   6   32727.6    305.6   0.059051869   0.59401   0.01838   0.69937   0.32336
   7   36396.3    274.8   0.306502192   2.77237   0.13683   1.64011   0.25236
   8   39176.4    255.3   0.090853162   0.76347  -0.06280  -0.56767  -0.66127
   9   38752.3    258.0   0.838686582   7.12489   0.25124   2.61857   0.45263
  10   41546.5    240.7   0.037623707   0.29813  -0.10452   0.53573   0.01398
  11   46505.8    215.0   0.133913132   0.94796  -0.92108   0.14021  -0.28270
  12   47237.2    211.7   0.004225714   0.02945  -0.14958  -0.07527  -0.03755
  13   45842.4    218.1   0.105842179   0.76009   0.87076  -0.04334   0.00086
  14   44311.3    225.7   0.058357793   0.43357   0.11379   0.63743  -0.11961
  15   44738.4    223.5   0.050755384   0.37349   0.60961  -0.03680  -0.02245
  16   45675.0    218.9   0.008555536   0.06167   0.24731  -0.00821   0.02090
  17   43853.8    228.0   0.012698379   0.09533   0.03441  -0.15772   0.26319
  18   43444.3    230.2   0.012611372   0.09557  -0.22527  -0.02922   0.20968
  19   48460.8    206.4   0.751300444   5.10385  -2.24330   0.21637  -0.15698
  20   46502.0    215.0   0.048901757   0.34620  -0.18328   0.22866  -0.51022
  21   51032.7    196.0   1.718740866  11.08760   3.29499  -0.32762   0.35110
  22   47625.5    210.0   0.031312116   0.21645  -0.26992  -0.21286   0.31350
  23   50367.4    198.5   0.294862314   1.92728  -0.27170  -0.98259   0.94232
  24   48936.5    204.3   0.019208753   0.12922   0.19648   0.07366  -0.29188
  25   48359.4    206.8   0.026331295   0.17925   0.39061   0.01708  -0.16243
  26   51797.4    193.1   0.387338542   2.46183   0.15641  -0.07736   1.55929
  27   48867.6    204.6   0.110764979   0.74620  -0.68378  -0.21110   0.48382
  28   49301.6    202.8   0.035937654   0.23997  -0.15311   0.46063   0.06600
  29   51875.0    192.8   0.176918115   1.12277   0.09999   1.05178  -0.08085
  30   50305.5    198.8   0.007577443   0.04959  -0.05577  -0.19602   0.08975

FINAL SINGLE POINT ENERGY     -1453.600094682684

DIPOLE MOMENT
-------------
                                X             Y             Z
Electronic contribution:    -37.81782      -4.50055       4.65508
Nuclear contribution   :     50.26136       6.51485      -7.04355
                        -----------------------------------------
Total Dipole Moment    :     12.44354       2.01430      -2.38847
                        -----------------------------------------
Magnitude (a.u.)       :     12.82981
Magnitude (Debye)      :     32.61078

Rotational constants in cm-1:     0.009893     0.002157     0.001956
Rotational constants in MHz :   296.592255    64.672752    58.643006

                             ****ORCA TERMINATED NORMALLY****
TOTAL RUN TIME: 0 days 15 hours 14 minutes 52 seconds 254 msec
