                         Program Version 5.0.2 -  RELEASE  -
|  1> %maxcore 20000
|  2> %pal
|  3>  nprocs= 4
|  4> end
|  5> ! RI-B2GP-PLYP   def2-TZVP def2/J def2-TZVP/C RIJCOSX CPCM TightSCF
|  6> %TDDFT
|  7>    NROOTS   30
|  8>    dcorr 4
|  9>    TDA      FALSE
| 10> END
| 11>
| 12> %CPCM
| 13>    SMD          TRUE
| 14>    SMDsolvent   "DICHLOROMETHANE"
| 15> END
| 16>
| 17>
| 18> * xyz 0 1
| 19> C                   1.46464600   -2.41893700   -0.06271400
| 20> C                   0.72641700   -1.24107300   -0.01499900
| 21> C                   1.42205100   -0.00158200    0.00156800
| 22> C                   2.84382300   -0.00301800    0.00068500
| 23> C                   3.54933700   -1.22065000   -0.04191100
| 24> C                   2.85128800   -2.41046100   -0.07903600
| 25> H                   0.95923300   -3.37322000   -0.09116000
| 26> C                   0.72918700    1.23961000    0.01888700
| 27> C                   3.55035700    1.21370400    0.04281100
| 28> H                   3.40455200   -3.33956400   -0.11758900
| 29> C                   2.85603900    2.40537100    0.08161500
| 30> C                   1.46935800    2.41633000    0.06644900
| 31> H                   3.41148400    3.33328100    0.12004100
| 32> H                   0.96535600    3.37133800    0.09545200
| 33> C                  -0.72918900   -1.23962400    0.01882700
| 34> C                  -1.42205000    0.00157300    0.00165600
| 35> C                  -1.46936300   -2.41633800    0.06659300
| 36> C                  -0.72641800    1.24106800   -0.01473900
| 37> C                  -2.84382100    0.00301000    0.00079900
| 38> C                  -2.85604700   -2.40537900    0.08185800
| 39> H                  -0.96536200   -3.37134200    0.09572600
| 40> C                  -1.46464200    2.41895300   -0.06206700
| 41> C                  -3.54932500    1.22065700   -0.04173700
| 42> C                  -3.55037000   -1.21371600    0.04297400
| 43> H                  -3.41148900   -3.33328500    0.12042700
| 44> C                  -2.85128100    2.41047900   -0.07852000
| 45> H                  -0.95922500    3.37324200   -0.09015400
| 46> H                  -3.40455300    3.33958500   -0.11689700
| 47> C                   5.01757000   -1.24515300   -0.04927900
| 48> O                   5.65530900   -2.28354200   -0.09105200
| 49> C                   5.01650500    1.22652800    0.04761100
| 50> O                   5.67372900    2.25332000    0.09285300
| 51> N                   5.66106700   -0.00727100   -0.00462900
| 52> C                  -5.01755500    1.24515000   -0.04943100
| 53> O                  -5.65528800    2.28353000   -0.09150600
| 54> C                  -5.01651700   -1.22652700    0.04780100
| 55> O                  -5.67375700   -2.25329900    0.09321200
| 56> N                  -5.66106400    0.00727200   -0.00477200
| 57> C                   7.11459700    0.02798000   -0.00696600
| 58> H                   7.47294100    0.61119000   -0.85250200
| 59> H                   7.48161400    0.49099800    0.90692800
| 60> H                   7.47983500   -0.98932600   -0.07691200
| 61> C                  -7.11459300   -0.02797600   -0.00736100
| 62> H                  -7.48180000   -0.49059900    0.90665800
| 63> H                  -7.47981200    0.98930300   -0.07779800
| 64> H                  -7.47276200   -0.61154600   -0.85272200
| 65> *
| 66>
| 67>
| 68>                          ****END OF INPUT****

CARTESIAN COORDINATES (ANGSTROEM)
---------------------------------
  C      1.464646   -2.418937   -0.062714
  C      0.726417   -1.241073   -0.014999
  C      1.422051   -0.001582    0.001568
  C      2.843823   -0.003018    0.000685
  C      3.549337   -1.220650   -0.041911
  C      2.851288   -2.410461   -0.079036
  H      0.959233   -3.373220   -0.091160
  C      0.729187    1.239610    0.018887
  C      3.550357    1.213704    0.042811
  H      3.404552   -3.339564   -0.117589
  C      2.856039    2.405371    0.081615
  C      1.469358    2.416330    0.066449
  H      3.411484    3.333281    0.120041
  H      0.965356    3.371338    0.095452
  C     -0.729189   -1.239624    0.018827
  C     -1.422050    0.001573    0.001656
  C     -1.469363   -2.416338    0.066593
  C     -0.726418    1.241068   -0.014739
  C     -2.843821    0.003010    0.000799
  C     -2.856047   -2.405379    0.081858
  H     -0.965362   -3.371342    0.095726
  C     -1.464642    2.418953   -0.062067
  C     -3.549325    1.220657   -0.041737
  C     -3.550370   -1.213716    0.042974
  H     -3.411489   -3.333285    0.120427
  C     -2.851281    2.410479   -0.078520
  H     -0.959225    3.373242   -0.090154
  H     -3.404553    3.339585   -0.116897
  C      5.017570   -1.245153   -0.049279
  O      5.655309   -2.283542   -0.091052
  C      5.016505    1.226528    0.047611
  O      5.673729    2.253320    0.092853
  N      5.661067   -0.007271   -0.004629
  C     -5.017555    1.245150   -0.049431
  O     -5.655288    2.283530   -0.091506
  C     -5.016517   -1.226527    0.047801
  O     -5.673757   -2.253299    0.093212
  N     -5.661064    0.007272   -0.004772
  C      7.114597    0.027980   -0.006966
  H      7.472941    0.611190   -0.852502
  H      7.481614    0.490998    0.906928
  H      7.479835   -0.989326   -0.076912
  C     -7.114593   -0.027976   -0.007361
  H     -7.481800   -0.490599    0.906658
  H     -7.479812    0.989303   -0.077798
  H     -7.472762   -0.611546   -0.852722

 Total Charge           Charge          ....    0
 Multiplicity           Mult            ....    1
 Number of Electrons    NEL             ....  216
 Basis Dimension        Dim             .... 1076

ORBITAL ENERGIES
----------------

  NO   OCC          E(Eh)            E(eV)
   0   2.0000     -19.925162      -542.1912
   1   2.0000     -19.925161      -542.1912
   2   2.0000     -19.925144      -542.1907
   3   2.0000     -19.925143      -542.1907
   4   2.0000     -15.081325      -410.3837
   5   2.0000     -15.081322      -410.3836
   6   2.0000     -10.911607      -296.9199
   7   2.0000     -10.911606      -296.9199
   8   2.0000     -10.909245      -296.8557
   9   2.0000     -10.909244      -296.8556
  10   2.0000     -10.820297      -294.4353
  11   2.0000     -10.820277      -294.4347
  12   2.0000     -10.819663      -294.4180
  13   2.0000     -10.819613      -294.4166
  14   2.0000     -10.815865      -294.3146
  15   2.0000     -10.815862      -294.3146
  16   2.0000     -10.812348      -294.2189
  17   2.0000     -10.812342      -294.2188
  18   2.0000     -10.803620      -293.9815
  19   2.0000     -10.803619      -293.9814
  20   2.0000     -10.803422      -293.9760
  21   2.0000     -10.803418      -293.9759
  22   2.0000     -10.802186      -293.9424
  23   2.0000     -10.802184      -293.9424
  24   2.0000     -10.802150      -293.9414
  25   2.0000     -10.802149      -293.9414
  26   2.0000     -10.795266      -293.7541
  27   2.0000     -10.795264      -293.7541
  28   2.0000     -10.795173      -293.7516
  29   2.0000     -10.795172      -293.7516
  30   2.0000     -10.794869      -293.7433
  31   2.0000     -10.794865      -293.7432
  32   2.0000      -1.270145       -34.5624
  33   2.0000      -1.270144       -34.5624
  34   2.0000      -1.249479       -34.0001
  35   2.0000      -1.249477       -34.0000
  36   2.0000      -1.128963       -30.7206
  37   2.0000      -1.128620       -30.7113
  38   2.0000      -1.100878       -29.9564
  39   2.0000      -1.072339       -29.1798
  40   2.0000      -1.034618       -28.1534
  41   2.0000      -1.012793       -27.5595
  42   2.0000      -1.010374       -27.4937
  43   2.0000      -0.952327       -25.9141
  44   2.0000      -0.944937       -25.7130
  45   2.0000      -0.932231       -25.3673
  46   2.0000      -0.917405       -24.9639
  47   2.0000      -0.890724       -24.2378
  48   2.0000      -0.876439       -23.8491
  49   2.0000      -0.856709       -23.3122
  50   2.0000      -0.839975       -22.8569
  51   2.0000      -0.801886       -21.8204
  52   2.0000      -0.797154       -21.6917
  53   2.0000      -0.787304       -21.4236
  54   2.0000      -0.777409       -21.1544
  55   2.0000      -0.756172       -20.5765
  56   2.0000      -0.751337       -20.4449
  57   2.0000      -0.729890       -19.8613
  58   2.0000      -0.697553       -18.9814
  59   2.0000      -0.672191       -18.2912
  60   2.0000      -0.668182       -18.1822
  61   2.0000      -0.657018       -17.8784
  62   2.0000      -0.643671       -17.5152
  63   2.0000      -0.626845       -17.0573
  64   2.0000      -0.617465       -16.8021
  65   2.0000      -0.599819       -16.3219
  66   2.0000      -0.595466       -16.2034
  67   2.0000      -0.594452       -16.1759
  68   2.0000      -0.589501       -16.0411
  69   2.0000      -0.589065       -16.0293
  70   2.0000      -0.577495       -15.7144
  71   2.0000      -0.565471       -15.3872
  72   2.0000      -0.562578       -15.3085
  73   2.0000      -0.561130       -15.2691
  74   2.0000      -0.549766       -14.9599
  75   2.0000      -0.544444       -14.8151
  76   2.0000      -0.543157       -14.7801
  77   2.0000      -0.533596       -14.5199
  78   2.0000      -0.530430       -14.4337
  79   2.0000      -0.519002       -14.1228
  80   2.0000      -0.507906       -13.8208
  81   2.0000      -0.506281       -13.7766
  82   2.0000      -0.504665       -13.7326
  83   2.0000      -0.500506       -13.6195
  84   2.0000      -0.497740       -13.5442
  85   2.0000      -0.496915       -13.5218
  86   2.0000      -0.486361       -13.2345
  87   2.0000      -0.486333       -13.2338
  88   2.0000      -0.483579       -13.1588
  89   2.0000      -0.482031       -13.1167
  90   2.0000      -0.466169       -12.6851
  91   2.0000      -0.456019       -12.4089
  92   2.0000      -0.449478       -12.2309
  93   2.0000      -0.444174       -12.0866
  94   2.0000      -0.424091       -11.5401
  95   2.0000      -0.407872       -11.0988
  96   2.0000      -0.402687       -10.9577
  97   2.0000      -0.392374       -10.6770
  98   2.0000      -0.390269       -10.6198
  99   2.0000      -0.374222       -10.1831
 100   2.0000      -0.374173       -10.1818
 101   2.0000      -0.357790        -9.7360
 102   2.0000      -0.355234        -9.6664
 103   2.0000      -0.328327        -8.9342
 104   2.0000      -0.326760        -8.8916
 105   2.0000      -0.321146        -8.7388
 106   2.0000      -0.315110        -8.5746
 107   2.0000      -0.248966        -6.7747
 108   0.0000      -0.071889        -1.9562
 109   0.0000       0.003993         0.1086
 110   0.0000       0.008250         0.2245
 111   0.0000       0.023037         0.6269
 112   0.0000       0.051704         1.4069

MULLIKEN ATOMIC CHARGES
-----------------------
   0 C :   -0.207551
   1 C :    0.110174
   2 C :   -0.031676
   3 C :    0.082138
   4 C :    0.058467
   5 C :   -0.171750
   6 H :    0.157846
   7 C :    0.115786
   8 C :    0.057322
   9 H :    0.173588
  10 C :   -0.174045
  11 C :   -0.205963
  12 H :    0.172849
  13 H :    0.158223
  14 C :    0.114602
  15 C :   -0.036024
  16 C :   -0.200804
  17 C :    0.108632
  18 C :    0.084899
  19 C :   -0.180614
  20 H :    0.158325
  21 C :   -0.202725
  22 C :    0.057860
  23 C :    0.062487
  24 H :    0.171703
  25 C :   -0.177447
  26 H :    0.158288
  27 H :    0.173292
  28 C :    0.293180
  29 O :   -0.482102
  30 C :    0.305872
  31 O :   -0.477833
  32 N :   -0.111838
  33 C :    0.296315
  34 O :   -0.482100
  35 C :    0.302780
  36 O :   -0.478078
  37 N :   -0.112522
  38 C :   -0.274727
  39 H :    0.143575
  40 H :    0.143278
  41 H :    0.166987
  42 C :   -0.274385
  43 H :    0.143217
  44 H :    0.166961
  45 H :    0.143534
Sum of atomic charges:   -0.0000000

LOEWDIN ATOMIC CHARGES
----------------------
   0 C :   -0.071437
   1 C :   -0.030983
   2 C :    0.000439
   3 C :   -0.011687
   4 C :   -0.078807
   5 C :   -0.047898
   6 H :    0.161065
   7 C :   -0.031066
   8 C :   -0.079538
   9 H :    0.165848
  10 C :   -0.047833
  11 C :   -0.071257
  12 H :    0.165801
  13 H :    0.161067
  14 C :   -0.031062
  15 C :    0.000430
  16 C :   -0.071250
  17 C :   -0.030985
  18 C :   -0.011677
  19 C :   -0.047839
  20 H :    0.161069
  21 C :   -0.071437
  22 C :   -0.078813
  23 C :   -0.079525
  24 H :    0.165797
  25 C :   -0.047902
  26 H :    0.161064
  27 H :    0.165851
  28 C :   -0.303033
  29 O :    0.030855
  30 C :   -0.303469
  31 O :    0.036645
  32 N :    0.227192
  33 C :   -0.303036
  34 O :    0.030858
  35 C :   -0.303493
  36 O :    0.036661
  37 N :    0.227188
  38 C :   -0.243474
  39 H :    0.122101
  40 H :    0.121793
  41 H :    0.127681
  42 C :   -0.243475
  43 H :    0.121789
  44 H :    0.127681
  45 H :    0.122103

  Mayer bond orders larger than 0.100000
B(  0-C ,  1-C ) :   1.4456 B(  0-C ,  5-C ) :   1.2793 B(  0-C ,  6-H ) :   0.9833
B(  1-C ,  2-C ) :   1.2660 B(  1-C , 14-C ) :   1.0729 B(  2-C ,  3-C ) :   1.3277
B(  2-C ,  7-C ) :   1.2601 B(  3-C ,  4-C ) :   1.2958 B(  3-C ,  8-C ) :   1.2832
B(  4-C ,  5-C ) :   1.4224 B(  4-C , 28-C ) :   0.9799 B(  4-C , 29-O ) :  -0.1603
B(  5-C ,  9-H ) :   0.9855 B(  7-C , 11-C ) :   1.4440 B(  7-C , 17-C ) :   1.0721
B(  8-C , 10-C ) :   1.4165 B(  8-C , 30-C ) :   0.9889 B(  8-C , 31-O ) :  -0.1569
B( 10-C , 11-C ) :   1.2806 B( 10-C , 12-H ) :   0.9879 B( 11-C , 13-H ) :   0.9832
B( 14-C , 15-C ) :   1.2647 B( 14-C , 16-C ) :   1.4449 B( 15-C , 17-C ) :   1.2679
B( 15-C , 18-C ) :   1.3284 B( 16-C , 19-C ) :   1.2751 B( 16-C , 20-H ) :   0.9829
B( 17-C , 21-C ) :   1.4452 B( 18-C , 22-C ) :   1.2939 B( 18-C , 23-C ) :   1.2746
B( 19-C , 23-C ) :   1.4202 B( 19-C , 24-H ) :   0.9894 B( 21-C , 25-C ) :   1.2759
B( 21-C , 26-H ) :   0.9831 B( 22-C , 25-C ) :   1.4185 B( 22-C , 33-C ) :   0.9815
B( 22-C , 34-O ) :  -0.1603 B( 23-C , 35-C ) :   0.9894 B( 23-C , 36-O ) :  -0.1587
B( 25-C , 27-H ) :   0.9883 B( 28-C , 29-O ) :   2.0025 B( 28-C , 32-N ) :   1.1857
B( 30-C , 31-O ) :   2.0044 B( 30-C , 32-N ) :   1.1681 B( 32-N , 38-C ) :   0.8656
B( 33-C , 34-O ) :   2.0021 B( 33-C , 37-N ) :   1.1857 B( 35-C , 36-O ) :   2.0058
B( 35-C , 37-N ) :   1.1680 B( 37-N , 42-C ) :   0.8666 B( 38-C , 39-H ) :   0.9739
B( 38-C , 40-H ) :   0.9747 B( 38-C , 41-H ) :   0.9654 B( 42-C , 43-H ) :   0.9746
B( 42-C , 44-H ) :   0.9654 B( 42-C , 45-H ) :   0.9738

MP2 TOTAL ENERGY:    -1408.897703470 Eh

-----------------------------------------------------------------------------
         ABSORPTION SPECTRUM VIA TRANSITION ELECTRIC DIPOLE MOMENTS
-----------------------------------------------------------------------------
State   Energy    Wavelength  fosc         T2        TX        TY        TZ
        (cm-1)      (nm)                 (au**2)    (au)      (au)      (au)
-----------------------------------------------------------------------------
   1   19197.0    520.9   0.970970297  16.65134   4.08060  -0.00457  -0.00011
   2   27529.1    363.3   0.000086768   0.00104   0.00000  -0.00005  -0.03221
   3   30175.6    331.4   0.000147080   0.00160   0.00000   0.00009  -0.04006
   4   29143.4    343.1   0.194232309   2.19410   0.00096  -1.48125  -0.00008
   5   31964.1    312.9   0.000000464   0.00000   0.00001   0.00007  -0.00218
   6   29755.3    336.1   0.000000172   0.00000  -0.00002   0.00004   0.00138
   7   33889.8    295.1   0.000449911   0.00437   0.00006   0.00004  -0.06611
   8   30135.6    331.8   0.000028014   0.00031  -0.00000  -0.00001   0.01749
   9   31403.2    318.4   0.000298820   0.00313  -0.00080   0.00028   0.05596
  10   31427.6    318.2   0.000016147   0.00017  -0.00368   0.00147  -0.01239
  11   35063.9    285.2   0.000058343   0.00055  -0.01189  -0.02016  -0.00004
  12   35308.2    283.2   0.000000366   0.00000   0.00003   0.00035   0.00181
  13   35555.7    281.2   0.010294284   0.09532  -0.00163  -0.30873  -0.00010
  14   34775.9    287.6   0.000565372   0.00535   0.00002   0.00053  -0.07316
  15   38669.5    258.6   1.034894996   8.81055  -0.01506   2.96822   0.00003
  16   41535.5    240.8   0.004500968   0.03567   0.17256   0.07680   0.00008
  17   43862.9    228.0   0.094351989   0.70816   0.01042  -0.84146  -0.00017
  18   44986.3    222.3   0.113438387   0.83015  -0.91077  -0.02554  -0.00020
  19   45136.8    221.5   0.022935784   0.16729  -0.40841  -0.02208  -0.00014
  20   43254.1    231.2   0.000000013   0.00000  -0.00004   0.00002  -0.00031
  21   42524.1    235.2   0.157435789   1.21883  -0.03488  -1.10346  -0.00008
  22   43333.6    230.8   0.021835511   0.16589  -0.00445  -0.40727  -0.00001
  23   42506.1    235.3   0.243942310   1.88935  -0.04891   1.37366  -0.00001
  24   48241.6    207.3   0.000056724   0.00039  -0.00128  -0.00001  -0.01963
  25   44974.5    222.3   0.000236917   0.00173   0.00184   0.00017  -0.04160
  26   45846.2    218.1   2.441353222  17.53084   4.18694   0.01958  -0.00008
  27   43234.1    231.3   0.023510737   0.17903  -0.01040   0.42299  -0.00004
  28   44754.6    223.4   0.020066138   0.14761  -0.38419   0.00162  -0.00000
  29   44623.6    224.1   0.046949098   0.34637  -0.58847  -0.00817  -0.00002
  30   47092.9    212.3   0.042075050   0.29413  -0.53761   0.07148  -0.00006

FINAL SINGLE POINT ENERGY     -1406.608377777312

DIPOLE MOMENT
-------------
                                X             Y             Z
Electronic contribution:      0.00010      -0.00012       0.01837
Nuclear contribution   :      0.00001       0.00005      -0.02957
                        -----------------------------------------
Total Dipole Moment    :      0.00011      -0.00006      -0.01120
                        -----------------------------------------
Magnitude (a.u.)       :      0.01120
Magnitude (Debye)      :      0.02847

Rotational constants in cm-1:     0.013982     0.002362     0.002023
Rotational constants in MHz :   419.179379    70.800426    60.635339

                             ****ORCA TERMINATED NORMALLY****
TOTAL RUN TIME: 0 days 12 hours 51 minutes 59 seconds 350 msec
