                         Program Version 5.0.2 -  RELEASE  -
|  1> %maxcore 3200
|  2> %pal
|  3>  nprocs= 8
|  4> end
|  5> ! RI-DSD-BLYP D3BJ def2-TZVP def2/J def2-TZVP/C RIJCOSX CPCM TightSCF
|  6> %TDDFT DCORR 4
|  7>    NROOTS   30
|  8>
|  9>    TDA      FALSE
| 10> END
| 11>
| 12> %CPCM
| 13>    SMD          TRUE
| 14>    SMDsolvent   "DICHLOROMETHANE"
| 15> END
| 16>
| 17>
| 18> * xyz 0 1
| 19> C                   1.46464600   -2.41893700   -0.06271400
| 20> C                   0.72641700   -1.24107300   -0.01499900
| 21> C                   1.42205100   -0.00158200    0.00156800
| 22> C                   2.84382300   -0.00301800    0.00068500
| 23> C                   3.54933700   -1.22065000   -0.04191100
| 24> C                   2.85128800   -2.41046100   -0.07903600
| 25> H                   0.95923300   -3.37322000   -0.09116000
| 26> C                   0.72918700    1.23961000    0.01888700
| 27> C                   3.55035700    1.21370400    0.04281100
| 28> H                   3.40455200   -3.33956400   -0.11758900
| 29> C                   2.85603900    2.40537100    0.08161500
| 30> C                   1.46935800    2.41633000    0.06644900
| 31> H                   3.41148400    3.33328100    0.12004100
| 32> H                   0.96535600    3.37133800    0.09545200
| 33> C                  -0.72918900   -1.23962400    0.01882700
| 34> C                  -1.42205000    0.00157300    0.00165600
| 35> C                  -1.46936300   -2.41633800    0.06659300
| 36> C                  -0.72641800    1.24106800   -0.01473900
| 37> C                  -2.84382100    0.00301000    0.00079900
| 38> C                  -2.85604700   -2.40537900    0.08185800
| 39> H                  -0.96536200   -3.37134200    0.09572600
| 40> C                  -1.46464200    2.41895300   -0.06206700
| 41> C                  -3.54932500    1.22065700   -0.04173700
| 42> C                  -3.55037000   -1.21371600    0.04297400
| 43> H                  -3.41148900   -3.33328500    0.12042700
| 44> C                  -2.85128100    2.41047900   -0.07852000
| 45> H                  -0.95922500    3.37324200   -0.09015400
| 46> H                  -3.40455300    3.33958500   -0.11689700
| 47> C                   5.01757000   -1.24515300   -0.04927900
| 48> O                   5.65530900   -2.28354200   -0.09105200
| 49> C                   5.01650500    1.22652800    0.04761100
| 50> O                   5.67372900    2.25332000    0.09285300
| 51> N                   5.66106700   -0.00727100   -0.00462900
| 52> C                  -5.01755500    1.24515000   -0.04943100
| 53> O                  -5.65528800    2.28353000   -0.09150600
| 54> C                  -5.01651700   -1.22652700    0.04780100
| 55> O                  -5.67375700   -2.25329900    0.09321200
| 56> N                  -5.66106400    0.00727200   -0.00477200
| 57> C                   7.11459700    0.02798000   -0.00696600
| 58> H                   7.47294100    0.61119000   -0.85250200
| 59> H                   7.48161400    0.49099800    0.90692800
| 60> H                   7.47983500   -0.98932600   -0.07691200
| 61> C                  -7.11459300   -0.02797600   -0.00736100
| 62> H                  -7.48180000   -0.49059900    0.90665800
| 63> H                  -7.47981200    0.98930300   -0.07779800
| 64> H                  -7.47276200   -0.61154600   -0.85272200
| 65> *
| 66>
| 67>
| 68>                          ****END OF INPUT****

CARTESIAN COORDINATES (ANGSTROEM)
---------------------------------
  C      1.464646   -2.418937   -0.062714
  C      0.726417   -1.241073   -0.014999
  C      1.422051   -0.001582    0.001568
  C      2.843823   -0.003018    0.000685
  C      3.549337   -1.220650   -0.041911
  C      2.851288   -2.410461   -0.079036
  H      0.959233   -3.373220   -0.091160
  C      0.729187    1.239610    0.018887
  C      3.550357    1.213704    0.042811
  H      3.404552   -3.339564   -0.117589
  C      2.856039    2.405371    0.081615
  C      1.469358    2.416330    0.066449
  H      3.411484    3.333281    0.120041
  H      0.965356    3.371338    0.095452
  C     -0.729189   -1.239624    0.018827
  C     -1.422050    0.001573    0.001656
  C     -1.469363   -2.416338    0.066593
  C     -0.726418    1.241068   -0.014739
  C     -2.843821    0.003010    0.000799
  C     -2.856047   -2.405379    0.081858
  H     -0.965362   -3.371342    0.095726
  C     -1.464642    2.418953   -0.062067
  C     -3.549325    1.220657   -0.041737
  C     -3.550370   -1.213716    0.042974
  H     -3.411489   -3.333285    0.120427
  C     -2.851281    2.410479   -0.078520
  H     -0.959225    3.373242   -0.090154
  H     -3.404553    3.339585   -0.116897
  C      5.017570   -1.245153   -0.049279
  O      5.655309   -2.283542   -0.091052
  C      5.016505    1.226528    0.047611
  O      5.673729    2.253320    0.092853
  N      5.661067   -0.007271   -0.004629
  C     -5.017555    1.245150   -0.049431
  O     -5.655288    2.283530   -0.091506
  C     -5.016517   -1.226527    0.047801
  O     -5.673757   -2.253299    0.093212
  N     -5.661064    0.007272   -0.004772
  C      7.114597    0.027980   -0.006966
  H      7.472941    0.611190   -0.852502
  H      7.481614    0.490998    0.906928
  H      7.479835   -0.989326   -0.076912
  C     -7.114593   -0.027976   -0.007361
  H     -7.481800   -0.490599    0.906658
  H     -7.479812    0.989303   -0.077798
  H     -7.472762   -0.611546   -0.852722

 Total Charge           Charge          ....    0
 Multiplicity           Mult            ....    1
 Number of Electrons    NEL             ....  216
 Basis Dimension        Dim             .... 1076

ORBITAL ENERGIES
----------------

  NO   OCC          E(Eh)            E(eV)
   0   2.0000     -19.994351      -544.0739
   1   2.0000     -19.994350      -544.0739
   2   2.0000     -19.994295      -544.0724
   3   2.0000     -19.994294      -544.0724
   4   2.0000     -15.141288      -412.0154
   5   2.0000     -15.141284      -412.0153
   6   2.0000     -10.963513      -298.3324
   7   2.0000     -10.963512      -298.3323
   8   2.0000     -10.961142      -298.2678
   9   2.0000     -10.961141      -298.2678
  10   2.0000     -10.871476      -295.8279
  11   2.0000     -10.871454      -295.8273
  12   2.0000     -10.870817      -295.8100
  13   2.0000     -10.870766      -295.8086
  14   2.0000     -10.866984      -295.7057
  15   2.0000     -10.866982      -295.7056
  16   2.0000     -10.863188      -295.6024
  17   2.0000     -10.863183      -295.6022
  18   2.0000     -10.854440      -295.3643
  19   2.0000     -10.854439      -295.3643
  20   2.0000     -10.854311      -295.3608
  21   2.0000     -10.854308      -295.3607
  22   2.0000     -10.853266      -295.3324
  23   2.0000     -10.853264      -295.3323
  24   2.0000     -10.853234      -295.3315
  25   2.0000     -10.853232      -295.3315
  26   2.0000     -10.846104      -295.1375
  27   2.0000     -10.846103      -295.1375
  28   2.0000     -10.846010      -295.1349
  29   2.0000     -10.846009      -295.1349
  30   2.0000     -10.845741      -295.1276
  31   2.0000     -10.845737      -295.1275
  32   2.0000      -1.285893       -34.9909
  33   2.0000      -1.285892       -34.9909
  34   2.0000      -1.265135       -34.4261
  35   2.0000      -1.265133       -34.4260
  36   2.0000      -1.143083       -31.1049
  37   2.0000      -1.142729       -31.0952
  38   2.0000      -1.114833       -30.3361
  39   2.0000      -1.085949       -29.5502
  40   2.0000      -1.047873       -28.5141
  41   2.0000      -1.025727       -27.9114
  42   2.0000      -1.023356       -27.8469
  43   2.0000      -0.964495       -26.2452
  44   2.0000      -0.957220       -26.0473
  45   2.0000      -0.944318       -25.6962
  46   2.0000      -0.929412       -25.2906
  47   2.0000      -0.902363       -24.5546
  48   2.0000      -0.887355       -24.1462
  49   2.0000      -0.867585       -23.6082
  50   2.0000      -0.850809       -23.1517
  51   2.0000      -0.812000       -22.0956
  52   2.0000      -0.807248       -21.9663
  53   2.0000      -0.797324       -21.6963
  54   2.0000      -0.787059       -21.4170
  55   2.0000      -0.765640       -20.8341
  56   2.0000      -0.761050       -20.7092
  57   2.0000      -0.739323       -20.1180
  58   2.0000      -0.705938       -19.2096
  59   2.0000      -0.680575       -18.5194
  60   2.0000      -0.676833       -18.4176
  61   2.0000      -0.665526       -18.1099
  62   2.0000      -0.651744       -17.7349
  63   2.0000      -0.634723       -17.2717
  64   2.0000      -0.625593       -17.0232
  65   2.0000      -0.607678       -16.5357
  66   2.0000      -0.604001       -16.4357
  67   2.0000      -0.602040       -16.3823
  68   2.0000      -0.596617       -16.2348
  69   2.0000      -0.596186       -16.2230
  70   2.0000      -0.585396       -15.9294
  71   2.0000      -0.572300       -15.5731
  72   2.0000      -0.570075       -15.5125
  73   2.0000      -0.569118       -15.4865
  74   2.0000      -0.557021       -15.1573
  75   2.0000      -0.551616       -15.0102
  76   2.0000      -0.550504       -14.9800
  77   2.0000      -0.540206       -14.6997
  78   2.0000      -0.536723       -14.6050
  79   2.0000      -0.525818       -14.3082
  80   2.0000      -0.513919       -13.9844
  81   2.0000      -0.513064       -13.9612
  82   2.0000      -0.511592       -13.9211
  83   2.0000      -0.507060       -13.7978
  84   2.0000      -0.503636       -13.7046
  85   2.0000      -0.502752       -13.6806
  86   2.0000      -0.493067       -13.4170
  87   2.0000      -0.492221       -13.3940
  88   2.0000      -0.489917       -13.3313
  89   2.0000      -0.488344       -13.2885
  90   2.0000      -0.471753       -12.8370
  91   2.0000      -0.462170       -12.5763
  92   2.0000      -0.455938       -12.4067
  93   2.0000      -0.448890       -12.2149
  94   2.0000      -0.429911       -11.6985
  95   2.0000      -0.412220       -11.2171
  96   2.0000      -0.406840       -11.0707
  97   2.0000      -0.399206       -10.8630
  98   2.0000      -0.396918       -10.8007
  99   2.0000      -0.381239       -10.3740
 100   2.0000      -0.381204       -10.3731
 101   2.0000      -0.362678        -9.8690
 102   2.0000      -0.360171        -9.8007
 103   2.0000      -0.331383        -9.0174
 104   2.0000      -0.329383        -8.9630
 105   2.0000      -0.323375        -8.7995
 106   2.0000      -0.317316        -8.6346
 107   2.0000      -0.250329        -6.8118
 108   0.0000      -0.065088        -1.7711
 109   0.0000       0.012257         0.3335
 110   0.0000       0.016232         0.4417
 111   0.0000       0.030809         0.8383
 112   0.0000       0.059989         1.6324

MULLIKEN ATOMIC CHARGES
-----------------------
   0 C :   -0.209334
   1 C :    0.108900
   2 C :   -0.026250
   3 C :    0.089795
   4 C :    0.056664
   5 C :   -0.169826
   6 H :    0.158143
   7 C :    0.114610
   8 C :    0.055272
   9 H :    0.174512
  10 C :   -0.172059
  11 C :   -0.207783
  12 H :    0.173789
  13 H :    0.158543
  14 C :    0.113314
  15 C :   -0.030846
  16 C :   -0.202336
  17 C :    0.107233
  18 C :    0.092702
  19 C :   -0.179009
  20 H :    0.158653
  21 C :   -0.204293
  22 C :    0.055988
  23 C :    0.060770
  24 H :    0.172583
  25 C :   -0.175807
  26 H :    0.158605
  27 H :    0.174200
  28 C :    0.297608
  29 O :   -0.490705
  30 C :    0.310733
  31 O :   -0.486486
  32 N :   -0.114397
  33 C :    0.300922
  34 O :   -0.490704
  35 C :    0.307483
  36 O :   -0.486746
  37 N :   -0.115121
  38 C :   -0.270777
  39 H :    0.142188
  40 H :    0.141822
  41 H :    0.166993
  42 C :   -0.270414
  43 H :    0.141756
  44 H :    0.166966
  45 H :    0.142145
Sum of atomic charges:   -0.0000000

LOEWDIN ATOMIC CHARGES
----------------------
   0 C :   -0.071601
   1 C :   -0.030502
   2 C :    0.000093
   3 C :   -0.011338
   4 C :   -0.079211
   5 C :   -0.046693
   6 H :    0.160719
   7 C :   -0.030584
   8 C :   -0.079936
   9 H :    0.165664
  10 C :   -0.046630
  11 C :   -0.071420
  12 H :    0.165616
  13 H :    0.160722
  14 C :   -0.030580
  15 C :    0.000083
  16 C :   -0.071412
  17 C :   -0.030503
  18 C :   -0.011328
  19 C :   -0.046636
  20 H :    0.160724
  21 C :   -0.071602
  22 C :   -0.079217
  23 C :   -0.079922
  24 H :    0.165612
  25 C :   -0.046698
  26 H :    0.160718
  27 H :    0.165667
  28 C :   -0.299651
  29 O :    0.027575
  30 C :   -0.300080
  31 O :    0.033389
  32 N :    0.225654
  33 C :   -0.299654
  34 O :    0.027578
  35 C :   -0.300104
  36 O :    0.033406
  37 N :    0.225649
  38 C :   -0.241550
  39 H :    0.121407
  40 H :    0.121084
  41 H :    0.127277
  42 C :   -0.241551
  43 H :    0.121080
  44 H :    0.127277
  45 H :    0.121409

  Mayer bond orders larger than 0.100000
B(  0-C ,  1-C ) :   1.4490 B(  0-C ,  5-C ) :   1.2723 B(  0-C ,  6-H ) :   0.9858
B(  1-C ,  2-C ) :   1.2673 B(  1-C , 14-C ) :   1.0727 B(  2-C ,  3-C ) :   1.3315
B(  2-C ,  7-C ) :   1.2613 B(  3-C ,  4-C ) :   1.2965 B(  3-C ,  8-C ) :   1.2838
B(  4-C ,  5-C ) :   1.4272 B(  4-C , 28-C ) :   0.9795 B(  4-C , 29-O ) :  -0.1589
B(  5-C ,  9-H ) :   0.9867 B(  7-C , 11-C ) :   1.4471 B(  7-C , 17-C ) :   1.0720
B(  8-C , 10-C ) :   1.4211 B(  8-C , 30-C ) :   0.9883 B(  8-C , 31-O ) :  -0.1557
B( 10-C , 11-C ) :   1.2738 B( 10-C , 12-H ) :   0.9890 B( 11-C , 13-H ) :   0.9857
B( 14-C , 15-C ) :   1.2662 B( 14-C , 16-C ) :   1.4481 B( 15-C , 17-C ) :   1.2693
B( 15-C , 18-C ) :   1.3322 B( 16-C , 19-C ) :   1.2680 B( 16-C , 20-H ) :   0.9854
B( 17-C , 21-C ) :   1.4484 B( 18-C , 22-C ) :   1.2946 B( 18-C , 23-C ) :   1.2748
B( 19-C , 23-C ) :   1.4251 B( 19-C , 24-H ) :   0.9907 B( 21-C , 25-C ) :   1.2686
B( 21-C , 26-H ) :   0.9857 B( 22-C , 25-C ) :   1.4232 B( 22-C , 33-C ) :   0.9812
B( 22-C , 34-O ) :  -0.1589 B( 23-C , 35-C ) :   0.9889 B( 23-C , 36-O ) :  -0.1577
B( 25-C , 27-H ) :   0.9896 B( 28-C , 29-O ) :   1.9983 B( 28-C , 32-N ) :   1.1875
B( 30-C , 31-O ) :   2.0004 B( 30-C , 32-N ) :   1.1696 B( 32-N , 38-C ) :   0.8636
B( 33-C , 34-O ) :   1.9979 B( 33-C , 37-N ) :   1.1875 B( 35-C , 36-O ) :   2.0020
B( 35-C , 37-N ) :   1.1695 B( 37-N , 42-C ) :   0.8646 B( 38-C , 39-H ) :   0.9751
B( 38-C , 40-H ) :   0.9758 B( 38-C , 41-H ) :   0.9662 B( 42-C , 43-H ) :   0.9758
B( 42-C , 44-H ) :   0.9662 B( 42-C , 45-H ) :   0.9750

MP2 TOTAL ENERGY:    -1408.541295156 Eh

-----------------------------------------------------------------------------
         ABSORPTION SPECTRUM VIA TRANSITION ELECTRIC DIPOLE MOMENTS
-----------------------------------------------------------------------------
State   Energy    Wavelength  fosc         T2        TX        TY        TZ
        (cm-1)      (nm)                 (au**2)    (au)      (au)      (au)
-----------------------------------------------------------------------------
   1   17008.9    587.9   0.862827442  16.70026  -4.08659   0.00441   0.00011
   2   21521.2    464.7   0.000070788   0.00108   0.00000  -0.00006  -0.03291
   3   26685.6    374.7   0.000136290   0.00168   0.00000   0.00009  -0.04100
   4   22592.5    442.6   0.155425669   2.26482   0.00071  -1.50493  -0.00008
   5   28138.1    355.4   0.000000396   0.00000   0.00000   0.00008  -0.00215
   6   17820.3    561.2   0.000001024   0.00002   0.00002  -0.00004  -0.00435
   7   27689.5    361.1   0.000417616   0.00497   0.00006   0.00004  -0.07046
   8   16338.9    612.0   0.000000267   0.00001   0.00001   0.00000   0.00232
   9   18191.8    549.7   0.000014197   0.00026  -0.00382   0.00179   0.01546
  10   18140.0    551.3   0.000170139   0.00309   0.00107  -0.00054   0.05555
  11   23300.0    429.2   0.000274805   0.00388  -0.01153  -0.06124  -0.00003
  12   23651.5    422.8   0.000000247   0.00000  -0.00004  -0.00056  -0.00177
  13   25496.1    392.2   0.031574996   0.40770   0.00214   0.63851   0.00010
  14   17966.5    556.6   0.000294363   0.00539   0.00002   0.00128  -0.07343
  15   25765.3    388.1   0.728328145   9.30609  -0.02222   3.05051   0.00004
  16   33217.7    301.0   0.004481924   0.04442  -0.17274  -0.12075  -0.00009
  17   38210.5    261.7   0.076587331   0.65986   0.00615  -0.81229  -0.00018
  18   41361.9    241.8   0.084520660   0.67273  -0.82008  -0.01407  -0.00009
  19   37327.6    267.9   0.065801511   0.58034  -0.76067  -0.04140  -0.00023
  20   34010.8    294.0   0.000000009   0.00000   0.00000   0.00001  -0.00029
  21   29770.2    335.9   0.104065414   1.15080  -0.04223  -1.07192  -0.00007
  22   31495.5    317.5   0.012974836   0.13562   0.00464   0.36824   0.00001
  23   45256.2    221.0   0.000000045   0.00000   0.00032  -0.00003  -0.00048
  24   28278.1    353.6   0.162652941   1.89360   0.13331  -1.36961   0.00002
  25   35851.8    278.9   1.908980835  17.52939  -4.18656  -0.04589   0.00010
  26   31167.0    320.9   0.000220047   0.00232   0.00024  -0.00014   0.04821
  27   26728.3    374.1   0.014365817   0.17694   0.00043   0.42065  -0.00004
  28   30372.5    329.2   0.007773748   0.08426  -0.29019   0.00694  -0.00000
  29   30028.4    333.0   0.017381663   0.19056  -0.43648  -0.00706  -0.00002
  30   31916.5    313.3   0.022606547   0.23318  -0.48022   0.05074  -0.00007

Dispersion correction           -0.050394535
FINAL SINGLE POINT ENERGY     -1405.898389353537

DIPOLE MOMENT
-------------
                                X             Y             Z
Electronic contribution:      0.00011      -0.00012       0.01825
Nuclear contribution   :      0.00001       0.00005      -0.02957
                        -----------------------------------------
Total Dipole Moment    :      0.00012      -0.00007      -0.01132
                        -----------------------------------------
Magnitude (a.u.)       :      0.01132
Magnitude (Debye)      :      0.02878

Rotational constants in cm-1:     0.013982     0.002362     0.002023
Rotational constants in MHz :   419.179379    70.800426    60.635339

                             ****ORCA TERMINATED NORMALLY****
TOTAL RUN TIME: 0 days 1 hours 42 minutes 55 seconds 484 msec
