                         Program Version 5.0.2 -  RELEASE  -
|  1> %maxcore 60000
|  2> %pal
|  3>  nprocs= 4
|  4> end
|  5> !STEOM-DLPNO-CCSD DEF2-TZVP DEF2-TZVP/C def2/J TightSCF TightPNO CPCM
|  6> %MDCI
|  7>    Dorootwise true
|  8>    OTHRESH 0.005
|  9>    VTHRESH 0.005
| 10>    TCutPNOSingles 1e-11
| 11>    DTol 1e-5
| 12>    NROOTS  25
| 13>    DOSOLV  TRUE
| 14>    MAXITER 500
| 15> END
| 16> %CPCM
| 17>    SMD          TRUE
| 18>    SMDsolvent   "DICHLOROMETHANE"
| 19> END
| 20>
| 21>
| 22> * xyz 0 1
| 23> C                   1.46464600   -2.41893700   -0.06271400
| 24> C                   0.72641700   -1.24107300   -0.01499900
| 25> C                   1.42205100   -0.00158200    0.00156800
| 26> C                   2.84382300   -0.00301800    0.00068500
| 27> C                   3.54933700   -1.22065000   -0.04191100
| 28> C                   2.85128800   -2.41046100   -0.07903600
| 29> H                   0.95923300   -3.37322000   -0.09116000
| 30> C                   0.72918700    1.23961000    0.01888700
| 31> C                   3.55035700    1.21370400    0.04281100
| 32> H                   3.40455200   -3.33956400   -0.11758900
| 33> C                   2.85603900    2.40537100    0.08161500
| 34> C                   1.46935800    2.41633000    0.06644900
| 35> H                   3.41148400    3.33328100    0.12004100
| 36> H                   0.96535600    3.37133800    0.09545200
| 37> C                  -0.72918900   -1.23962400    0.01882700
| 38> C                  -1.42205000    0.00157300    0.00165600
| 39> C                  -1.46936300   -2.41633800    0.06659300
| 40> C                  -0.72641800    1.24106800   -0.01473900
| 41> C                  -2.84382100    0.00301000    0.00079900
| 42> C                  -2.85604700   -2.40537900    0.08185800
| 43> H                  -0.96536200   -3.37134200    0.09572600
| 44> C                  -1.46464200    2.41895300   -0.06206700
| 45> C                  -3.54932500    1.22065700   -0.04173700
| 46> C                  -3.55037000   -1.21371600    0.04297400
| 47> H                  -3.41148900   -3.33328500    0.12042700
| 48> C                  -2.85128100    2.41047900   -0.07852000
| 49> H                  -0.95922500    3.37324200   -0.09015400
| 50> H                  -3.40455300    3.33958500   -0.11689700
| 51> C                   5.01757000   -1.24515300   -0.04927900
| 52> O                   5.65530900   -2.28354200   -0.09105200
| 53> C                   5.01650500    1.22652800    0.04761100
| 54> O                   5.67372900    2.25332000    0.09285300
| 55> N                   5.66106700   -0.00727100   -0.00462900
| 56> C                  -5.01755500    1.24515000   -0.04943100
| 57> O                  -5.65528800    2.28353000   -0.09150600
| 58> C                  -5.01651700   -1.22652700    0.04780100
| 59> O                  -5.67375700   -2.25329900    0.09321200
| 60> N                  -5.66106400    0.00727200   -0.00477200
| 61> C                   7.11459700    0.02798000   -0.00696600
| 62> H                   7.47294100    0.61119000   -0.85250200
| 63> H                   7.48161400    0.49099800    0.90692800
| 64> H                   7.47983500   -0.98932600   -0.07691200
| 65> C                  -7.11459300   -0.02797600   -0.00736100
| 66> H                  -7.48180000   -0.49059900    0.90665800
| 67> H                  -7.47981200    0.98930300   -0.07779800
| 68> H                  -7.47276200   -0.61154600   -0.85272200
| 69> *
| 70>
| 71>
| 72>                          ****END OF INPUT****

CARTESIAN COORDINATES (ANGSTROEM)
---------------------------------
  C      1.464646   -2.418937   -0.062714
  C      0.726417   -1.241073   -0.014999
  C      1.422051   -0.001582    0.001568
  C      2.843823   -0.003018    0.000685
  C      3.549337   -1.220650   -0.041911
  C      2.851288   -2.410461   -0.079036
  H      0.959233   -3.373220   -0.091160
  C      0.729187    1.239610    0.018887
  C      3.550357    1.213704    0.042811
  H      3.404552   -3.339564   -0.117589
  C      2.856039    2.405371    0.081615
  C      1.469358    2.416330    0.066449
  H      3.411484    3.333281    0.120041
  H      0.965356    3.371338    0.095452
  C     -0.729189   -1.239624    0.018827
  C     -1.422050    0.001573    0.001656
  C     -1.469363   -2.416338    0.066593
  C     -0.726418    1.241068   -0.014739
  C     -2.843821    0.003010    0.000799
  C     -2.856047   -2.405379    0.081858
  H     -0.965362   -3.371342    0.095726
  C     -1.464642    2.418953   -0.062067
  C     -3.549325    1.220657   -0.041737
  C     -3.550370   -1.213716    0.042974
  H     -3.411489   -3.333285    0.120427
  C     -2.851281    2.410479   -0.078520
  H     -0.959225    3.373242   -0.090154
  H     -3.404553    3.339585   -0.116897
  C      5.017570   -1.245153   -0.049279
  O      5.655309   -2.283542   -0.091052
  C      5.016505    1.226528    0.047611
  O      5.673729    2.253320    0.092853
  N      5.661067   -0.007271   -0.004629
  C     -5.017555    1.245150   -0.049431
  O     -5.655288    2.283530   -0.091506
  C     -5.016517   -1.226527    0.047801
  O     -5.673757   -2.253299    0.093212
  N     -5.661064    0.007272   -0.004772
  C      7.114597    0.027980   -0.006966
  H      7.472941    0.611190   -0.852502
  H      7.481614    0.490998    0.906928
  H      7.479835   -0.989326   -0.076912
  C     -7.114593   -0.027976   -0.007361
  H     -7.481800   -0.490599    0.906658
  H     -7.479812    0.989303   -0.077798
  H     -7.472762   -0.611546   -0.852722

 Total Charge           Charge          ....    0
 Multiplicity           Mult            ....    1
 Number of Electrons    NEL             ....  216
 Basis Dimension        Dim             .... 1076

ORBITAL ENERGIES
----------------

  NO   OCC          E(Eh)            E(eV)
   0   2.0000     -20.538883      -558.8914
   1   2.0000     -20.538882      -558.8914
   2   2.0000     -20.538605      -558.8839
   3   2.0000     -20.538604      -558.8838
   4   2.0000     -15.615120      -424.9090
   5   2.0000     -15.615119      -424.9090
   6   2.0000     -11.374381      -309.5127
   7   2.0000     -11.374381      -309.5126
   8   2.0000     -11.371938      -309.4462
   9   2.0000     -11.371937      -309.4461
  10   2.0000     -11.277505      -306.8765
  11   2.0000     -11.277478      -306.8758
  12   2.0000     -11.276662      -306.8536
  13   2.0000     -11.276610      -306.8522
  14   2.0000     -11.272471      -306.7395
  15   2.0000     -11.272469      -306.7395
  16   2.0000     -11.266057      -306.5650
  17   2.0000     -11.266052      -306.5649
  18   2.0000     -11.260168      -306.4047
  19   2.0000     -11.260166      -306.4047
  20   2.0000     -11.260037      -306.4012
  21   2.0000     -11.260036      -306.4012
  22   2.0000     -11.255576      -306.2798
  23   2.0000     -11.255575      -306.2798
  24   2.0000     -11.255341      -306.2734
  25   2.0000     -11.255339      -306.2733
  26   2.0000     -11.248816      -306.0958
  27   2.0000     -11.248815      -306.0958
  28   2.0000     -11.248712      -306.0930
  29   2.0000     -11.248712      -306.0930
  30   2.0000     -11.248342      -306.0829
  31   2.0000     -11.248341      -306.0829
  32   2.0000      -1.416369       -38.5414
  33   2.0000      -1.416368       -38.5413
  34   2.0000      -1.394986       -37.9595
  35   2.0000      -1.394986       -37.9595
  36   2.0000      -1.260980       -34.3130
  37   2.0000      -1.260550       -34.3013
  38   2.0000      -1.231104       -33.5000
  39   2.0000      -1.199526       -32.6408
  40   2.0000      -1.158725       -31.5305
  41   2.0000      -1.134094       -30.8603
  42   2.0000      -1.132098       -30.8059
  43   2.0000      -1.066995       -29.0344
  44   2.0000      -1.060562       -28.8594
  45   2.0000      -1.046116       -28.4663
  46   2.0000      -1.030560       -28.0430
  47   2.0000      -1.000725       -27.2311
  48   2.0000      -0.979995       -26.6670
  49   2.0000      -0.959863       -26.1192
  50   2.0000      -0.942942       -25.6588
  51   2.0000      -0.898783       -24.4571
  52   2.0000      -0.893680       -24.3183
  53   2.0000      -0.883167       -24.0322
  54   2.0000      -0.870232       -23.6802
  55   2.0000      -0.847295       -23.0561
  56   2.0000      -0.844561       -22.9817
  57   2.0000      -0.820634       -22.3306
  58   2.0000      -0.779221       -21.2037
  59   2.0000      -0.753849       -20.5133
  60   2.0000      -0.752149       -20.4670
  61   2.0000      -0.740201       -20.1419
  62   2.0000      -0.722522       -19.6608
  63   2.0000      -0.704153       -19.1610
  64   2.0000      -0.696958       -18.9652
  65   2.0000      -0.679039       -18.4776
  66   2.0000      -0.676823       -18.4173
  67   2.0000      -0.669623       -18.2214
  68   2.0000      -0.659791       -17.9538
  69   2.0000      -0.659395       -17.9430
  70   2.0000      -0.654764       -17.8170
  71   2.0000      -0.639266       -17.3953
  72   2.0000      -0.636971       -17.3329
  73   2.0000      -0.633768       -17.2457
  74   2.0000      -0.621629       -16.9154
  75   2.0000      -0.615362       -16.7449
  76   2.0000      -0.615315       -16.7436
  77   2.0000      -0.601271       -16.3614
  78   2.0000      -0.591961       -16.1081
  79   2.0000      -0.587228       -15.9793
  80   2.0000      -0.573990       -15.6191
  81   2.0000      -0.573856       -15.6154
  82   2.0000      -0.568511       -15.4700
  83   2.0000      -0.566402       -15.4126
  84   2.0000      -0.557807       -15.1787
  85   2.0000      -0.556452       -15.1418
  86   2.0000      -0.553868       -15.0715
  87   2.0000      -0.547076       -14.8867
  88   2.0000      -0.545963       -14.8564
  89   2.0000      -0.545340       -14.8395
  90   2.0000      -0.523102       -14.2343
  91   2.0000      -0.518403       -14.1065
  92   2.0000      -0.515401       -14.0248
  93   2.0000      -0.493183       -13.4202
  94   2.0000      -0.483727       -13.1629
  95   2.0000      -0.460416       -12.5285
  96   2.0000      -0.456601       -12.4247
  97   2.0000      -0.453705       -12.3459
  98   2.0000      -0.446986       -12.1631
  99   2.0000      -0.444432       -12.0936
 100   2.0000      -0.444339       -12.0911
 101   2.0000      -0.410472       -11.1695
 102   2.0000      -0.407965       -11.1013
 103   2.0000      -0.363292        -9.8857
 104   2.0000      -0.357664        -9.7325
 105   2.0000      -0.348193        -9.4748
 106   2.0000      -0.341906        -9.3037
 107   2.0000      -0.270105        -7.3499
 108   0.0000      -0.019533        -0.5315
 109   0.0000       0.068645         1.8679
 110   0.0000       0.070008         1.9050
 111   0.0000       0.082703         2.2505
 112   0.0000       0.115808         3.1513

E(0)                                       ...  -1401.763256910
E(0)                                       ...  -1401.763256910
E(CORR)(strong-pairs)                      ...     -5.274346291
E(CORR)(weak-pairs)                        ...     -0.012907947
E(CORR)(corrected)                         ...     -5.287254238
E(TOT)                                     ...  -1407.050511148

MULLIKEN ATOMIC CHARGES
-----------------------
   0 C :   -0.187709
   1 C :    0.090207
   2 C :   -0.053897
   3 C :    0.037223
   4 C :    0.109207
   5 C :   -0.192679
   6 H :    0.160803
   7 C :    0.097419
   8 C :    0.105209
   9 H :    0.172931
  10 C :   -0.193997
  11 C :   -0.189346
  12 H :    0.172347
  13 H :    0.160654
  14 C :    0.097352
  15 C :   -0.053978
  16 C :   -0.189318
  17 C :    0.090340
  18 C :    0.037247
  19 C :   -0.193957
  20 H :    0.160667
  21 C :   -0.187751
  22 C :    0.109271
  23 C :    0.105165
  24 H :    0.172348
  25 C :   -0.192736
  26 H :    0.160789
  27 H :    0.172927
  28 C :    0.174612
  29 O :   -0.384059
  30 C :    0.192167
  31 O :   -0.381314
  32 N :   -0.045757
  33 C :    0.174608
  34 O :   -0.384059
  35 C :    0.192178
  36 O :   -0.381308
  37 N :   -0.045766
  38 C :   -0.350669
  39 H :    0.163235
  40 H :    0.163302
  41 H :    0.180115
  42 C :   -0.350667
  43 H :    0.163300
  44 H :    0.180114
  45 H :    0.163233
Sum of atomic charges:   -0.0000000

LOEWDIN ATOMIC CHARGES
----------------------
   0 C :   -0.074167
   1 C :   -0.039122
   2 C :    0.000420
   3 C :   -0.018377
   4 C :   -0.080287
   5 C :   -0.062791
   6 H :    0.165643
   7 C :   -0.039115
   8 C :   -0.081118
   9 H :    0.168722
  10 C :   -0.062588
  11 C :   -0.073993
  12 H :    0.168672
  13 H :    0.165645
  14 C :   -0.039112
  15 C :    0.000416
  16 C :   -0.073992
  17 C :   -0.039123
  18 C :   -0.018373
  19 C :   -0.062590
  20 H :    0.165646
  21 C :   -0.074166
  22 C :   -0.080288
  23 C :   -0.081114
  24 H :    0.168672
  25 C :   -0.062793
  26 H :    0.165641
  27 H :    0.168722
  28 C :   -0.339694
  29 O :    0.089030
  30 C :   -0.339735
  31 O :    0.094353
  32 N :    0.235851
  33 C :   -0.339695
  34 O :    0.089030
  35 C :   -0.339734
  36 O :    0.094358
  37 N :    0.235850
  38 C :   -0.265763
  39 H :    0.128249
  40 H :    0.128033
  41 H :    0.132129
  42 C :   -0.265764
  43 H :    0.128031
  44 H :    0.132129
  45 H :    0.128250

  Mayer bond orders larger than 0.100000
B(  0-C ,  1-C ) :   1.2998 B(  0-C ,  5-C ) :   1.1704 B(  0-C ,  6-H ) :   0.9414
B(  1-C ,  2-C ) :   1.2086 B(  1-C , 14-C ) :   1.0363 B(  2-C ,  3-C ) :   1.2980
B(  2-C ,  7-C ) :   1.2115 B(  3-C ,  4-C ) :   1.2303 B(  3-C ,  8-C ) :   1.2146
B(  4-C ,  5-C ) :   1.2959 B(  4-C , 28-C ) :   0.8839 B(  4-C , 29-O ) :  -0.1804
B(  5-C ,  9-H ) :   0.9366 B(  5-C , 29-O ) :   0.1036 B(  7-C , 11-C ) :   1.2992
B(  7-C , 17-C ) :   1.0363 B(  8-C , 10-C ) :   1.2962 B(  8-C , 30-C ) :   0.8967
B(  8-C , 31-O ) :  -0.1717 B( 10-C , 11-C ) :   1.1697 B( 10-C , 12-H ) :   0.9372
B( 10-C , 31-O ) :   0.1023 B( 11-C , 13-H ) :   0.9419 B( 14-C , 15-C ) :   1.2115
B( 14-C , 16-C ) :   1.2992 B( 15-C , 17-C ) :   1.2086 B( 15-C , 18-C ) :   1.2980
B( 16-C , 19-C ) :   1.1697 B( 16-C , 20-H ) :   0.9418 B( 17-C , 21-C ) :   1.2998
B( 18-C , 22-C ) :   1.2304 B( 18-C , 23-C ) :   1.2146 B( 19-C , 23-C ) :   1.2962
B( 19-C , 24-H ) :   0.9372 B( 19-C , 36-O ) :   0.1023 B( 21-C , 25-C ) :   1.1704
B( 21-C , 26-H ) :   0.9414 B( 22-C , 25-C ) :   1.2959 B( 22-C , 33-C ) :   0.8839
B( 22-C , 34-O ) :  -0.1804 B( 23-C , 35-C ) :   0.8967 B( 23-C , 36-O ) :  -0.1717
B( 25-C , 27-H ) :   0.9367 B( 25-C , 34-O ) :   0.1036 B( 28-C , 29-O ) :   1.9625
B( 28-C , 32-N ) :   1.1245 B( 30-C , 31-O ) :   1.9549 B( 30-C , 32-N ) :   1.1056
B( 32-N , 38-C ) :   0.8206 B( 33-C , 34-O ) :   1.9625 B( 33-C , 37-N ) :   1.1246
B( 35-C , 36-O ) :   1.9549 B( 35-C , 37-N ) :   1.1056 B( 37-N , 42-C ) :   0.8206
B( 38-C , 39-H ) :   0.9198 B( 38-C , 40-H ) :   0.9205 B( 38-C , 41-H ) :   0.9099
B( 42-C , 43-H ) :   0.9205 B( 42-C , 44-H ) :   0.9099 B( 42-C , 45-H ) :   0.9198

-----------------------------------------------------------------------------
         ABSORPTION SPECTRUM VIA TRANSITION ELECTRIC DIPOLE MOMENTS
-----------------------------------------------------------------------------
State   Energy  Wavelength   fosc         T2         TX        TY        TZ
        (cm-1)    (nm)                  (au**2)     (au)      (au)      (au)
-----------------------------------------------------------------------------
   1   20638.4    484.5   0.801907898  12.79155   3.57652   0.00661   0.00008
   2   25901.5    386.1   0.000027545   0.00035   0.00048   0.00044   0.01870
   3   27796.5    359.8   0.037580664   0.44509   0.01804   0.66678   0.00007
   4   29462.4    339.4   0.000003427   0.00004   0.00503   0.00029   0.00280
   5   31419.1    318.3   0.000004780   0.00005   0.00088   0.00117   0.00606
   6   31483.7    317.6   0.000004504   0.00005   0.00070   0.00167   0.00623
   7   31603.3    316.4   0.000000718   0.00001   0.00043   0.00042   0.00067
   8   34701.7    288.2   0.000093084   0.00088   0.00221   0.00078   0.02674
   9   34816.9    287.2   0.000194987   0.00184   0.00054   0.00379   0.04263
  10   35046.9    285.3   0.048483376   0.45543   0.00272   0.67485   0.00016
  11   36097.5    277.0   0.000199315   0.00182   0.03852   0.00724   0.00005
  12   36523.2    273.8   0.000064583   0.00058   0.02282   0.00033   0.00379
  13   39174.6    255.3   0.001042541   0.00876   0.00307   0.00192   0.09183
  14   40461.6    247.1   0.000673723   0.00548   0.05691   0.03478   0.00005
  15   42746.8    233.9   0.000000221   0.00000   0.00020   0.00088   0.00091
  16   42893.6    233.1   0.405150909   3.10956   0.04528   1.76164   0.00007
  17   43579.6    229.5   0.157353837   1.18869   0.02018   1.08828   0.00011
  18   44042.3    227.1   0.013661869   0.10212   0.00387   0.31953   0.00013
  19   45013.0    222.2   0.219325447   1.60408   1.26643   0.01281   0.00005
  20   46396.3    215.5   0.802001052   5.69072   2.38535   0.01537   0.00010
  21   46909.3    213.2   0.000091621   0.00064   0.00019   0.00043   0.02535
  22   47262.6    211.6   0.333378753   2.32218   0.04543   1.52282   0.00021
  23   49500.5    202.0   0.942707562   6.26965   2.50385   0.01755   0.00039
  24   51070.0    195.8   0.000008850   0.00006   0.00673   0.00025   0.00188
  25   57667.9    173.4   0.000001642   0.00001   0.00039   0.00167   0.00161

FINAL SINGLE POINT ENERGY     -1406.956475511671

DIPOLE MOMENT
-------------
                                X             Y             Z
Electronic contribution:     -0.00005      -0.00011       0.01902
Nuclear contribution   :      0.00001       0.00005      -0.02957
                        -----------------------------------------
Total Dipole Moment    :     -0.00004      -0.00005      -0.01055
                        -----------------------------------------
Magnitude (a.u.)       :      0.01055
Magnitude (Debye)      :      0.02682

Rotational constants in cm-1:     0.013982     0.002362     0.002023
Rotational constants in MHz :   419.179379    70.800426    60.635339

                             ****ORCA TERMINATED NORMALLY****
TOTAL RUN TIME: 0 days 20 hours 10 minutes 15 seconds 127 msec
