                         Program Version 5.0.2 -  RELEASE  -
|  1> %maxcore 3200
|  2> %pal
|  3>  nprocs= 8
|  4> end
|  5> ! RI-B2PLYP D3BJ def2-TZVP def2/J def2-TZVP/C RIJCOSX CPCM TightSCF
|  6> %TDDFT DCORR 4
|  7>    NROOTS   30
|  8>
|  9>    TDA      FALSE
| 10> END
| 11>
| 12> %CPCM
| 13>    SMD          TRUE
| 14>    SMDsolvent   "DICHLOROMETHANE"
| 15> END
| 16>
| 17>
| 18> * xyz 0 1
| 19> C                   1.46464600   -2.41893700   -0.06271400
| 20> C                   0.72641700   -1.24107300   -0.01499900
| 21> C                   1.42205100   -0.00158200    0.00156800
| 22> C                   2.84382300   -0.00301800    0.00068500
| 23> C                   3.54933700   -1.22065000   -0.04191100
| 24> C                   2.85128800   -2.41046100   -0.07903600
| 25> H                   0.95923300   -3.37322000   -0.09116000
| 26> C                   0.72918700    1.23961000    0.01888700
| 27> C                   3.55035700    1.21370400    0.04281100
| 28> H                   3.40455200   -3.33956400   -0.11758900
| 29> C                   2.85603900    2.40537100    0.08161500
| 30> C                   1.46935800    2.41633000    0.06644900
| 31> H                   3.41148400    3.33328100    0.12004100
| 32> H                   0.96535600    3.37133800    0.09545200
| 33> C                  -0.72918900   -1.23962400    0.01882700
| 34> C                  -1.42205000    0.00157300    0.00165600
| 35> C                  -1.46936300   -2.41633800    0.06659300
| 36> C                  -0.72641800    1.24106800   -0.01473900
| 37> C                  -2.84382100    0.00301000    0.00079900
| 38> C                  -2.85604700   -2.40537900    0.08185800
| 39> H                  -0.96536200   -3.37134200    0.09572600
| 40> C                  -1.46464200    2.41895300   -0.06206700
| 41> C                  -3.54932500    1.22065700   -0.04173700
| 42> C                  -3.55037000   -1.21371600    0.04297400
| 43> H                  -3.41148900   -3.33328500    0.12042700
| 44> C                  -2.85128100    2.41047900   -0.07852000
| 45> H                  -0.95922500    3.37324200   -0.09015400
| 46> H                  -3.40455300    3.33958500   -0.11689700
| 47> C                   5.01757000   -1.24515300   -0.04927900
| 48> O                   5.65530900   -2.28354200   -0.09105200
| 49> C                   5.01650500    1.22652800    0.04761100
| 50> O                   5.67372900    2.25332000    0.09285300
| 51> N                   5.66106700   -0.00727100   -0.00462900
| 52> C                  -5.01755500    1.24515000   -0.04943100
| 53> O                  -5.65528800    2.28353000   -0.09150600
| 54> C                  -5.01651700   -1.22652700    0.04780100
| 55> O                  -5.67375700   -2.25329900    0.09321200
| 56> N                  -5.66106400    0.00727200   -0.00477200
| 57> C                   7.11459700    0.02798000   -0.00696600
| 58> H                   7.47294100    0.61119000   -0.85250200
| 59> H                   7.48161400    0.49099800    0.90692800
| 60> H                   7.47983500   -0.98932600   -0.07691200
| 61> C                  -7.11459300   -0.02797600   -0.00736100
| 62> H                  -7.48180000   -0.49059900    0.90665800
| 63> H                  -7.47981200    0.98930300   -0.07779800
| 64> H                  -7.47276200   -0.61154600   -0.85272200
| 65> *
| 66>
| 67>
| 68>                          ****END OF INPUT****

CARTESIAN COORDINATES (ANGSTROEM)
---------------------------------
  C      1.464646   -2.418937   -0.062714
  C      0.726417   -1.241073   -0.014999
  C      1.422051   -0.001582    0.001568
  C      2.843823   -0.003018    0.000685
  C      3.549337   -1.220650   -0.041911
  C      2.851288   -2.410461   -0.079036
  H      0.959233   -3.373220   -0.091160
  C      0.729187    1.239610    0.018887
  C      3.550357    1.213704    0.042811
  H      3.404552   -3.339564   -0.117589
  C      2.856039    2.405371    0.081615
  C      1.469358    2.416330    0.066449
  H      3.411484    3.333281    0.120041
  H      0.965356    3.371338    0.095452
  C     -0.729189   -1.239624    0.018827
  C     -1.422050    0.001573    0.001656
  C     -1.469363   -2.416338    0.066593
  C     -0.726418    1.241068   -0.014739
  C     -2.843821    0.003010    0.000799
  C     -2.856047   -2.405379    0.081858
  H     -0.965362   -3.371342    0.095726
  C     -1.464642    2.418953   -0.062067
  C     -3.549325    1.220657   -0.041737
  C     -3.550370   -1.213716    0.042974
  H     -3.411489   -3.333285    0.120427
  C     -2.851281    2.410479   -0.078520
  H     -0.959225    3.373242   -0.090154
  H     -3.404553    3.339585   -0.116897
  C      5.017570   -1.245153   -0.049279
  O      5.655309   -2.283542   -0.091052
  C      5.016505    1.226528    0.047611
  O      5.673729    2.253320    0.092853
  N      5.661067   -0.007271   -0.004629
  C     -5.017555    1.245150   -0.049431
  O     -5.655288    2.283530   -0.091506
  C     -5.016517   -1.226527    0.047801
  O     -5.673757   -2.253299    0.093212
  N     -5.661064    0.007272   -0.004772
  C      7.114597    0.027980   -0.006966
  H      7.472941    0.611190   -0.852502
  H      7.481614    0.490998    0.906928
  H      7.479835   -0.989326   -0.076912
  C     -7.114593   -0.027976   -0.007361
  H     -7.481800   -0.490599    0.906658
  H     -7.479812    0.989303   -0.077798
  H     -7.472762   -0.611546   -0.852722

 Total Charge           Charge          ....    0
 Multiplicity           Mult            ....    1
 Number of Electrons    NEL             ....  216
 Basis Dimension        Dim             .... 1076

ORBITAL ENERGIES
----------------

  NO   OCC          E(Eh)            E(eV)
   0   2.0000     -19.709854      -536.3324
   1   2.0000     -19.709853      -536.3324
   2   2.0000     -19.709764      -536.3299
   3   2.0000     -19.709763      -536.3299
   4   2.0000     -14.893253      -405.2660
   5   2.0000     -14.893249      -405.2659
   6   2.0000     -10.747506      -292.4545
   7   2.0000     -10.747504      -292.4545
   8   2.0000     -10.745177      -292.3911
   9   2.0000     -10.745176      -292.3911
  10   2.0000     -10.658617      -290.0357
  11   2.0000     -10.658602      -290.0353
  12   2.0000     -10.658061      -290.0206
  13   2.0000     -10.658013      -290.0193
  14   2.0000     -10.654330      -289.9191
  15   2.0000     -10.654326      -289.9190
  16   2.0000     -10.651570      -289.8439
  17   2.0000     -10.651562      -289.8437
  18   2.0000     -10.643197      -289.6161
  19   2.0000     -10.643196      -289.6161
  20   2.0000     -10.642937      -289.6091
  21   2.0000     -10.642933      -289.6089
  22   2.0000     -10.640751      -289.5495
  23   2.0000     -10.640749      -289.5495
  24   2.0000     -10.640672      -289.5474
  25   2.0000     -10.640671      -289.5474
  26   2.0000     -10.635086      -289.3954
  27   2.0000     -10.635083      -289.3953
  28   2.0000     -10.634790      -289.3874
  29   2.0000     -10.634788      -289.3873
  30   2.0000     -10.634703      -289.3850
  31   2.0000     -10.634701      -289.3849
  32   2.0000      -1.215446       -33.0740
  33   2.0000      -1.215444       -33.0739
  34   2.0000      -1.195030       -32.5184
  35   2.0000      -1.195029       -32.5184
  36   2.0000      -1.079258       -29.3681
  37   2.0000      -1.078947       -29.3596
  38   2.0000      -1.051758       -28.6198
  39   2.0000      -1.024254       -27.8714
  40   2.0000      -0.987631       -26.8748
  41   2.0000      -0.966736       -26.3062
  42   2.0000      -0.964199       -26.2372
  43   2.0000      -0.908583       -24.7238
  44   2.0000      -0.900858       -24.5136
  45   2.0000      -0.888783       -24.1850
  46   2.0000      -0.874209       -23.7884
  47   2.0000      -0.848565       -23.0906
  48   2.0000      -0.836493       -22.7621
  49   2.0000      -0.816988       -22.2314
  50   2.0000      -0.800186       -21.7742
  51   2.0000      -0.764188       -20.7946
  52   2.0000      -0.759571       -20.6690
  53   2.0000      -0.750007       -20.4087
  54   2.0000      -0.741044       -20.1648
  55   2.0000      -0.720400       -19.6031
  56   2.0000      -0.714916       -19.4539
  57   2.0000      -0.694394       -18.8954
  58   2.0000      -0.664880       -18.0923
  59   2.0000      -0.639560       -17.4033
  60   2.0000      -0.635059       -17.2808
  61   2.0000      -0.624365       -16.9898
  62   2.0000      -0.611989       -16.6531
  63   2.0000      -0.595984       -16.2175
  64   2.0000      -0.585918       -15.9437
  65   2.0000      -0.568894       -15.4804
  66   2.0000      -0.564522       -15.3614
  67   2.0000      -0.562426       -15.3044
  68   2.0000      -0.560948       -15.2642
  69   2.0000      -0.560500       -15.2520
  70   2.0000      -0.546400       -14.8683
  71   2.0000      -0.537814       -14.6347
  72   2.0000      -0.532762       -14.4972
  73   2.0000      -0.529754       -14.4154
  74   2.0000      -0.520576       -14.1656
  75   2.0000      -0.515626       -14.0309
  76   2.0000      -0.513609       -13.9760
  77   2.0000      -0.507168       -13.8007
  78   2.0000      -0.503704       -13.7065
  79   2.0000      -0.491478       -13.3738
  80   2.0000      -0.482923       -13.1410
  81   2.0000      -0.478766       -13.0279
  82   2.0000      -0.476798       -12.9743
  83   2.0000      -0.473709       -12.8903
  84   2.0000      -0.472744       -12.8640
  85   2.0000      -0.472093       -12.8463
  86   2.0000      -0.461735       -12.5644
  87   2.0000      -0.459278       -12.4976
  88   2.0000      -0.457625       -12.4526
  89   2.0000      -0.456308       -12.4168
  90   2.0000      -0.442368       -12.0374
  91   2.0000      -0.430460       -11.7134
  92   2.0000      -0.422892       -11.5075
  93   2.0000      -0.422880       -11.5071
  94   2.0000      -0.399511       -10.8713
  95   2.0000      -0.387729       -10.5506
  96   2.0000      -0.383050       -10.4233
  97   2.0000      -0.364433        -9.9167
  98   2.0000      -0.362831        -9.8731
  99   2.0000      -0.345814        -9.4101
 100   2.0000      -0.345730        -9.4078
 101   2.0000      -0.336282        -9.1507
 102   2.0000      -0.333569        -9.0769
 103   2.0000      -0.312242        -8.4965
 104   2.0000      -0.311593        -8.4789
 105   2.0000      -0.307319        -8.3626
 106   2.0000      -0.301347        -8.2001
 107   2.0000      -0.237964        -6.4753
 108   0.0000      -0.085033        -2.3139
 109   0.0000      -0.013586        -0.3697
 110   0.0000      -0.008558        -0.2329
 111   0.0000       0.006607         0.1798
 112   0.0000       0.033787         0.9194

MULLIKEN ATOMIC CHARGES
-----------------------
   0 C :   -0.201764
   1 C :    0.115560
   2 C :   -0.040654
   3 C :    0.064590
   4 C :    0.067005
   5 C :   -0.177167
   6 H :    0.152827
   7 C :    0.120618
   8 C :    0.066202
   9 H :    0.166547
  10 C :   -0.179375
  11 C :   -0.200142
  12 H :    0.165762
  13 H :    0.153204
  14 C :    0.119421
  15 C :   -0.044151
  16 C :   -0.195889
  17 C :    0.114217
  18 C :    0.066956
  19 C :   -0.184906
  20 H :    0.153261
  21 C :   -0.197721
  22 C :    0.066419
  23 C :    0.070556
  24 H :    0.164788
  25 C :   -0.181867
  26 H :    0.153200
  27 H :    0.166296
  28 C :    0.276489
  29 O :   -0.457143
  30 C :    0.288030
  31 O :   -0.453144
  32 N :   -0.100209
  33 C :    0.279100
  34 O :   -0.457142
  35 C :    0.285472
  36 O :   -0.453343
  37 N :   -0.100778
  38 C :   -0.274927
  39 H :    0.142928
  40 H :    0.142718
  41 H :    0.163630
  42 C :   -0.274645
  43 H :    0.142667
  44 H :    0.163609
  45 H :    0.142893
Sum of atomic charges:   -0.0000000

LOEWDIN ATOMIC CHARGES
----------------------
   0 C :   -0.070564
   1 C :   -0.031845
   2 C :    0.001678
   3 C :   -0.012297
   4 C :   -0.077284
   5 C :   -0.050884
   6 H :    0.160947
   7 C :   -0.031932
   8 C :   -0.078030
   9 H :    0.165103
  10 C :   -0.050818
  11 C :   -0.070388
  12 H :    0.165052
  13 H :    0.160947
  14 C :   -0.031928
  15 C :    0.001670
  16 C :   -0.070382
  17 C :   -0.031847
  18 C :   -0.012288
  19 C :   -0.050823
  20 H :    0.160950
  21 C :   -0.070564
  22 C :   -0.077288
  23 C :   -0.078019
  24 H :    0.165049
  25 C :   -0.050888
  26 H :    0.160946
  27 H :    0.165105
  28 C :   -0.312823
  29 O :    0.040827
  30 C :   -0.313247
  31 O :    0.046486
  32 N :    0.232579
  33 C :   -0.312826
  34 O :    0.040829
  35 C :   -0.313267
  36 O :    0.046500
  37 N :    0.232575
  38 C :   -0.246671
  39 H :    0.122838
  40 H :    0.122560
  41 H :    0.127767
  42 C :   -0.246672
  43 H :    0.122557
  44 H :    0.127767
  45 H :    0.122840

  Mayer bond orders larger than 0.100000
B(  0-C ,  1-C ) :   1.4340 B(  0-C ,  5-C ) :   1.2943 B(  0-C ,  6-H ) :   0.9825
B(  1-C ,  2-C ) :   1.2615 B(  1-C , 14-C ) :   1.0750 B(  2-C ,  3-C ) :   1.3140
B(  2-C ,  7-C ) :   1.2559 B(  3-C ,  4-C ) :   1.2927 B(  3-C ,  8-C ) :   1.2797
B(  4-C ,  5-C ) :   1.4086 B(  4-C , 28-C ) :   0.9817 B(  4-C , 29-O ) :  -0.1689
B(  5-C ,  9-H ) :   0.9876 B(  7-C , 11-C ) :   1.4329 B(  7-C , 17-C ) :   1.0742
B(  8-C , 10-C ) :   1.4036 B(  8-C , 30-C ) :   0.9906 B(  8-C , 31-O ) :  -0.1644
B( 10-C , 11-C ) :   1.2956 B( 10-C , 12-H ) :   0.9898 B( 11-C , 13-H ) :   0.9823
B( 14-C , 15-C ) :   1.2597 B( 14-C , 16-C ) :   1.4336 B( 15-C , 17-C ) :   1.2630
B( 15-C , 18-C ) :   1.3146 B( 16-C , 19-C ) :   1.2907 B( 16-C , 20-H ) :   0.9821
B( 17-C , 21-C ) :   1.4338 B( 18-C , 22-C ) :   1.2910 B( 18-C , 23-C ) :   1.2727
B( 19-C , 23-C ) :   1.4066 B( 19-C , 24-H ) :   0.9911 B( 21-C , 25-C ) :   1.2915
B( 21-C , 26-H ) :   0.9823 B( 22-C , 25-C ) :   1.4052 B( 22-C , 33-C ) :   0.9830
B( 22-C , 34-O ) :  -0.1688 B( 23-C , 35-C ) :   0.9910 B( 23-C , 36-O ) :  -0.1658
B( 25-C , 27-H ) :   0.9899 B( 28-C , 29-O ) :   2.0191 B( 28-C , 32-N ) :   1.1800
B( 30-C , 31-O ) :   2.0201 B( 30-C , 32-N ) :   1.1636 B( 32-N , 38-C ) :   0.8715
B( 33-C , 34-O ) :   2.0188 B( 33-C , 37-N ) :   1.1800 B( 35-C , 36-O ) :   2.0213
B( 35-C , 37-N ) :   1.1635 B( 37-N , 42-C ) :   0.8724 B( 38-C , 39-H ) :   0.9717
B( 38-C , 40-H ) :   0.9724 B( 38-C , 41-H ) :   0.9641 B( 42-C , 43-H ) :   0.9724
B( 42-C , 44-H ) :   0.9641 B( 42-C , 45-H ) :   0.9717

MP2 TOTAL ENERGY:    -1409.177165658 Eh

-----------------------------------------------------------------------------
         ABSORPTION SPECTRUM VIA TRANSITION ELECTRIC DIPOLE MOMENTS
-----------------------------------------------------------------------------
State   Energy    Wavelength  fosc         T2        TX        TY        TZ
        (cm-1)      (nm)                 (au**2)    (au)      (au)      (au)
-----------------------------------------------------------------------------
   1   18508.8    540.3   0.926030196  16.47108  -4.05846   0.00498   0.00010
   2   26901.2    371.7   0.000074225   0.00091  -0.00000   0.00005   0.03014
   3   29094.1    343.7   0.000118582   0.00134  -0.00000  -0.00011   0.03663
   4   28507.3    350.8   0.168968107   1.95130  -0.00177   1.39689   0.00008
   5   30923.3    323.4   0.000000499   0.00001  -0.00001  -0.00006   0.00230
   6   28507.9    350.8   0.000000751   0.00001  -0.00003   0.00005  -0.00294
   7   28414.1    351.9   0.000000028   0.00000   0.00001  -0.00000  -0.00057
   8   33019.1    302.9   0.000360728   0.00360  -0.00006  -0.00003   0.05997
   9   28721.4    348.2   0.000263863   0.00302   0.00004   0.00005  -0.05500
  10   28759.6    347.7   0.000000874   0.00001  -0.00298   0.00011  -0.00106
  11   32429.4    308.4   0.014563919   0.14785   0.00857  -0.38441   0.00009
  12   32652.4    306.3   0.008441853   0.08511  -0.00857  -0.29162   0.00005
  13   32999.7    303.0   0.000000578   0.00001   0.00004   0.00057   0.00233
  14   32989.6    303.1   0.000535597   0.00534   0.00001   0.00007  -0.07311
  15   38437.7    260.2   0.787861552   6.74790   0.00471  -2.59767  -0.00005
  16   40261.9    248.4   0.000422769   0.00346   0.05009   0.03079   0.00005
  17   42031.6    237.9   0.020622181   0.16152   0.02174  -0.40131  -0.00013
  18   42852.3    233.4   0.085036201   0.65329   0.80803   0.01923   0.00023
  19   42149.6    237.3   0.000000029   0.00000  -0.00036  -0.00008   0.00030
  20   44044.5    227.0   0.131600323   0.98365   0.99179  -0.00198   0.00003
  21   41143.4    243.1   0.101692345   0.81370  -0.02738  -0.90164  -0.00010
  22   41543.6    240.7   0.036307138   0.28772   0.01135   0.53627   0.00003
  23   41149.9    243.0   0.316035487   2.52838  -0.02155   1.58994   0.00004
  24   41944.0    238.4   0.000198979   0.00156  -0.00001   0.00018  -0.03952
  25   44073.5    226.9   1.821454596  13.60555  -3.68849  -0.02415   0.00011
  26   41570.6    240.6   0.022100234   0.17502   0.12403  -0.39955   0.00004
  27   48462.4    206.3   0.000002468   0.00002   0.00372   0.00004  -0.00172
  28   42818.1    233.5   0.072477918   0.55725  -0.74648  -0.00489  -0.00000
  29   43128.9    231.9   0.370327391   2.82679   1.68129   0.00766   0.00002
  30   44512.8    224.7   0.022012552   0.16280  -0.38285   0.12738  -0.00002

Dispersion correction           -0.060952328
FINAL SINGLE POINT ENERGY     -1407.408038300175

DIPOLE MOMENT
-------------
                                X             Y             Z
Electronic contribution:      0.00008      -0.00011       0.01858
Nuclear contribution   :      0.00001       0.00005      -0.02957
                        -----------------------------------------
Total Dipole Moment    :      0.00009      -0.00006      -0.01099
                        -----------------------------------------
Magnitude (a.u.)       :      0.01099
Magnitude (Debye)      :      0.02794

Rotational constants in cm-1:     0.013982     0.002362     0.002023
Rotational constants in MHz :   419.179379    70.800426    60.635339

                             ****ORCA TERMINATED NORMALLY****
TOTAL RUN TIME: 0 days 1 hours 47 minutes 47 seconds 870 msec
