                         Program Version 5.0.2 -  RELEASE  -
|  1> %maxcore 3200
|  2> %pal
|  3>  nprocs= 8
|  4> end
|  5> ! RI-wB2PLYP def2-TZVP def2/J def2-TZVP/C RIJCOSX CPCM TightSCF
|  6> %TDDFT DCORR 1
|  7>    NROOTS   30
|  8>
|  9>    TDA      FALSE
| 10> END
| 11>
| 12> %CPCM
| 13>    SMD          TRUE
| 14>    SMDsolvent   "DICHLOROMETHANE"
| 15> END
| 16>
| 17>
| 18> * xyz 0 1
| 19> C                   1.46464600   -2.41893700   -0.06271400
| 20> C                   0.72641700   -1.24107300   -0.01499900
| 21> C                   1.42205100   -0.00158200    0.00156800
| 22> C                   2.84382300   -0.00301800    0.00068500
| 23> C                   3.54933700   -1.22065000   -0.04191100
| 24> C                   2.85128800   -2.41046100   -0.07903600
| 25> H                   0.95923300   -3.37322000   -0.09116000
| 26> C                   0.72918700    1.23961000    0.01888700
| 27> C                   3.55035700    1.21370400    0.04281100
| 28> H                   3.40455200   -3.33956400   -0.11758900
| 29> C                   2.85603900    2.40537100    0.08161500
| 30> C                   1.46935800    2.41633000    0.06644900
| 31> H                   3.41148400    3.33328100    0.12004100
| 32> H                   0.96535600    3.37133800    0.09545200
| 33> C                  -0.72918900   -1.23962400    0.01882700
| 34> C                  -1.42205000    0.00157300    0.00165600
| 35> C                  -1.46936300   -2.41633800    0.06659300
| 36> C                  -0.72641800    1.24106800   -0.01473900
| 37> C                  -2.84382100    0.00301000    0.00079900
| 38> C                  -2.85604700   -2.40537900    0.08185800
| 39> H                  -0.96536200   -3.37134200    0.09572600
| 40> C                  -1.46464200    2.41895300   -0.06206700
| 41> C                  -3.54932500    1.22065700   -0.04173700
| 42> C                  -3.55037000   -1.21371600    0.04297400
| 43> H                  -3.41148900   -3.33328500    0.12042700
| 44> C                  -2.85128100    2.41047900   -0.07852000
| 45> H                  -0.95922500    3.37324200   -0.09015400
| 46> H                  -3.40455300    3.33958500   -0.11689700
| 47> C                   5.01757000   -1.24515300   -0.04927900
| 48> O                   5.65530900   -2.28354200   -0.09105200
| 49> C                   5.01650500    1.22652800    0.04761100
| 50> O                   5.67372900    2.25332000    0.09285300
| 51> N                   5.66106700   -0.00727100   -0.00462900
| 52> C                  -5.01755500    1.24515000   -0.04943100
| 53> O                  -5.65528800    2.28353000   -0.09150600
| 54> C                  -5.01651700   -1.22652700    0.04780100
| 55> O                  -5.67375700   -2.25329900    0.09321200
| 56> N                  -5.66106400    0.00727200   -0.00477200
| 57> C                   7.11459700    0.02798000   -0.00696600
| 58> H                   7.47294100    0.61119000   -0.85250200
| 59> H                   7.48161400    0.49099800    0.90692800
| 60> H                   7.47983500   -0.98932600   -0.07691200
| 61> C                  -7.11459300   -0.02797600   -0.00736100
| 62> H                  -7.48180000   -0.49059900    0.90665800
| 63> H                  -7.47981200    0.98930300   -0.07779800
| 64> H                  -7.47276200   -0.61154600   -0.85272200
| 65> *
| 66>
| 67>
| 68>                          ****END OF INPUT****

CARTESIAN COORDINATES (ANGSTROEM)
---------------------------------
  C      1.464646   -2.418937   -0.062714
  C      0.726417   -1.241073   -0.014999
  C      1.422051   -0.001582    0.001568
  C      2.843823   -0.003018    0.000685
  C      3.549337   -1.220650   -0.041911
  C      2.851288   -2.410461   -0.079036
  H      0.959233   -3.373220   -0.091160
  C      0.729187    1.239610    0.018887
  C      3.550357    1.213704    0.042811
  H      3.404552   -3.339564   -0.117589
  C      2.856039    2.405371    0.081615
  C      1.469358    2.416330    0.066449
  H      3.411484    3.333281    0.120041
  H      0.965356    3.371338    0.095452
  C     -0.729189   -1.239624    0.018827
  C     -1.422050    0.001573    0.001656
  C     -1.469363   -2.416338    0.066593
  C     -0.726418    1.241068   -0.014739
  C     -2.843821    0.003010    0.000799
  C     -2.856047   -2.405379    0.081858
  H     -0.965362   -3.371342    0.095726
  C     -1.464642    2.418953   -0.062067
  C     -3.549325    1.220657   -0.041737
  C     -3.550370   -1.213716    0.042974
  H     -3.411489   -3.333285    0.120427
  C     -2.851281    2.410479   -0.078520
  H     -0.959225    3.373242   -0.090154
  H     -3.404553    3.339585   -0.116897
  C      5.017570   -1.245153   -0.049279
  O      5.655309   -2.283542   -0.091052
  C      5.016505    1.226528    0.047611
  O      5.673729    2.253320    0.092853
  N      5.661067   -0.007271   -0.004629
  C     -5.017555    1.245150   -0.049431
  O     -5.655288    2.283530   -0.091506
  C     -5.016517   -1.226527    0.047801
  O     -5.673757   -2.253299    0.093212
  N     -5.661064    0.007272   -0.004772
  C      7.114597    0.027980   -0.006966
  H      7.472941    0.611190   -0.852502
  H      7.481614    0.490998    0.906928
  H      7.479835   -0.989326   -0.076912
  C     -7.114593   -0.027976   -0.007361
  H     -7.481800   -0.490599    0.906658
  H     -7.479812    0.989303   -0.077798
  H     -7.472762   -0.611546   -0.852722

 Total Charge           Charge          ....    0
 Multiplicity           Mult            ....    1
 Number of Electrons    NEL             ....  216
 Basis Dimension        Dim             .... 1076

ORBITAL ENERGIES
----------------

  NO   OCC          E(Eh)            E(eV)
   0   2.0000     -19.784544      -538.3648
   1   2.0000     -19.784543      -538.3648
   2   2.0000     -19.784491      -538.3634
   3   2.0000     -19.784490      -538.3633
   4   2.0000     -14.965932      -407.2437
   5   2.0000     -14.965928      -407.2436
   6   2.0000     -10.823835      -294.5315
   7   2.0000     -10.823834      -294.5315
   8   2.0000     -10.821421      -294.4658
   9   2.0000     -10.821420      -294.4658
  10   2.0000     -10.732077      -292.0347
  11   2.0000     -10.732071      -292.0345
  12   2.0000     -10.731528      -292.0197
  13   2.0000     -10.731482      -292.0185
  14   2.0000     -10.727772      -291.9175
  15   2.0000     -10.727768      -291.9174
  16   2.0000     -10.724032      -291.8157
  17   2.0000     -10.724019      -291.8154
  18   2.0000     -10.715402      -291.5809
  19   2.0000     -10.715401      -291.5809
  20   2.0000     -10.715176      -291.5748
  21   2.0000     -10.715172      -291.5746
  22   2.0000     -10.713835      -291.5383
  23   2.0000     -10.713833      -291.5382
  24   2.0000     -10.713792      -291.5371
  25   2.0000     -10.713792      -291.5371
  26   2.0000     -10.706334      -291.3342
  27   2.0000     -10.706332      -291.3341
  28   2.0000     -10.706244      -291.3317
  29   2.0000     -10.706242      -291.3317
  30   2.0000     -10.705062      -291.2995
  31   2.0000     -10.705058      -291.2994
  32   2.0000      -1.299898       -35.3720
  33   2.0000      -1.299896       -35.3720
  34   2.0000      -1.278380       -34.7865
  35   2.0000      -1.278378       -34.7864
  36   2.0000      -1.161998       -31.6196
  37   2.0000      -1.161556       -31.6075
  38   2.0000      -1.137658       -30.9573
  39   2.0000      -1.109431       -30.1891
  40   2.0000      -1.072088       -29.1730
  41   2.0000      -1.051013       -28.5995
  42   2.0000      -1.048029       -28.5183
  43   2.0000      -0.991185       -26.9715
  44   2.0000      -0.982965       -26.7478
  45   2.0000      -0.970527       -26.4094
  46   2.0000      -0.955227       -25.9930
  47   2.0000      -0.928744       -25.2724
  48   2.0000      -0.917159       -24.9572
  49   2.0000      -0.896293       -24.3894
  50   2.0000      -0.878720       -23.9112
  51   2.0000      -0.841754       -22.9053
  52   2.0000      -0.838137       -22.8069
  53   2.0000      -0.827751       -22.5243
  54   2.0000      -0.818343       -22.2682
  55   2.0000      -0.797271       -21.6948
  56   2.0000      -0.791218       -21.5301
  57   2.0000      -0.769773       -20.9466
  58   2.0000      -0.742239       -20.1974
  59   2.0000      -0.715158       -19.4604
  60   2.0000      -0.708811       -19.2877
  61   2.0000      -0.697400       -18.9772
  62   2.0000      -0.686270       -18.6743
  63   2.0000      -0.668275       -18.1847
  64   2.0000      -0.657461       -17.8904
  65   2.0000      -0.641604       -17.4589
  66   2.0000      -0.637465       -17.3463
  67   2.0000      -0.636906       -17.3311
  68   2.0000      -0.636447       -17.3186
  69   2.0000      -0.635704       -17.2984
  70   2.0000      -0.618723       -16.8363
  71   2.0000      -0.607177       -16.5221
  72   2.0000      -0.603720       -16.4281
  73   2.0000      -0.602163       -16.3857
  74   2.0000      -0.590755       -16.0753
  75   2.0000      -0.584863       -15.9149
  76   2.0000      -0.584081       -15.8936
  77   2.0000      -0.581638       -15.8272
  78   2.0000      -0.573009       -15.5924
  79   2.0000      -0.559643       -15.2287
  80   2.0000      -0.554463       -15.0877
  81   2.0000      -0.546058       -14.8590
  82   2.0000      -0.545021       -14.8308
  83   2.0000      -0.544585       -14.8189
  84   2.0000      -0.543968       -14.8021
  85   2.0000      -0.540945       -14.7199
  86   2.0000      -0.530382       -14.4324
  87   2.0000      -0.526123       -14.3165
  88   2.0000      -0.523894       -14.2559
  89   2.0000      -0.522438       -14.2163
  90   2.0000      -0.511553       -13.9201
  91   2.0000      -0.495264       -13.4768
  92   2.0000      -0.491743       -13.3810
  93   2.0000      -0.489094       -13.3089
  94   2.0000      -0.462343       -12.5810
  95   2.0000      -0.454603       -12.3704
  96   2.0000      -0.447539       -12.1782
  97   2.0000      -0.433056       -11.7841
  98   2.0000      -0.430807       -11.7229
  99   2.0000      -0.414623       -11.2825
 100   2.0000      -0.414567       -11.2809
 101   2.0000      -0.399168       -10.8619
 102   2.0000      -0.396133       -10.7793
 103   2.0000      -0.369943       -10.0667
 104   2.0000      -0.367562       -10.0019
 105   2.0000      -0.361277        -9.8308
 106   2.0000      -0.355944        -9.6857
 107   2.0000      -0.284433        -7.7398
 108   0.0000      -0.052098        -1.4177
 109   0.0000       0.027814         0.7569
 110   0.0000       0.033299         0.9061
 111   0.0000       0.046581         1.2675
 112   0.0000       0.075859         2.0642

MULLIKEN ATOMIC CHARGES
-----------------------
   0 C :   -0.207897
   1 C :    0.117116
   2 C :   -0.084687
   3 C :    0.055946
   4 C :    0.043647
   5 C :   -0.179612
   6 H :    0.173786
   7 C :    0.121133
   8 C :    0.041475
   9 H :    0.188324
  10 C :   -0.181450
  11 C :   -0.206265
  12 H :    0.187866
  13 H :    0.174324
  14 C :    0.120181
  15 C :   -0.089383
  16 C :   -0.200557
  17 C :    0.115572
  18 C :    0.058793
  19 C :   -0.188591
  20 H :    0.174342
  21 C :   -0.202688
  22 C :    0.043451
  23 C :    0.046234
  24 H :    0.186569
  25 C :   -0.186051
  26 H :    0.174244
  27 H :    0.188024
  28 C :    0.276876
  29 O :   -0.440415
  30 C :    0.290806
  31 O :   -0.434869
  32 N :   -0.105138
  33 C :    0.280247
  34 O :   -0.440392
  35 C :    0.287812
  36 O :   -0.435134
  37 N :   -0.105942
  38 C :   -0.326898
  39 H :    0.160481
  40 H :    0.160790
  41 H :    0.176642
  42 C :   -0.326475
  43 H :    0.160710
  44 H :    0.176624
  45 H :    0.160428
Sum of atomic charges:   -0.0000000

LOEWDIN ATOMIC CHARGES
----------------------
   0 C :   -0.075364
   1 C :   -0.032082
   2 C :   -0.001334
   3 C :   -0.013038
   4 C :   -0.081254
   5 C :   -0.050717
   6 H :    0.164651
   7 C :   -0.032195
   8 C :   -0.081976
   9 H :    0.169507
  10 C :   -0.050670
  11 C :   -0.075181
  12 H :    0.169473
  13 H :    0.164652
  14 C :   -0.032190
  15 C :   -0.001344
  16 C :   -0.075173
  17 C :   -0.032083
  18 C :   -0.013028
  19 C :   -0.050678
  20 H :    0.164654
  21 C :   -0.075365
  22 C :   -0.081259
  23 C :   -0.081964
  24 H :    0.169469
  25 C :   -0.050722
  26 H :    0.164651
  27 H :    0.169510
  28 C :   -0.310641
  29 O :    0.041948
  30 C :   -0.311253
  31 O :    0.047831
  32 N :    0.230271
  33 C :   -0.310643
  34 O :    0.041950
  35 C :   -0.311278
  36 O :    0.047849
  37 N :    0.230267
  38 C :   -0.256335
  39 H :    0.126386
  40 H :    0.126150
  41 H :    0.131176
  42 C :   -0.256336
  43 H :    0.126146
  44 H :    0.131176
  45 H :    0.126388

  Mayer bond orders larger than 0.100000
B(  0-C ,  1-C ) :   1.4708 B(  0-C ,  5-C ) :   1.3119 B(  0-C ,  6-H ) :   0.9598
B(  1-C ,  2-C ) :   1.2557 B(  1-C , 14-C ) :   1.0492 B(  2-C ,  3-C ) :   1.3485
B(  2-C ,  7-C ) :   1.2503 B(  3-C ,  4-C ) :   1.2804 B(  3-C ,  8-C ) :   1.2685
B(  4-C ,  5-C ) :   1.4336 B(  4-C , 28-C ) :   0.9721 B(  4-C , 29-O ) :  -0.1686
B(  5-C ,  9-H ) :   0.9673 B(  7-C , 11-C ) :   1.4690 B(  7-C , 17-C ) :   1.0487
B(  8-C , 10-C ) :   1.4277 B(  8-C , 30-C ) :   0.9835 B(  8-C , 31-O ) :  -0.1648
B( 10-C , 11-C ) :   1.3136 B( 10-C , 12-H ) :   0.9694 B( 11-C , 13-H ) :   0.9596
B( 14-C , 15-C ) :   1.2550 B( 14-C , 16-C ) :   1.4699 B( 15-C , 17-C ) :   1.2574
B( 15-C , 18-C ) :   1.3487 B( 16-C , 19-C ) :   1.3065 B( 16-C , 20-H ) :   0.9594
B( 17-C , 21-C ) :   1.4700 B( 18-C , 22-C ) :   1.2789 B( 18-C , 23-C ) :   1.2598
B( 19-C , 23-C ) :   1.4322 B( 19-C , 24-H ) :   0.9712 B( 21-C , 25-C ) :   1.3083
B( 21-C , 26-H ) :   0.9596 B( 22-C , 25-C ) :   1.4289 B( 22-C , 33-C ) :   0.9735
B( 22-C , 34-O ) :  -0.1685 B( 23-C , 35-C ) :   0.9839 B( 23-C , 36-O ) :  -0.1660
B( 25-C , 27-H ) :   0.9705 B( 28-C , 29-O ) :   2.0507 B( 28-C , 32-N ) :   1.1868
B( 30-C , 31-O ) :   2.0545 B( 30-C , 32-N ) :   1.1678 B( 32-N , 38-C ) :   0.8735
B( 33-C , 34-O ) :   2.0503 B( 33-C , 37-N ) :   1.1869 B( 35-C , 36-O ) :   2.0558
B( 35-C , 37-N ) :   1.1677 B( 37-N , 42-C ) :   0.8747 B( 38-C , 39-H ) :   0.9706
B( 38-C , 40-H ) :   0.9714 B( 38-C , 41-H ) :   0.9622 B( 42-C , 43-H ) :   0.9714
B( 42-C , 44-H ) :   0.9622 B( 42-C , 45-H ) :   0.9706

MP2 TOTAL ENERGY:    -1407.683098082 Eh

-----------------------------------------------------------------------------
         ABSORPTION SPECTRUM VIA TRANSITION ELECTRIC DIPOLE MOMENTS
-----------------------------------------------------------------------------
State   Energy    Wavelength  fosc         T2        TX        TY        TZ
        (cm-1)      (nm)                 (au**2)    (au)      (au)      (au)
-----------------------------------------------------------------------------
   1   20908.0    478.3   1.056000065  16.62750  -4.07768   0.00493   0.00011
   2   29949.0    333.9   0.000109145   0.00120   0.00000   0.00008   0.03464
   3   32271.5    309.9   0.000136424   0.00139  -0.00001  -0.00011   0.03731
   4   31523.8    317.2   0.199663796   2.08515   0.00062  -1.44400  -0.00007
   5   34025.6    293.9   0.000000454   0.00000   0.00000   0.00007  -0.00210
   6   37359.2    267.7   0.000628397   0.00554   0.00006   0.00003  -0.07441
   7   35818.9    279.2   0.000015689   0.00014  -0.00001   0.00004  -0.01201
   8   36071.5    277.2   0.000005980   0.00005   0.00369  -0.00209  -0.00605
   9   36062.3    277.3   0.000389099   0.00355   0.00038  -0.00024   0.05960
  10   37284.7    268.2   0.000000089   0.00000  -0.00002  -0.00001  -0.00089
  11   38959.9    256.7   0.000014669   0.00012   0.01113  -0.00018   0.00001
  12   39123.8    255.6   0.000000348   0.00000   0.00003   0.00007   0.00171
  13   40880.7    244.6   0.093652263   0.75418   0.00465   0.86842   0.00011
  14   44452.1    225.0   1.613768788  11.95157  -0.02946   3.45698  -0.00003
  15   41759.4    239.5   0.000856549   0.00675   0.00012  -0.00569  -0.08198
  16   45317.5    220.7   0.059374367   0.43133  -0.21250   0.62143  -0.00020
  17   45284.5    220.8   0.056659735   0.41191  -0.23486  -0.59729  -0.00000
  18   47511.3    210.5   0.173332518   1.20104  -1.09247  -0.08685  -0.00024
  19   49386.0    202.5   0.259815681   1.73196  -1.31604   0.00228   0.00002
  20   47420.1    210.9   0.000000016   0.00000  -0.00031   0.00002   0.00013
  21   46821.3    213.6   0.004770254   0.03354   0.00168  -0.18313   0.00000
  22   51377.1    194.6   0.000000090   0.00000   0.00008   0.00000  -0.00076
  23   48521.8    206.1   0.014609500   0.09912  -0.20822  -0.23615  -0.00005
  24   50156.9    199.4   2.369825281  15.55468   3.94394  -0.00081  -0.00009
  25   49356.4    202.6   0.016637415   0.11097  -0.33312  -0.00129   0.00001
  26   50100.8    199.6   0.295124926   1.93927   0.01425   1.39250  -0.00003
  27   51139.5    195.5   0.000370761   0.00239  -0.00003   0.00016  -0.04885
  28   53062.3    188.5   0.000034588   0.00021   0.00027   0.00013   0.01465
  29   52893.9    189.1   0.003796261   0.02363  -0.15198  -0.02304   0.00002
  30   51719.5    193.4   0.021759197   0.13850   0.00816  -0.37207   0.00003

FINAL SINGLE POINT ENERGY     -1406.011387788951

DIPOLE MOMENT
-------------
                                X             Y             Z
Electronic contribution:      0.00009      -0.00012       0.01877
Nuclear contribution   :      0.00001       0.00005      -0.02957
                        -----------------------------------------
Total Dipole Moment    :      0.00010      -0.00007      -0.01080
                        -----------------------------------------
Magnitude (a.u.)       :      0.01080
Magnitude (Debye)      :      0.02745

Rotational constants in cm-1:     0.013982     0.002362     0.002023
Rotational constants in MHz :   419.179379    70.800426    60.635339

                             ****ORCA TERMINATED NORMALLY****
TOTAL RUN TIME: 0 days 1 hours 56 minutes 46 seconds 162 msec
