                         Program Version 5.0.2 -  RELEASE  -
|  1> %maxcore 20000
|  2> %pal
|  3>  nprocs= 6
|  4> end
|  5> ! RI-SCS-PBE-QIDH   def2-TZVP def2/J def2-TZVP/C RIJCOSX CPCM TightSCF
|  6> %TDDFT
|  7>    NROOTS   30
|  8>    dcorr 4
|  9>    doscs true
| 10>    TDA      FALSE
| 11> END
| 12>
| 13> %CPCM
| 14>    SMD          TRUE
| 15>    SMDsolvent   "DICHLOROMETHANE"
| 16> END
| 17>
| 18>
| 19> * xyz 0 1
| 20> C                   1.46464600   -2.41893700   -0.06271400
| 21> C                   0.72641700   -1.24107300   -0.01499900
| 22> C                   1.42205100   -0.00158200    0.00156800
| 23> C                   2.84382300   -0.00301800    0.00068500
| 24> C                   3.54933700   -1.22065000   -0.04191100
| 25> C                   2.85128800   -2.41046100   -0.07903600
| 26> H                   0.95923300   -3.37322000   -0.09116000
| 27> C                   0.72918700    1.23961000    0.01888700
| 28> C                   3.55035700    1.21370400    0.04281100
| 29> H                   3.40455200   -3.33956400   -0.11758900
| 30> C                   2.85603900    2.40537100    0.08161500
| 31> C                   1.46935800    2.41633000    0.06644900
| 32> H                   3.41148400    3.33328100    0.12004100
| 33> H                   0.96535600    3.37133800    0.09545200
| 34> C                  -0.72918900   -1.23962400    0.01882700
| 35> C                  -1.42205000    0.00157300    0.00165600
| 36> C                  -1.46936300   -2.41633800    0.06659300
| 37> C                  -0.72641800    1.24106800   -0.01473900
| 38> C                  -2.84382100    0.00301000    0.00079900
| 39> C                  -2.85604700   -2.40537900    0.08185800
| 40> H                  -0.96536200   -3.37134200    0.09572600
| 41> C                  -1.46464200    2.41895300   -0.06206700
| 42> C                  -3.54932500    1.22065700   -0.04173700
| 43> C                  -3.55037000   -1.21371600    0.04297400
| 44> H                  -3.41148900   -3.33328500    0.12042700
| 45> C                  -2.85128100    2.41047900   -0.07852000
| 46> H                  -0.95922500    3.37324200   -0.09015400
| 47> H                  -3.40455300    3.33958500   -0.11689700
| 48> C                   5.01757000   -1.24515300   -0.04927900
| 49> O                   5.65530900   -2.28354200   -0.09105200
| 50> C                   5.01650500    1.22652800    0.04761100
| 51> O                   5.67372900    2.25332000    0.09285300
| 52> N                   5.66106700   -0.00727100   -0.00462900
| 53> C                  -5.01755500    1.24515000   -0.04943100
| 54> O                  -5.65528800    2.28353000   -0.09150600
| 55> C                  -5.01651700   -1.22652700    0.04780100
| 56> O                  -5.67375700   -2.25329900    0.09321200
| 57> N                  -5.66106400    0.00727200   -0.00477200
| 58> C                   7.11459700    0.02798000   -0.00696600
| 59> H                   7.47294100    0.61119000   -0.85250200
| 60> H                   7.48161400    0.49099800    0.90692800
| 61> H                   7.47983500   -0.98932600   -0.07691200
| 62> C                  -7.11459300   -0.02797600   -0.00736100
| 63> H                  -7.48180000   -0.49059900    0.90665800
| 64> H                  -7.47981200    0.98930300   -0.07779800
| 65> H                  -7.47276200   -0.61154600   -0.85272200
| 66> *
| 67>
| 68>
| 69>                          ****END OF INPUT****

CARTESIAN COORDINATES (ANGSTROEM)
---------------------------------
  C      1.464646   -2.418937   -0.062714
  C      0.726417   -1.241073   -0.014999
  C      1.422051   -0.001582    0.001568
  C      2.843823   -0.003018    0.000685
  C      3.549337   -1.220650   -0.041911
  C      2.851288   -2.410461   -0.079036
  H      0.959233   -3.373220   -0.091160
  C      0.729187    1.239610    0.018887
  C      3.550357    1.213704    0.042811
  H      3.404552   -3.339564   -0.117589
  C      2.856039    2.405371    0.081615
  C      1.469358    2.416330    0.066449
  H      3.411484    3.333281    0.120041
  H      0.965356    3.371338    0.095452
  C     -0.729189   -1.239624    0.018827
  C     -1.422050    0.001573    0.001656
  C     -1.469363   -2.416338    0.066593
  C     -0.726418    1.241068   -0.014739
  C     -2.843821    0.003010    0.000799
  C     -2.856047   -2.405379    0.081858
  H     -0.965362   -3.371342    0.095726
  C     -1.464642    2.418953   -0.062067
  C     -3.549325    1.220657   -0.041737
  C     -3.550370   -1.213716    0.042974
  H     -3.411489   -3.333285    0.120427
  C     -2.851281    2.410479   -0.078520
  H     -0.959225    3.373242   -0.090154
  H     -3.404553    3.339585   -0.116897
  C      5.017570   -1.245153   -0.049279
  O      5.655309   -2.283542   -0.091052
  C      5.016505    1.226528    0.047611
  O      5.673729    2.253320    0.092853
  N      5.661067   -0.007271   -0.004629
  C     -5.017555    1.245150   -0.049431
  O     -5.655288    2.283530   -0.091506
  C     -5.016517   -1.226527    0.047801
  O     -5.673757   -2.253299    0.093212
  N     -5.661064    0.007272   -0.004772
  C      7.114597    0.027980   -0.006966
  H      7.472941    0.611190   -0.852502
  H      7.481614    0.490998    0.906928
  H      7.479835   -0.989326   -0.076912
  C     -7.114593   -0.027976   -0.007361
  H     -7.481800   -0.490599    0.906658
  H     -7.479812    0.989303   -0.077798
  H     -7.472762   -0.611546   -0.852722

 Total Charge           Charge          ....    0
 Multiplicity           Mult            ....    1
 Number of Electrons    NEL             ....  216
 Basis Dimension        Dim             .... 1076

ORBITAL ENERGIES
----------------

  NO   OCC          E(Eh)            E(eV)
   0   2.0000     -19.989975      -543.9549
   1   2.0000     -19.989974      -543.9548
   2   2.0000     -19.989960      -543.9545
   3   2.0000     -19.989959      -543.9545
   4   2.0000     -15.139611      -411.9698
   5   2.0000     -15.139607      -411.9697
   6   2.0000     -10.956153      -298.1321
   7   2.0000     -10.956152      -298.1320
   8   2.0000     -10.953760      -298.0670
   9   2.0000     -10.953759      -298.0669
  10   2.0000     -10.867245      -295.7128
  11   2.0000     -10.867221      -295.7121
  12   2.0000     -10.866589      -295.6949
  13   2.0000     -10.866537      -295.6935
  14   2.0000     -10.862759      -295.5907
  15   2.0000     -10.862757      -295.5906
  16   2.0000     -10.859334      -295.4975
  17   2.0000     -10.859329      -295.4974
  18   2.0000     -10.849957      -295.2423
  19   2.0000     -10.849956      -295.2423
  20   2.0000     -10.849716      -295.2358
  21   2.0000     -10.849712      -295.2357
  22   2.0000     -10.848149      -295.1932
  23   2.0000     -10.848148      -295.1931
  24   2.0000     -10.848093      -295.1916
  25   2.0000     -10.848093      -295.1916
  26   2.0000     -10.841150      -295.0027
  27   2.0000     -10.841149      -295.0027
  28   2.0000     -10.841059      -295.0002
  29   2.0000     -10.841059      -295.0002
  30   2.0000     -10.837485      -294.9030
  31   2.0000     -10.837481      -294.9029
  32   2.0000      -1.297708       -35.3124
  33   2.0000      -1.297707       -35.3124
  34   2.0000      -1.276621       -34.7386
  35   2.0000      -1.276619       -34.7386
  36   2.0000      -1.154511       -31.4158
  37   2.0000      -1.154120       -31.4052
  38   2.0000      -1.127319       -30.6759
  39   2.0000      -1.098255       -29.8850
  40   2.0000      -1.059897       -28.8413
  41   2.0000      -1.037590       -28.2343
  42   2.0000      -1.035208       -28.1694
  43   2.0000      -0.975932       -26.5564
  44   2.0000      -0.968437       -26.3525
  45   2.0000      -0.955477       -25.9999
  46   2.0000      -0.940383       -25.5891
  47   2.0000      -0.913107       -24.8469
  48   2.0000      -0.898215       -24.4417
  49   2.0000      -0.877896       -23.8888
  50   2.0000      -0.861287       -23.4368
  51   2.0000      -0.822460       -22.3803
  52   2.0000      -0.817897       -22.2561
  53   2.0000      -0.807660       -21.9776
  54   2.0000      -0.797608       -21.7040
  55   2.0000      -0.776159       -21.1204
  56   2.0000      -0.771159       -20.9843
  57   2.0000      -0.748959       -20.3802
  58   2.0000      -0.716600       -19.4997
  59   2.0000      -0.690586       -18.7918
  60   2.0000      -0.686147       -18.6710
  61   2.0000      -0.674767       -18.3613
  62   2.0000      -0.661796       -18.0084
  63   2.0000      -0.643846       -17.5199
  64   2.0000      -0.634457       -17.2645
  65   2.0000      -0.616896       -16.7866
  66   2.0000      -0.613700       -16.6996
  67   2.0000      -0.611105       -16.6290
  68   2.0000      -0.606852       -16.5133
  69   2.0000      -0.606372       -16.5002
  70   2.0000      -0.594310       -16.1720
  71   2.0000      -0.581147       -15.8138
  72   2.0000      -0.578538       -15.7428
  73   2.0000      -0.577714       -15.7204
  74   2.0000      -0.565342       -15.3837
  75   2.0000      -0.560105       -15.2412
  76   2.0000      -0.558561       -15.1992
  77   2.0000      -0.549938       -14.9646
  78   2.0000      -0.546351       -14.8670
  79   2.0000      -0.533351       -14.5132
  80   2.0000      -0.523731       -14.2514
  81   2.0000      -0.520455       -14.1623
  82   2.0000      -0.519090       -14.1251
  83   2.0000      -0.514364       -13.9966
  84   2.0000      -0.514125       -13.9901
  85   2.0000      -0.513427       -13.9711
  86   2.0000      -0.501145       -13.6369
  87   2.0000      -0.500555       -13.6208
  88   2.0000      -0.496624       -13.5138
  89   2.0000      -0.494976       -13.4690
  90   2.0000      -0.481774       -13.1097
  91   2.0000      -0.468697       -12.7539
  92   2.0000      -0.463288       -12.6067
  93   2.0000      -0.460347       -12.5267
  94   2.0000      -0.436116       -11.8673
  95   2.0000      -0.423527       -11.5248
  96   2.0000      -0.418036       -11.3753
  97   2.0000      -0.407167       -11.0796
  98   2.0000      -0.404590       -11.0095
  99   2.0000      -0.389210       -10.5909
 100   2.0000      -0.389179       -10.5901
 101   2.0000      -0.371545       -10.1102
 102   2.0000      -0.368773       -10.0348
 103   2.0000      -0.342301        -9.3145
 104   2.0000      -0.340523        -9.2661
 105   2.0000      -0.334444        -9.1007
 106   2.0000      -0.328492        -8.9387
 107   2.0000      -0.261090        -7.1046
 108   0.0000      -0.075351        -2.0504
 109   0.0000       0.002186         0.0595
 110   0.0000       0.006042         0.1644
 111   0.0000       0.021184         0.5764
 112   0.0000       0.049967         1.3597

MULLIKEN ATOMIC CHARGES
-----------------------
   0 C :   -0.241241
   1 C :    0.112756
   2 C :    0.017938
   3 C :    0.115650
   4 C :    0.055505
   5 C :   -0.182472
   6 H :    0.164320
   7 C :    0.118257
   8 C :    0.055081
   9 H :    0.184558
  10 C :   -0.184456
  11 C :   -0.239423
  12 H :    0.183866
  13 H :    0.164722
  14 C :    0.117232
  15 C :    0.013232
  16 C :   -0.234119
  17 C :    0.110851
  18 C :    0.118653
  19 C :   -0.191442
  20 H :    0.164846
  21 C :   -0.236179
  22 C :    0.054876
  23 C :    0.060542
  24 H :    0.182666
  25 C :   -0.188397
  26 H :    0.164769
  27 H :    0.184242
  28 C :    0.263759
  29 O :   -0.489041
  30 C :    0.277149
  31 O :   -0.482951
  32 N :   -0.065146
  33 C :    0.267056
  34 O :   -0.489040
  35 C :    0.273940
  36 O :   -0.483216
  37 N :   -0.065856
  38 C :   -0.316878
  39 H :    0.155521
  40 H :    0.155145
  41 H :    0.179356
  42 C :   -0.316519
  43 H :    0.155080
  44 H :    0.179328
  45 H :    0.155479
Sum of atomic charges:   -0.0000000

LOEWDIN ATOMIC CHARGES
----------------------
   0 C :   -0.072377
   1 C :   -0.033790
   2 C :   -0.001263
   3 C :   -0.013775
   4 C :   -0.081090
   5 C :   -0.048511
   6 H :    0.164185
   7 C :   -0.033865
   8 C :   -0.081835
   9 H :    0.169303
  10 C :   -0.048440
  11 C :   -0.072198
  12 H :    0.169259
  13 H :    0.164185
  14 C :   -0.033861
  15 C :   -0.001273
  16 C :   -0.072192
  17 C :   -0.033791
  18 C :   -0.013765
  19 C :   -0.048447
  20 H :    0.164187
  21 C :   -0.072377
  22 C :   -0.081096
  23 C :   -0.081822
  24 H :    0.169255
  25 C :   -0.048515
  26 H :    0.164184
  27 H :    0.169306
  28 C :   -0.306073
  29 O :    0.033947
  30 C :   -0.306573
  31 O :    0.039948
  32 N :    0.227880
  33 C :   -0.306076
  34 O :    0.033950
  35 C :   -0.306597
  36 O :    0.039964
  37 N :    0.227876
  38 C :   -0.249891
  39 H :    0.125352
  40 H :    0.125051
  41 H :    0.130576
  42 C :   -0.249893
  43 H :    0.125048
  44 H :    0.130576
  45 H :    0.125354

  Mayer bond orders larger than 0.100000
B(  0-C ,  1-C ) :   1.4371 B(  0-C ,  5-C ) :   1.2684 B(  0-C ,  6-H ) :   0.9932
B(  1-C ,  2-C ) :   1.2612 B(  1-C , 14-C ) :   1.0707 B(  2-C ,  3-C ) :   1.3051
B(  2-C ,  7-C ) :   1.2558 B(  3-C ,  4-C ) :   1.2909 B(  3-C ,  8-C ) :   1.2799
B(  4-C ,  5-C ) :   1.4301 B(  4-C , 28-C ) :   0.9787 B(  4-C , 29-O ) :  -0.1411
B(  5-C ,  9-H ) :   0.9815 B(  7-C , 11-C ) :   1.4353 B(  7-C , 17-C ) :   1.0700
B(  8-C , 10-C ) :   1.4231 B(  8-C , 30-C ) :   0.9850 B(  8-C , 31-O ) :  -0.1388
B( 10-C , 11-C ) :   1.2695 B( 10-C , 12-H ) :   0.9838 B( 11-C , 13-H ) :   0.9931
B( 14-C , 15-C ) :   1.2605 B( 14-C , 16-C ) :   1.4364 B( 15-C , 17-C ) :   1.2636
B( 15-C , 18-C ) :   1.3059 B( 16-C , 19-C ) :   1.2640 B( 16-C , 20-H ) :   0.9927
B( 17-C , 21-C ) :   1.4366 B( 18-C , 22-C ) :   1.2890 B( 18-C , 23-C ) :   1.2709
B( 19-C , 23-C ) :   1.4271 B( 19-C , 24-H ) :   0.9854 B( 21-C , 25-C ) :   1.2648
B( 21-C , 26-H ) :   0.9931 B( 22-C , 25-C ) :   1.4262 B( 22-C , 33-C ) :   0.9805
B( 22-C , 34-O ) :  -0.1411 B( 23-C , 35-C ) :   0.9854 B( 23-C , 36-O ) :  -0.1408
B( 25-C , 27-H ) :   0.9843 B( 28-C , 29-O ) :   1.9857 B( 28-C , 32-N ) :   1.1989
B( 30-C , 31-O ) :   1.9890 B( 30-C , 32-N ) :   1.1799 B( 32-N , 38-C ) :   0.8726
B( 33-C , 34-O ) :   1.9852 B( 33-C , 37-N ) :   1.1990 B( 35-C , 36-O ) :   1.9905
B( 35-C , 37-N ) :   1.1798 B( 37-N , 42-C ) :   0.8737 B( 38-C , 39-H ) :   0.9703
B( 38-C , 40-H ) :   0.9712 B( 38-C , 41-H ) :   0.9593 B( 42-C , 43-H ) :   0.9712
B( 42-C , 44-H ) :   0.9593 B( 42-C , 45-H ) :   0.9702

MP2 TOTAL ENERGY:    -1408.461895402 Eh

-----------------------------------------------------------------------------
         ABSORPTION SPECTRUM VIA TRANSITION ELECTRIC DIPOLE MOMENTS
-----------------------------------------------------------------------------
State   Energy    Wavelength  fosc         T2        TX        TY        TZ
        (cm-1)      (nm)                 (au**2)    (au)      (au)      (au)
-----------------------------------------------------------------------------
   1   19305.3    518.0   0.976371878  16.64997  -4.08043   0.00454   0.00011
   2   26848.8    372.5   0.000091638   0.00112   0.00000  -0.00005  -0.03352
   3   30106.3    332.2   0.000143355   0.00157   0.00000   0.00009  -0.03959
   4   28324.3    353.1   0.191173616   2.22200  -0.00063   1.49064   0.00008
   5   32019.1    312.3   0.000000453   0.00000   0.00000   0.00007  -0.00216
   6   30503.9    327.8   0.000002251   0.00002  -0.00003   0.00004   0.00493
   7   34391.5    290.8   0.000503373   0.00482   0.00006   0.00004  -0.06942
   8   30322.2    329.8   0.000000571   0.00001   0.00001   0.00000   0.00249
   9   32305.1    309.5   0.000011199   0.00011   0.00376  -0.00162  -0.00987
  10   32284.8    309.7   0.000310194   0.00316  -0.00067   0.00034  -0.05624
  11   35713.5    280.0   0.000015859   0.00015   0.01206   0.00088   0.00003
  12   35936.7    278.3   0.000000400   0.00000   0.00003   0.00009   0.00191
  13   36115.0    276.9   0.018967918   0.17290  -0.00326  -0.41581  -0.00011
  14   35659.6    280.4   0.000601919   0.00556   0.00002   0.00071  -0.07454
  15   39138.9    255.5   1.120506028   9.42500  -0.01644   3.06997   0.00003
  16   41095.7    243.3   0.006097213   0.04884   0.20079   0.09234   0.00010
  17   44088.0    226.8   0.105699708   0.78928   0.01131  -0.88834  -0.00018
  18   46249.5    216.2   0.094681600   0.67396  -0.82084  -0.01357  -0.00011
  19   44910.6    222.7   0.060543354   0.44381  -0.66538  -0.03282  -0.00022
  20   42956.1    232.8   0.000000017   0.00000   0.00013   0.00001   0.00034
  21   44398.8    225.2   0.001162224   0.00862   0.00268  -0.09279   0.00001
  22   43150.0    231.7   0.152343896   1.16230  -0.04651  -1.07710  -0.00007
  23   49399.5    202.4   0.000000062   0.00000   0.00048  -0.00026  -0.00034
  24   43324.0    230.8   0.245812776   1.86789  -0.11982   1.36145  -0.00001
  25   46287.6    216.0   2.476656212  17.61475  -4.19679  -0.04093   0.00009
  26   44715.5    223.6   0.000297633   0.00219   0.00028  -0.00014   0.04681
  27   46028.6    217.3   0.006272693   0.04486   0.21176   0.00456  -0.00001
  28   43965.2    227.5   0.025495645   0.19091  -0.00821   0.43686  -0.00004
  29   45318.0    220.7   0.032959269   0.23943   0.48929   0.00566   0.00002
  30   47694.9    209.7   0.034524393   0.23830  -0.48532   0.05264  -0.00006

FINAL SINGLE POINT ENERGY     -1406.394510032400

DIPOLE MOMENT
-------------
                                X             Y             Z
Electronic contribution:      0.00011      -0.00012       0.01878
Nuclear contribution   :      0.00001       0.00005      -0.02957
                        -----------------------------------------
Total Dipole Moment    :      0.00012      -0.00007      -0.01080
                        -----------------------------------------
Magnitude (a.u.)       :      0.01080
Magnitude (Debye)      :      0.02744

Rotational constants in cm-1:     0.013982     0.002362     0.002023
Rotational constants in MHz :   419.179379    70.800426    60.635339

                             ****ORCA TERMINATED NORMALLY****
TOTAL RUN TIME: 0 days 7 hours 51 minutes 16 seconds 155 msec
