                         Program Version 5.0.2 -  RELEASE  -
|  1> %maxcore 20000
|  2> %pal
|  3>  nprocs= 4
|  4> end
|  5> ! RI-wPBEPP86   def2-TZVP def2/J def2-TZVP/C RIJCOSX CPCM TightSCF
|  6> %TDDFT
|  7>    NROOTS   30
|  8>    dcorr 1
|  9>    TDA      FALSE
| 10> END
| 11>
| 12> %CPCM
| 13>    SMD          TRUE
| 14>    SMDsolvent   "DICHLOROMETHANE"
| 15> END
| 16>
| 17>
| 18> * xyz 0 1
| 19> C                   1.46464600   -2.41893700   -0.06271400
| 20> C                   0.72641700   -1.24107300   -0.01499900
| 21> C                   1.42205100   -0.00158200    0.00156800
| 22> C                   2.84382300   -0.00301800    0.00068500
| 23> C                   3.54933700   -1.22065000   -0.04191100
| 24> C                   2.85128800   -2.41046100   -0.07903600
| 25> H                   0.95923300   -3.37322000   -0.09116000
| 26> C                   0.72918700    1.23961000    0.01888700
| 27> C                   3.55035700    1.21370400    0.04281100
| 28> H                   3.40455200   -3.33956400   -0.11758900
| 29> C                   2.85603900    2.40537100    0.08161500
| 30> C                   1.46935800    2.41633000    0.06644900
| 31> H                   3.41148400    3.33328100    0.12004100
| 32> H                   0.96535600    3.37133800    0.09545200
| 33> C                  -0.72918900   -1.23962400    0.01882700
| 34> C                  -1.42205000    0.00157300    0.00165600
| 35> C                  -1.46936300   -2.41633800    0.06659300
| 36> C                  -0.72641800    1.24106800   -0.01473900
| 37> C                  -2.84382100    0.00301000    0.00079900
| 38> C                  -2.85604700   -2.40537900    0.08185800
| 39> H                  -0.96536200   -3.37134200    0.09572600
| 40> C                  -1.46464200    2.41895300   -0.06206700
| 41> C                  -3.54932500    1.22065700   -0.04173700
| 42> C                  -3.55037000   -1.21371600    0.04297400
| 43> H                  -3.41148900   -3.33328500    0.12042700
| 44> C                  -2.85128100    2.41047900   -0.07852000
| 45> H                  -0.95922500    3.37324200   -0.09015400
| 46> H                  -3.40455300    3.33958500   -0.11689700
| 47> C                   5.01757000   -1.24515300   -0.04927900
| 48> O                   5.65530900   -2.28354200   -0.09105200
| 49> C                   5.01650500    1.22652800    0.04761100
| 50> O                   5.67372900    2.25332000    0.09285300
| 51> N                   5.66106700   -0.00727100   -0.00462900
| 52> C                  -5.01755500    1.24515000   -0.04943100
| 53> O                  -5.65528800    2.28353000   -0.09150600
| 54> C                  -5.01651700   -1.22652700    0.04780100
| 55> O                  -5.67375700   -2.25329900    0.09321200
| 56> N                  -5.66106400    0.00727200   -0.00477200
| 57> C                   7.11459700    0.02798000   -0.00696600
| 58> H                   7.47294100    0.61119000   -0.85250200
| 59> H                   7.48161400    0.49099800    0.90692800
| 60> H                   7.47983500   -0.98932600   -0.07691200
| 61> C                  -7.11459300   -0.02797600   -0.00736100
| 62> H                  -7.48180000   -0.49059900    0.90665800
| 63> H                  -7.47981200    0.98930300   -0.07779800
| 64> H                  -7.47276200   -0.61154600   -0.85272200
| 65> *
| 66>
| 67>
| 68>                          ****END OF INPUT****

CARTESIAN COORDINATES (ANGSTROEM)
---------------------------------
  C      1.464646   -2.418937   -0.062714
  C      0.726417   -1.241073   -0.014999
  C      1.422051   -0.001582    0.001568
  C      2.843823   -0.003018    0.000685
  C      3.549337   -1.220650   -0.041911
  C      2.851288   -2.410461   -0.079036
  H      0.959233   -3.373220   -0.091160
  C      0.729187    1.239610    0.018887
  C      3.550357    1.213704    0.042811
  H      3.404552   -3.339564   -0.117589
  C      2.856039    2.405371    0.081615
  C      1.469358    2.416330    0.066449
  H      3.411484    3.333281    0.120041
  H      0.965356    3.371338    0.095452
  C     -0.729189   -1.239624    0.018827
  C     -1.422050    0.001573    0.001656
  C     -1.469363   -2.416338    0.066593
  C     -0.726418    1.241068   -0.014739
  C     -2.843821    0.003010    0.000799
  C     -2.856047   -2.405379    0.081858
  H     -0.965362   -3.371342    0.095726
  C     -1.464642    2.418953   -0.062067
  C     -3.549325    1.220657   -0.041737
  C     -3.550370   -1.213716    0.042974
  H     -3.411489   -3.333285    0.120427
  C     -2.851281    2.410479   -0.078520
  H     -0.959225    3.373242   -0.090154
  H     -3.404553    3.339585   -0.116897
  C      5.017570   -1.245153   -0.049279
  O      5.655309   -2.283542   -0.091052
  C      5.016505    1.226528    0.047611
  O      5.673729    2.253320    0.092853
  N      5.661067   -0.007271   -0.004629
  C     -5.017555    1.245150   -0.049431
  O     -5.655288    2.283530   -0.091506
  C     -5.016517   -1.226527    0.047801
  O     -5.673757   -2.253299    0.093212
  N     -5.661064    0.007272   -0.004772
  C      7.114597    0.027980   -0.006966
  H      7.472941    0.611190   -0.852502
  H      7.481614    0.490998    0.906928
  H      7.479835   -0.989326   -0.076912
  C     -7.114593   -0.027976   -0.007361
  H     -7.481800   -0.490599    0.906658
  H     -7.479812    0.989303   -0.077798
  H     -7.472762   -0.611546   -0.852722

 Total Charge           Charge          ....    0
 Multiplicity           Mult            ....    1
 Number of Electrons    NEL             ....  216
 Basis Dimension        Dim             .... 1076

ORBITAL ENERGIES
----------------

  NO   OCC          E(Eh)            E(eV)
   0   2.0000     -20.045083      -545.4544
   1   2.0000     -20.045081      -545.4544
   2   2.0000     -20.045030      -545.4530
   3   2.0000     -20.045030      -545.4530
   4   2.0000     -15.189432      -413.3255
   5   2.0000     -15.189428      -413.3253
   6   2.0000     -11.003948      -299.4326
   7   2.0000     -11.003946      -299.4326
   8   2.0000     -11.001541      -299.3671
   9   2.0000     -11.001540      -299.3671
  10   2.0000     -10.913927      -296.9830
  11   2.0000     -10.913905      -296.9825
  12   2.0000     -10.913268      -296.9651
  13   2.0000     -10.913218      -296.9637
  14   2.0000     -10.909385      -296.8595
  15   2.0000     -10.909383      -296.8594
  16   2.0000     -10.905612      -296.7568
  17   2.0000     -10.905605      -296.7566
  18   2.0000     -10.896155      -296.4995
  19   2.0000     -10.896154      -296.4994
  20   2.0000     -10.895943      -296.4937
  21   2.0000     -10.895939      -296.4936
  22   2.0000     -10.894644      -296.4583
  23   2.0000     -10.894642      -296.4583
  24   2.0000     -10.894615      -296.4575
  25   2.0000     -10.894614      -296.4575
  26   2.0000     -10.887125      -296.2537
  27   2.0000     -10.887123      -296.2537
  28   2.0000     -10.887033      -296.2512
  29   2.0000     -10.887032      -296.2512
  30   2.0000     -10.882577      -296.1300
  31   2.0000     -10.882573      -296.1299
  32   2.0000      -1.338171       -36.4135
  33   2.0000      -1.338170       -36.4135
  34   2.0000      -1.316953       -35.8361
  35   2.0000      -1.316950       -35.8360
  36   2.0000      -1.194123       -32.4937
  37   2.0000      -1.193707       -32.4824
  38   2.0000      -1.167285       -31.7634
  39   2.0000      -1.137991       -30.9663
  40   2.0000      -1.099379       -29.9156
  41   2.0000      -1.077111       -29.3097
  42   2.0000      -1.074510       -29.2389
  43   2.0000      -1.014961       -27.6185
  44   2.0000      -1.007343       -27.4112
  45   2.0000      -0.994172       -27.0528
  46   2.0000      -0.978873       -26.6365
  47   2.0000      -0.951466       -25.8907
  48   2.0000      -0.936477       -25.4828
  49   2.0000      -0.915643       -24.9159
  50   2.0000      -0.899154       -24.4672
  51   2.0000      -0.860183       -23.4068
  52   2.0000      -0.855803       -23.2876
  53   2.0000      -0.845242       -23.0002
  54   2.0000      -0.835290       -22.7294
  55   2.0000      -0.813642       -22.1403
  56   2.0000      -0.808404       -21.9978
  57   2.0000      -0.785832       -21.3836
  58   2.0000      -0.754449       -20.5296
  59   2.0000      -0.727819       -19.8050
  60   2.0000      -0.722564       -19.6620
  61   2.0000      -0.711084       -19.3496
  62   2.0000      -0.698703       -19.0127
  63   2.0000      -0.679905       -18.5012
  64   2.0000      -0.670179       -18.2365
  65   2.0000      -0.653395       -17.7798
  66   2.0000      -0.650408       -17.6985
  67   2.0000      -0.647142       -17.6096
  68   2.0000      -0.644054       -17.5256
  69   2.0000      -0.643551       -17.5119
  70   2.0000      -0.630627       -17.1602
  71   2.0000      -0.616167       -16.7668
  72   2.0000      -0.614396       -16.7186
  73   2.0000      -0.614018       -16.7083
  74   2.0000      -0.600887       -16.3510
  75   2.0000      -0.595066       -16.1926
  76   2.0000      -0.594156       -16.1678
  77   2.0000      -0.586392       -15.9565
  78   2.0000      -0.581750       -15.8302
  79   2.0000      -0.568090       -15.4585
  80   2.0000      -0.559281       -15.2188
  81   2.0000      -0.554762       -15.0958
  82   2.0000      -0.553426       -15.0595
  83   2.0000      -0.550319       -14.9749
  84   2.0000      -0.549622       -14.9560
  85   2.0000      -0.548867       -14.9354
  86   2.0000      -0.535615       -14.5748
  87   2.0000      -0.534731       -14.5508
  88   2.0000      -0.530218       -14.4280
  89   2.0000      -0.528464       -14.3802
  90   2.0000      -0.516559       -14.0563
  91   2.0000      -0.502387       -13.6707
  92   2.0000      -0.497738       -13.5441
  93   2.0000      -0.495455       -13.4820
  94   2.0000      -0.469177       -12.7669
  95   2.0000      -0.458048       -12.4641
  96   2.0000      -0.451734       -12.2923
  97   2.0000      -0.442380       -12.0378
  98   2.0000      -0.439603       -11.9622
  99   2.0000      -0.424368       -11.5476
 100   2.0000      -0.424341       -11.5469
 101   2.0000      -0.404716       -11.0129
 102   2.0000      -0.401661       -10.9298
 103   2.0000      -0.373383       -10.1603
 104   2.0000      -0.371282       -10.1031
 105   2.0000      -0.364309        -9.9134
 106   2.0000      -0.358601        -9.7580
 107   2.0000      -0.288016        -7.8373
 108   0.0000      -0.059156        -1.6097
 109   0.0000       0.021784         0.5928
 110   0.0000       0.025444         0.6924
 111   0.0000       0.039652         1.0790
 112   0.0000       0.069589         1.8936

MULLIKEN ATOMIC CHARGES
-----------------------
   0 C :   -0.234200
   1 C :    0.110191
   2 C :   -0.037983
   3 C :    0.085980
   4 C :    0.037302
   5 C :   -0.176192
   6 H :    0.178986
   7 C :    0.115161
   8 C :    0.034787
   9 H :    0.196016
  10 C :   -0.178034
  11 C :   -0.232528
  12 H :    0.195506
  13 H :    0.179518
  14 C :    0.114061
  15 C :   -0.043361
  16 C :   -0.226536
  17 C :    0.108865
  18 C :    0.089311
  19 C :   -0.185788
  20 H :    0.179604
  21 C :   -0.228804
  22 C :    0.036573
  23 C :    0.040541
  24 H :    0.194165
  25 C :   -0.182686
  26 H :    0.179480
  27 H :    0.195686
  28 C :    0.301151
  29 O :   -0.486932
  30 C :    0.315798
  31 O :   -0.479531
  32 N :   -0.099767
  33 C :    0.304726
  34 O :   -0.486918
  35 C :    0.312438
  36 O :   -0.479825
  37 N :   -0.100584
  38 C :   -0.343211
  39 H :    0.166838
  40 H :    0.167012
  41 H :    0.186138
  42 C :   -0.342786
  43 H :    0.166934
  44 H :    0.186111
  45 H :    0.166785
Sum of atomic charges:   -0.0000000

LOEWDIN ATOMIC CHARGES
----------------------
   0 C :   -0.074868
   1 C :   -0.034025
   2 C :   -0.002423
   3 C :   -0.013991
   4 C :   -0.082924
   5 C :   -0.048847
   6 H :    0.166466
   7 C :   -0.034114
   8 C :   -0.083678
   9 H :    0.171937
  10 C :   -0.048784
  11 C :   -0.074688
  12 H :    0.171907
  13 H :    0.166466
  14 C :   -0.034109
  15 C :   -0.002434
  16 C :   -0.074680
  17 C :   -0.034026
  18 C :   -0.013980
  19 C :   -0.048791
  20 H :    0.166469
  21 C :   -0.074869
  22 C :   -0.082930
  23 C :   -0.083664
  24 H :    0.171904
  25 C :   -0.048852
  26 H :    0.166465
  27 H :    0.171940
  28 C :   -0.306260
  29 O :    0.034469
  30 C :   -0.306863
  31 O :    0.040642
  32 N :    0.227216
  33 C :   -0.306263
  34 O :    0.034472
  35 C :   -0.306890
  36 O :    0.040660
  37 N :    0.227211
  38 C :   -0.254912
  39 H :    0.127532
  40 H :    0.127280
  41 H :    0.132465
  42 C :   -0.254913
  43 H :    0.127277
  44 H :    0.132465
  45 H :    0.127534

  Mayer bond orders larger than 0.100000
B(  0-C ,  1-C ) :   1.4526 B(  0-C ,  5-C ) :   1.2868 B(  0-C ,  6-H ) :   0.9694
B(  1-C ,  2-C ) :   1.2678 B(  1-C , 14-C ) :   1.0650 B(  2-C ,  3-C ) :   1.3476
B(  2-C ,  7-C ) :   1.2622 B(  3-C ,  4-C ) :   1.2964 B(  3-C ,  8-C ) :   1.2852
B(  4-C ,  5-C ) :   1.4279 B(  4-C , 28-C ) :   0.9743 B(  4-C , 29-O ) :  -0.1341
B(  5-C ,  9-H ) :   0.9683 B(  7-C , 11-C ) :   1.4507 B(  7-C , 17-C ) :   1.0645
B(  8-C , 10-C ) :   1.4210 B(  8-C , 30-C ) :   0.9837 B(  8-C , 31-O ) :  -0.1323
B( 10-C , 11-C ) :   1.2881 B( 10-C , 12-H ) :   0.9706 B( 11-C , 13-H ) :   0.9692
B( 14-C , 15-C ) :   1.2676 B( 14-C , 16-C ) :   1.4518 B( 15-C , 17-C ) :   1.2695
B( 15-C , 18-C ) :   1.3481 B( 16-C , 19-C ) :   1.2812 B( 16-C , 20-H ) :   0.9689
B( 17-C , 21-C ) :   1.4518 B( 18-C , 22-C ) :   1.2946 B( 18-C , 23-C ) :   1.2755
B( 19-C , 23-C ) :   1.4256 B( 19-C , 24-H ) :   0.9724 B( 21-C , 25-C ) :   1.2829
B( 21-C , 26-H ) :   0.9692 B( 22-C , 25-C ) :   1.4232 B( 22-C , 33-C ) :   0.9761
B( 22-C , 34-O ) :  -0.1341 B( 23-C , 35-C ) :   0.9842 B( 23-C , 36-O ) :  -0.1341
B( 25-C , 27-H ) :   0.9715 B( 28-C , 29-O ) :   1.9769 B( 28-C , 32-N ) :   1.1992
B( 30-C , 31-O ) :   1.9819 B( 30-C , 32-N ) :   1.1786 B( 32-N , 38-C ) :   0.8700
B( 33-C , 34-O ) :   1.9765 B( 33-C , 37-N ) :   1.1993 B( 35-C , 36-O ) :   1.9835
B( 35-C , 37-N ) :   1.1785 B( 37-N , 42-C ) :   0.8712 B( 38-C , 39-H ) :   0.9679
B( 38-C , 40-H ) :   0.9688 B( 38-C , 41-H ) :   0.9575 B( 42-C , 43-H ) :   0.9688
B( 42-C , 44-H ) :   0.9574 B( 42-C , 45-H ) :   0.9678

MP2 TOTAL ENERGY:    -1409.211164883 Eh

-----------------------------------------------------------------------------
         ABSORPTION SPECTRUM VIA TRANSITION ELECTRIC DIPOLE MOMENTS
-----------------------------------------------------------------------------
State   Energy    Wavelength  fosc         T2        TX        TY        TZ
        (cm-1)      (nm)                 (au**2)    (au)      (au)      (au)
-----------------------------------------------------------------------------
   1   20218.2    494.6   1.023433141  16.66448   4.08221  -0.00458  -0.00011
   2   28385.5    352.3   0.000104352   0.00121   0.00000  -0.00007  -0.03479
   3   31396.5    318.5   0.000150196   0.00157  -0.00001  -0.00008   0.03968
   4   29913.8    334.3   0.205808705   2.26500  -0.00027   1.50499   0.00008
   5   33114.4    302.0   0.000000452   0.00000  -0.00000   0.00008  -0.00212
   6   35566.7    281.2   0.000569561   0.00527   0.00006   0.00003  -0.07261
   7   31992.7    312.6   0.000024985   0.00026  -0.00000   0.00005  -0.01603
   8   33232.6    300.9   0.000004599   0.00005   0.00407  -0.00241  -0.00482
   9   33215.1    301.1   0.000341458   0.00338   0.00034  -0.00024   0.05817
  10   33106.2    302.1   0.000000260   0.00000  -0.00002  -0.00001  -0.00161
  11   36499.7    274.0   0.000047282   0.00043   0.01129   0.01729   0.00002
  12   36737.6    272.2   0.000000470   0.00000   0.00003   0.00016   0.00205
  13   38653.3    258.7   0.115166273   0.98088   0.00468   0.99038   0.00010
  14   41325.6    242.0   1.450347848  11.55390  -0.03756   3.39890   0.00003
  15   37144.4    269.2   0.000700246   0.00621   0.00013  -0.00228  -0.07875
  16   43240.2    231.3   0.009973927   0.07594   0.24225   0.13134   0.00016
  17   43325.8    230.8   0.036748151   0.27923   0.01705   0.52815  -0.00014
  18   47830.1    209.1   0.345536641   2.37831  -1.54149  -0.04588  -0.00014
  19   46184.8    216.5   0.003228926   0.02302   0.14028   0.05777   0.00020
  20   44876.4    222.8   0.000000004   0.00000   0.00011  -0.00001  -0.00013
  21   43941.2    227.6   0.003796151   0.02844  -0.00134   0.16864  -0.00000
  22   50285.3    198.9   0.000000083   0.00000   0.00011   0.00000  -0.00073
  23   44557.7    224.4   0.032979658   0.24367   0.15677   0.46807   0.00005
  24   47169.0    212.0   2.366369035  16.51588   4.06397  -0.00812  -0.00009
  25   45747.6    218.6   0.293155972   2.10963   0.02049   1.45231  -0.00003
  26   45985.2    217.5   0.004317077   0.03091   0.17552  -0.00988   0.00002
  27   47151.4    212.1   0.000367112   0.00256  -0.00005  -0.00017   0.05063
  28   48648.0    205.6   0.005668641   0.03836   0.19414   0.02588   0.00001
  29   46633.2    214.4   0.022184629   0.15661  -0.00886   0.39565  -0.00006
  30   50522.5    197.9   0.000047382   0.00031   0.00002  -0.00053  -0.01756

FINAL SINGLE POINT ENERGY     -1406.365677730423

DIPOLE MOMENT
-------------
                                X             Y             Z
Electronic contribution:      0.00012      -0.00012       0.01894
Nuclear contribution   :      0.00001       0.00005      -0.02957
                        -----------------------------------------
Total Dipole Moment    :      0.00013      -0.00007      -0.01063
                        -----------------------------------------
Magnitude (a.u.)       :      0.01063
Magnitude (Debye)      :      0.02703

Rotational constants in cm-1:     0.013982     0.002362     0.002023
Rotational constants in MHz :   419.179379    70.800426    60.635339

                             ****ORCA TERMINATED NORMALLY****
TOTAL RUN TIME: 1 days 6 hours 36 minutes 57 seconds 116 msec
