                         Program Version 5.0.2 -  RELEASE  -
|  1> %maxcore 3200
|  2> %pal
|  3>  nprocs= 8
|  4> end
|  5> ! RI-wB2PLYP def2-TZVP def2/J def2-TZVP/C RIJCOSX CPCM TightSCF
|  6> %TDDFT DCORR 1
|  7>    NROOTS   30
|  8>
|  9>    TDA      FALSE
| 10> END
| 11>
| 12> %CPCM
| 13>    SMD          TRUE
| 14>    SMDsolvent   "DICHLOROMETHANE"
| 15> END
| 16>
| 17>
| 18> * xyz 0 1
| 19> C                   2.25498900   -1.41242200    0.83088600
| 20> C                   1.22611500   -0.69583000    0.21135600
| 21> C                   0.00493300   -1.39792800   -0.00562900
| 22> C                   0.01042000   -2.81251500   -0.00659100
| 23> C                   1.12129500   -3.50904100    0.49256700
| 24> C                   2.17569300   -2.79665900    1.00688800
| 25> C                  -1.22133800   -0.70463000   -0.22082200
| 26> C                  -1.09477100   -3.51816200   -0.50590000
| 27> H                   2.96257300   -3.32666300    1.52829200
| 28> C                  -2.15492100   -2.81201700   -1.01771800
| 29> C                  -2.24538800   -1.42879600   -0.83973100
| 30> H                  -2.93782600   -3.34711400   -1.53962200
| 31> C                   1.22134000    0.70485900   -0.22081400
| 32> C                  -0.00493400    1.39815700   -0.00563500
| 33> C                   2.24539800    1.42902200   -0.83971600
| 34> C                  -1.22611800    0.69606200    0.21134400
| 35> C                  -0.01042000    2.81274600   -0.00660000
| 36> C                   2.15494600    2.81224700   -1.01768100
| 37> C                  -2.25499800    1.41265500    0.83086800
| 38> C                  -1.12130800    3.50927300    0.49253300
| 39> C                   1.09478900    3.51839200   -0.50587800
| 40> H                   2.93785100    3.34734000   -1.53958700
| 41> C                  -2.17571000    2.79689600    1.00684900
| 42> H                  -2.96258000    3.32690100    1.52826500
| 43> C                   1.12759000   -4.97842900    0.53013600
| 44> O                   2.04941900   -5.62115000    0.99625400
| 45> C                  -1.09771900   -4.98966800   -0.54948300
| 46> O                  -2.02439300   -5.62127600   -1.01959000
| 47> N                   0.02016100   -5.62649100   -0.01042800
| 48> C                  -1.12758100    4.97866000    0.53014300
| 49> O                  -2.04937800    5.62138200    0.99632400
| 50> C                   1.09772300    4.98989500   -0.54949400
| 51> O                   2.02439400    5.62150300   -1.01960700
| 52> N                  -0.02016900    5.62671900   -0.01046200
| 53> C                   0.05875300   -7.08120700    0.00462200
| 54> H                   0.93046300   -7.43603900   -0.54064000
| 55> H                  -0.84583600   -7.45113700   -0.46211400
| 56> H                   0.12270800   -7.44276900    1.02872300
| 57> C                  -0.05876300    7.08143700    0.00456800
| 58> H                  -0.93068900    7.43623500   -0.54036600
| 59> H                   0.84564600    7.45136100   -0.46252200
| 60> H                  -0.12232200    7.44304300    1.02868000
| 61> S                   3.57178500    0.67502400   -1.76927100
| 62> S                   3.57170700   -0.64788600    1.76482300
| 63> S                  -3.57184100   -0.67481800   -1.76919200
| 64> S                  -3.57163700    0.64809900    1.76491400
| 65> O                  -3.50346600    0.75725100   -1.63144600
| 66> O                  -3.43718700   -1.23408600   -3.09309800
| 67> O                  -3.42871100    1.19738700    3.09213100
| 68> O                  -3.50108900   -0.78278700    1.61644500
| 69> O                   3.50137700    0.78298600    1.61611400
| 70> O                   3.42871900   -1.19691300    3.09214100
| 71> O                   3.50319700   -0.75705700   -1.63176500
| 72> O                   3.43720800    1.23454900   -3.09307700
| 73> C                  -5.13413300    1.22191400    1.14923300
| 74> C                  -6.23966500    0.60898000    1.73510100
| 75> C                  -5.28958100    2.25418700    0.23580100
| 76> C                  -7.51011300    1.04479900    1.40353600
| 77> H                  -6.10364100   -0.19802900    2.44463300
| 78> C                  -6.56999900    2.67894300   -0.08861500
| 79> H                  -4.43467800    2.71571800   -0.23605800
| 80> C                  -7.67625300    2.08132800    0.49458800
| 81> H                  -8.37165500    0.56950400    1.85453100
| 82> H                  -6.69689900    3.48200900   -0.80284000
| 83> H                  -8.67184300    2.41976500    0.23745800
| 84> C                  -5.12970600   -1.24439500   -1.13843000
| 85> C                  -6.23862800   -0.61295700   -1.69725600
| 86> C                  -5.27988200   -2.29194200   -0.24166200
| 87> C                  -7.50748600   -1.04688700   -1.35697200
| 88> H                  -6.10615800    0.20757700   -2.39169900
| 89> C                  -6.55852200   -2.71390400    0.09269500
| 90> H                  -4.42193700   -2.76687300    0.21117100
| 91> C                  -7.66845100   -2.09884800   -0.46506800
| 92> H                  -8.37178400   -0.55767200   -1.78735000
| 93> H                  -6.68129400   -3.52827000    0.79471800
| 94> H                  -8.66279100   -2.43531500   -0.20060000
| 95> C                   5.13408300   -1.22211700    1.14920400
| 96> C                   6.23975600   -0.60974300    1.73539600
| 97> C                   5.28929300   -2.25413500    0.23544200
| 98> C                   7.51009700   -1.04586100    1.40381800
| 99> H                   6.10392700    0.19706700    2.44519500
|100> C                   6.56960900   -2.67921600   -0.08895800
|101> H                   4.43429000   -2.71520700   -0.23668300
|102> C                   7.67599600   -2.08215300    0.49455500
|103> H                   8.37174600   -0.57098800    1.85505300
|104> H                   6.69632200   -3.48209600   -0.80342600
|105> H                   8.67150300   -2.42083700    0.23742600
|106> C                   5.12975200    1.24420000   -1.13842000
|107> C                   6.23854400    0.61224000   -1.69690600
|108> C                   5.28013400    2.29198500   -0.24196800
|109> C                   7.50749300    1.04589300   -1.35660000
|110> H                   6.10590000   -0.20848900   -2.39108400
|111> C                   6.55885700    2.71365200    0.09243200
|112> H                   4.42227100    2.76732600    0.21059300
|113> C                   7.66866600    2.09807900   -0.46500200
|114> H                   8.37169600    0.55628000   -1.78671600
|115> H                   6.68179200    3.52819500    0.79422100
|116> H                   8.66307700    2.43431900   -0.20050800
|117> *
|118>
|119>
|120>                          ****END OF INPUT****

CARTESIAN COORDINATES (ANGSTROEM)
---------------------------------
  C      2.254989   -1.412422    0.830886
  C      1.226115   -0.695830    0.211356
  C      0.004933   -1.397928   -0.005629
  C      0.010420   -2.812515   -0.006591
  C      1.121295   -3.509041    0.492567
  C      2.175693   -2.796659    1.006888
  C     -1.221338   -0.704630   -0.220822
  C     -1.094771   -3.518162   -0.505900
  H      2.962573   -3.326663    1.528292
  C     -2.154921   -2.812017   -1.017718
  C     -2.245388   -1.428796   -0.839731
  H     -2.937826   -3.347114   -1.539622
  C      1.221340    0.704859   -0.220814
  C     -0.004934    1.398157   -0.005635
  C      2.245398    1.429022   -0.839716
  C     -1.226118    0.696062    0.211344
  C     -0.010420    2.812746   -0.006600
  C      2.154946    2.812247   -1.017681
  C     -2.254998    1.412655    0.830868
  C     -1.121308    3.509273    0.492533
  C      1.094789    3.518392   -0.505878
  H      2.937851    3.347340   -1.539587
  C     -2.175710    2.796896    1.006849
  H     -2.962580    3.326901    1.528265
  C      1.127590   -4.978429    0.530136
  O      2.049419   -5.621150    0.996254
  C     -1.097719   -4.989668   -0.549483
  O     -2.024393   -5.621276   -1.019590
  N      0.020161   -5.626491   -0.010428
  C     -1.127581    4.978660    0.530143
  O     -2.049378    5.621382    0.996324
  C      1.097723    4.989895   -0.549494
  O      2.024394    5.621503   -1.019607
  N     -0.020169    5.626719   -0.010462
  C      0.058753   -7.081207    0.004622
  H      0.930463   -7.436039   -0.540640
  H     -0.845836   -7.451137   -0.462114
  H      0.122708   -7.442769    1.028723
  C     -0.058763    7.081437    0.004568
  H     -0.930689    7.436235   -0.540366
  H      0.845646    7.451361   -0.462522
  H     -0.122322    7.443043    1.028680
  S      3.571785    0.675024   -1.769271
  S      3.571707   -0.647886    1.764823
  S     -3.571841   -0.674818   -1.769192
  S     -3.571637    0.648099    1.764914
  O     -3.503466    0.757251   -1.631446
  O     -3.437187   -1.234086   -3.093098
  O     -3.428711    1.197387    3.092131
  O     -3.501089   -0.782787    1.616445
  O      3.501377    0.782986    1.616114
  O      3.428719   -1.196913    3.092141
  O      3.503197   -0.757057   -1.631765
  O      3.437208    1.234549   -3.093077
  C     -5.134133    1.221914    1.149233
  C     -6.239665    0.608980    1.735101
  C     -5.289581    2.254187    0.235801
  C     -7.510113    1.044799    1.403536
  H     -6.103641   -0.198029    2.444633
  C     -6.569999    2.678943   -0.088615
  H     -4.434678    2.715718   -0.236058
  C     -7.676253    2.081328    0.494588
  H     -8.371655    0.569504    1.854531
  H     -6.696899    3.482009   -0.802840
  H     -8.671843    2.419765    0.237458
  C     -5.129706   -1.244395   -1.138430
  C     -6.238628   -0.612957   -1.697256
  C     -5.279882   -2.291942   -0.241662
  C     -7.507486   -1.046887   -1.356972
  H     -6.106158    0.207577   -2.391699
  C     -6.558522   -2.713904    0.092695
  H     -4.421937   -2.766873    0.211171
  C     -7.668451   -2.098848   -0.465068
  H     -8.371784   -0.557672   -1.787350
  H     -6.681294   -3.528270    0.794718
  H     -8.662791   -2.435315   -0.200600
  C      5.134083   -1.222117    1.149204
  C      6.239756   -0.609743    1.735396
  C      5.289293   -2.254135    0.235442
  C      7.510097   -1.045861    1.403818
  H      6.103927    0.197067    2.445195
  C      6.569609   -2.679216   -0.088958
  H      4.434290   -2.715207   -0.236683
  C      7.675996   -2.082153    0.494555
  H      8.371746   -0.570988    1.855053
  H      6.696322   -3.482096   -0.803426
  H      8.671503   -2.420837    0.237426
  C      5.129752    1.244200   -1.138420
  C      6.238544    0.612240   -1.696906
  C      5.280134    2.291985   -0.241968
  C      7.507493    1.045893   -1.356600
  H      6.105900   -0.208489   -2.391084
  C      6.558857    2.713652    0.092432
  H      4.422271    2.767326    0.210593
  C      7.668666    2.098079   -0.465002
  H      8.371696    0.556280   -1.786716
  H      6.681792    3.528195    0.794221
  H      8.663077    2.434319   -0.200508

 Total Charge           Charge          ....    0
 Multiplicity           Mult            ....    1
 Number of Electrons    NEL             ....  504
 Basis Dimension        Dim             .... 2312

ORBITAL ENERGIES
----------------

  NO   OCC          E(Eh)            E(eV)
   0   2.0000     -90.442302     -2461.0601
   1   2.0000     -90.442300     -2461.0601
   2   2.0000     -90.442226     -2461.0581
   3   2.0000     -90.442224     -2461.0580
   4   2.0000     -19.802952      -538.8657
   5   2.0000     -19.802951      -538.8657
   6   2.0000     -19.802915      -538.8647
   7   2.0000     -19.802915      -538.8647
   8   2.0000     -19.797805      -538.7257
   9   2.0000     -19.797803      -538.7256
  10   2.0000     -19.797758      -538.7244
  11   2.0000     -19.797758      -538.7244
  12   2.0000     -19.795032      -538.6502
  13   2.0000     -19.795031      -538.6502
  14   2.0000     -19.795031      -538.6502
  15   2.0000     -19.795030      -538.6502
  16   2.0000     -14.974464      -407.4759
  17   2.0000     -14.974463      -407.4758
  18   2.0000     -10.834780      -294.8293
  19   2.0000     -10.834779      -294.8293
  20   2.0000     -10.832444      -294.7658
  21   2.0000     -10.832444      -294.7658
  22   2.0000     -10.772831      -293.1436
  23   2.0000     -10.772819      -293.1433
  24   2.0000     -10.772293      -293.1290
  25   2.0000     -10.772278      -293.1286
  26   2.0000     -10.759442      -292.7793
  27   2.0000     -10.759441      -292.7793
  28   2.0000     -10.759415      -292.7786
  29   2.0000     -10.759413      -292.7785
  30   2.0000     -10.749524      -292.5094
  31   2.0000     -10.749517      -292.5092
  32   2.0000     -10.748685      -292.4866
  33   2.0000     -10.748682      -292.4865
  34   2.0000     -10.738971      -292.2223
  35   2.0000     -10.738968      -292.2222
  36   2.0000     -10.738836      -292.2186
  37   2.0000     -10.738833      -292.2185
  38   2.0000     -10.734123      -292.0903
  39   2.0000     -10.734122      -292.0903
  40   2.0000     -10.733907      -292.0844
  41   2.0000     -10.733905      -292.0844
  42   2.0000     -10.730840      -292.0010
  43   2.0000     -10.730837      -292.0009
  44   2.0000     -10.730640      -291.9956
  45   2.0000     -10.730636      -291.9954
  46   2.0000     -10.709859      -291.4301
  47   2.0000     -10.709858      -291.4301
  48   2.0000     -10.709792      -291.4283
  49   2.0000     -10.709791      -291.4282
  50   2.0000     -10.709583      -291.4226
  51   2.0000     -10.709580      -291.4225
  52   2.0000     -10.709402      -291.4177
  53   2.0000     -10.709399      -291.4176
  54   2.0000     -10.709212      -291.4125
  55   2.0000     -10.709212      -291.4125
  56   2.0000     -10.700488      -291.1751
  57   2.0000     -10.700486      -291.1750
  58   2.0000     -10.700404      -291.1728
  59   2.0000     -10.700402      -291.1728
  60   2.0000     -10.697608      -291.0967
  61   2.0000     -10.697606      -291.0966
  62   2.0000     -10.697466      -291.0928
  63   2.0000     -10.697463      -291.0928
  64   2.0000     -10.697233      -291.0865
  65   2.0000     -10.697232      -291.0865
  66   2.0000     -10.697148      -291.0842
  67   2.0000     -10.697146      -291.0841
  68   2.0000      -8.622965      -234.6428
  69   2.0000      -8.622964      -234.6428
  70   2.0000      -8.622889      -234.6407
  71   2.0000      -8.622887      -234.6407
  72   2.0000      -6.471623      -176.1018
  73   2.0000      -6.471621      -176.1018
  74   2.0000      -6.471534      -176.0994
  75   2.0000      -6.471532      -176.0994
  76   2.0000      -6.470350      -176.0672
  77   2.0000      -6.470348      -176.0671
  78   2.0000      -6.470285      -176.0654
  79   2.0000      -6.470284      -176.0654
  80   2.0000      -6.469964      -176.0567
  81   2.0000      -6.469963      -176.0566
  82   2.0000      -6.469888      -176.0546
  83   2.0000      -6.469886      -176.0546
  84   2.0000      -1.357164       -36.9303
  85   2.0000      -1.357135       -36.9295
  86   2.0000      -1.354758       -36.8648
  87   2.0000      -1.354756       -36.8648
  88   2.0000      -1.310451       -35.6592
  89   2.0000      -1.310448       -35.6591
  90   2.0000      -1.289633       -35.0927
  91   2.0000      -1.289633       -35.0927
  92   2.0000      -1.241945       -33.7950
  93   2.0000      -1.241927       -33.7946
  94   2.0000      -1.240813       -33.7642
  95   2.0000      -1.240803       -33.7640
  96   2.0000      -1.175178       -31.9782
  97   2.0000      -1.171997       -31.8917
  98   2.0000      -1.163908       -31.6715
  99   2.0000      -1.135330       -30.8939
 100   2.0000      -1.102391       -29.9976
 101   2.0000      -1.090641       -29.6778
 102   2.0000      -1.089915       -29.6581
 103   2.0000      -1.088969       -29.6323
 104   2.0000      -1.086602       -29.5679
 105   2.0000      -1.079879       -29.3850
 106   2.0000      -1.074555       -29.2401
 107   2.0000      -1.022850       -27.8332
 108   2.0000      -1.014462       -27.6049
 109   2.0000      -1.005694       -27.3663
 110   2.0000      -0.996500       -27.1161
 111   2.0000      -0.983932       -26.7741
 112   2.0000      -0.982276       -26.7291
 113   2.0000      -0.974586       -26.5198
 114   2.0000      -0.970990       -26.4220
 115   2.0000      -0.962658       -26.1953
 116   2.0000      -0.958062       -26.0702
 117   2.0000      -0.957495       -26.0548
 118   2.0000      -0.957330       -26.0503
 119   2.0000      -0.956649       -26.0318
 120   2.0000      -0.928579       -25.2679
 121   2.0000      -0.920737       -25.0545
 122   2.0000      -0.910397       -24.7732
 123   2.0000      -0.882627       -24.0175
 124   2.0000      -0.874797       -23.8044
 125   2.0000      -0.870854       -23.6971
 126   2.0000      -0.867969       -23.6186
 127   2.0000      -0.861987       -23.4558
 128   2.0000      -0.845657       -23.0115
 129   2.0000      -0.838454       -22.8155
 130   2.0000      -0.825319       -22.4581
 131   2.0000      -0.818407       -22.2700
 132   2.0000      -0.817125       -22.2351
 133   2.0000      -0.795387       -21.6436
 134   2.0000      -0.794906       -21.6305
 135   2.0000      -0.793372       -21.5888
 136   2.0000      -0.790561       -21.5122
 137   2.0000      -0.790211       -21.5027
 138   2.0000      -0.776423       -21.1275
 139   2.0000      -0.773103       -21.0372
 140   2.0000      -0.768855       -20.9216
 141   2.0000      -0.757623       -20.6160
 142   2.0000      -0.747733       -20.3468
 143   2.0000      -0.730519       -19.8784
 144   2.0000      -0.729870       -19.8608
 145   2.0000      -0.715827       -19.4786
 146   2.0000      -0.711692       -19.3661
 147   2.0000      -0.708745       -19.2859
 148   2.0000      -0.707020       -19.2390
 149   2.0000      -0.699563       -19.0361
 150   2.0000      -0.694570       -18.9002
 151   2.0000      -0.690864       -18.7994
 152   2.0000      -0.668414       -18.1885
 153   2.0000      -0.667602       -18.1664
 154   2.0000      -0.667214       -18.1558
 155   2.0000      -0.656154       -17.8548
 156   2.0000      -0.649785       -17.6816
 157   2.0000      -0.649485       -17.6734
 158   2.0000      -0.646956       -17.6046
 159   2.0000      -0.645840       -17.5742
 160   2.0000      -0.645539       -17.5660
 161   2.0000      -0.641735       -17.4625
 162   2.0000      -0.641553       -17.4575
 163   2.0000      -0.640295       -17.4233
 164   2.0000      -0.633425       -17.2364
 165   2.0000      -0.631159       -17.1747
 166   2.0000      -0.628572       -17.1043
 167   2.0000      -0.622506       -16.9392
 168   2.0000      -0.622017       -16.9259
 169   2.0000      -0.620693       -16.8899
 170   2.0000      -0.618093       -16.8192
 171   2.0000      -0.616920       -16.7872
 172   2.0000      -0.614266       -16.7150
 173   2.0000      -0.612455       -16.6657
 174   2.0000      -0.611436       -16.6380
 175   2.0000      -0.611182       -16.6311
 176   2.0000      -0.604606       -16.4522
 177   2.0000      -0.604333       -16.4447
 178   2.0000      -0.601008       -16.3543
 179   2.0000      -0.597201       -16.2507
 180   2.0000      -0.596327       -16.2269
 181   2.0000      -0.595659       -16.2087
 182   2.0000      -0.590062       -16.0564
 183   2.0000      -0.588537       -16.0149
 184   2.0000      -0.588050       -16.0016
 185   2.0000      -0.586365       -15.9558
 186   2.0000      -0.579622       -15.7723
 187   2.0000      -0.575359       -15.6563
 188   2.0000      -0.573956       -15.6181
 189   2.0000      -0.573640       -15.6095
 190   2.0000      -0.573079       -15.5943
 191   2.0000      -0.566944       -15.4273
 192   2.0000      -0.564230       -15.3535
 193   2.0000      -0.555852       -15.1255
 194   2.0000      -0.551699       -15.0125
 195   2.0000      -0.551438       -15.0054
 196   2.0000      -0.548334       -14.9209
 197   2.0000      -0.538257       -14.6467
 198   2.0000      -0.534052       -14.5323
 199   2.0000      -0.529809       -14.4168
 200   2.0000      -0.527318       -14.3491
 201   2.0000      -0.526845       -14.3362
 202   2.0000      -0.525791       -14.3075
 203   2.0000      -0.523564       -14.2469
 204   2.0000      -0.522217       -14.2102
 205   2.0000      -0.519752       -14.1432
 206   2.0000      -0.519066       -14.1245
 207   2.0000      -0.518224       -14.1016
 208   2.0000      -0.510066       -13.8796
 209   2.0000      -0.508623       -13.8403
 210   2.0000      -0.504263       -13.7217
 211   2.0000      -0.503967       -13.7136
 212   2.0000      -0.490957       -13.3596
 213   2.0000      -0.490134       -13.3372
 214   2.0000      -0.487718       -13.2715
 215   2.0000      -0.487683       -13.2705
 216   2.0000      -0.486929       -13.2500
 217   2.0000      -0.486589       -13.2408
 218   2.0000      -0.486163       -13.2292
 219   2.0000      -0.483786       -13.1645
 220   2.0000      -0.481463       -13.1013
 221   2.0000      -0.479894       -13.0586
 222   2.0000      -0.479425       -13.0458
 223   2.0000      -0.477784       -13.0012
 224   2.0000      -0.472735       -12.8638
 225   2.0000      -0.463942       -12.6245
 226   2.0000      -0.461916       -12.5694
 227   2.0000      -0.454251       -12.3608
 228   2.0000      -0.453543       -12.3415
 229   2.0000      -0.448013       -12.1911
 230   2.0000      -0.446823       -12.1587
 231   2.0000      -0.439824       -11.9682
 232   2.0000      -0.436475       -11.8771
 233   2.0000      -0.434849       -11.8328
 234   2.0000      -0.431654       -11.7459
 235   2.0000      -0.424047       -11.5389
 236   2.0000      -0.423958       -11.5365
 237   2.0000      -0.407028       -11.0758
 238   2.0000      -0.403435       -10.9780
 239   2.0000      -0.387190       -10.5360
 240   2.0000      -0.378757       -10.3065
 241   2.0000      -0.375918       -10.2292
 242   2.0000      -0.375725       -10.2240
 243   2.0000      -0.374756       -10.1976
 244   2.0000      -0.370676       -10.0866
 245   2.0000      -0.367036        -9.9876
 246   2.0000      -0.366286        -9.9671
 247   2.0000      -0.358714        -9.7611
 248   2.0000      -0.358315        -9.7503
 249   2.0000      -0.355520        -9.6742
 250   2.0000      -0.355436        -9.6719
 251   2.0000      -0.317546        -8.6409
 252   0.0000      -0.073493        -1.9998
 253   0.0000       0.001479         0.0403
 254   0.0000       0.010655         0.2899
 255   0.0000       0.023271         0.6332
 256   0.0000       0.030590         0.8324

MULLIKEN ATOMIC CHARGES
-----------------------
   0 C :   -0.111537
   1 C :    0.189653
   2 C :   -0.027639
   3 C :    0.120519
   4 C :    0.063418
   5 C :   -0.295140
   6 C :    0.189445
   7 C :    0.063026
   8 H :    0.233887
   9 C :   -0.292811
  10 C :   -0.113305
  11 H :    0.234897
  12 C :    0.190016
  13 C :   -0.028210
  14 C :   -0.110622
  15 C :    0.192893
  16 C :    0.119382
  17 C :   -0.294190
  18 C :   -0.111245
  19 C :    0.063592
  20 C :    0.062489
  21 H :    0.234714
  22 C :   -0.295670
  23 H :    0.233879
  24 C :    0.277182
  25 O :   -0.416303
  26 C :    0.267961
  27 O :   -0.422044
  28 N :   -0.107271
  29 C :    0.278125
  30 O :   -0.416302
  31 C :    0.269164
  32 O :   -0.421959
  33 N :   -0.107522
  34 C :   -0.330422
  35 H :    0.164776
  36 H :    0.180372
  37 H :    0.164919
  38 C :   -0.330376
  39 H :    0.164774
  40 H :    0.180375
  41 H :    0.164918
  42 S :    0.939853
  43 S :    0.938820
  44 S :    0.939474
  45 S :    0.938880
  46 O :   -0.548980
  47 O :   -0.531508
  48 O :   -0.531614
  49 O :   -0.547877
  50 O :   -0.547837
  51 O :   -0.531601
  52 O :   -0.549065
  53 O :   -0.531501
  54 C :    0.053678
  55 C :   -0.242628
  56 C :   -0.109589
  57 C :   -0.183596
  58 H :    0.187973
  59 C :   -0.210177
  60 H :    0.215491
  61 C :   -0.135215
  62 H :    0.182127
  63 H :    0.181085
  64 H :    0.183368
  65 C :    0.047534
  66 C :   -0.236632
  67 C :   -0.108158
  68 C :   -0.184536
  69 H :    0.188725
  70 C :   -0.210763
  71 H :    0.215936
  72 C :   -0.135839
  73 H :    0.182130
  74 H :    0.181379
  75 H :    0.183253
  76 C :    0.053579
  77 C :   -0.242690
  78 C :   -0.109366
  79 C :   -0.183545
  80 H :    0.187979
  81 C :   -0.210309
  82 H :    0.215487
  83 C :   -0.135247
  84 H :    0.182149
  85 H :    0.181073
  86 H :    0.183364
  87 C :    0.047955
  88 C :   -0.236331
  89 C :   -0.108638
  90 C :   -0.184543
  91 H :    0.188739
  92 C :   -0.210834
  93 H :    0.215887
  94 C :   -0.135867
  95 H :    0.182123
  96 H :    0.181377
  97 H :    0.183257
Sum of atomic charges:   -0.0000000

LOEWDIN ATOMIC CHARGES
----------------------
   0 C :   -0.199612
   1 C :   -0.000778
   2 C :    0.019131
   3 C :    0.006396
   4 C :   -0.061723
   5 C :   -0.036505
   6 C :   -0.000802
   7 C :   -0.060945
   8 H :    0.180124
   9 C :   -0.036913
  10 C :   -0.199376
  11 H :    0.179943
  12 C :   -0.000803
  13 C :    0.019128
  14 C :   -0.199369
  15 C :   -0.000775
  16 C :    0.006395
  17 C :   -0.036920
  18 C :   -0.199608
  19 C :   -0.061723
  20 C :   -0.060945
  21 H :    0.179940
  22 C :   -0.036511
  23 H :    0.180121
  24 C :   -0.305072
  25 O :    0.066586
  26 C :   -0.304457
  27 O :    0.060729
  28 N :    0.234223
  29 C :   -0.305069
  30 O :    0.066585
  31 C :   -0.304457
  32 O :    0.060732
  33 N :    0.234224
  34 C :   -0.250710
  35 H :    0.128203
  36 H :    0.132636
  37 H :    0.128061
  38 C :   -0.250710
  39 H :    0.128205
  40 H :    0.132636
  41 H :    0.128059
  42 S :    0.839287
  43 S :    0.839143
  44 S :    0.839282
  45 S :    0.839146
  46 O :   -0.284336
  47 O :   -0.310929
  48 O :   -0.310836
  49 O :   -0.283811
  50 O :   -0.283800
  51 O :   -0.310835
  52 O :   -0.284347
  53 O :   -0.310931
  54 C :   -0.270400
  55 C :   -0.116820
  56 C :   -0.119337
  57 C :   -0.129790
  58 H :    0.163562
  59 C :   -0.132961
  60 H :    0.163210
  61 C :   -0.118211
  62 H :    0.159177
  63 H :    0.159315
  64 H :    0.158809
  65 C :   -0.270840
  66 C :   -0.116611
  67 C :   -0.119308
  68 C :   -0.129830
  69 H :    0.163501
  70 C :   -0.133225
  71 H :    0.163260
  72 C :   -0.118347
  73 H :    0.159127
  74 H :    0.159279
  75 H :    0.158788
  76 C :   -0.270391
  77 C :   -0.116824
  78 C :   -0.119338
  79 C :   -0.129789
  80 H :    0.163563
  81 C :   -0.132957
  82 H :    0.163209
  83 C :   -0.118208
  84 H :    0.159178
  85 H :    0.159315
  86 H :    0.158810
  87 C :   -0.270851
  88 C :   -0.116604
  89 C :   -0.119307
  90 C :   -0.129831
  91 H :    0.163500
  92 C :   -0.133230
  93 H :    0.163259
  94 C :   -0.118350
  95 H :    0.159126
  96 H :    0.159279
  97 H :    0.158788

  Mayer bond orders larger than 0.100000
B(  0-C ,  1-C ) :   1.2632 B(  0-C ,  5-C ) :   1.2508 B(  0-C , 43-S ) :   0.9577
B(  1-C ,  2-C ) :   1.1882 B(  1-C , 12-C ) :   0.8532 B(  2-C ,  3-C ) :   1.3026
B(  2-C ,  6-C ) :   1.1885 B(  3-C ,  4-C ) :   1.2607 B(  3-C ,  7-C ) :   1.2742
B(  4-C ,  5-C ) :   1.4201 B(  4-C , 24-C ) :   0.9597 B(  4-C , 25-O ) :  -0.1531
B(  5-C ,  8-H ) :   0.9400 B(  6-C , 10-C ) :   1.2642 B(  6-C , 15-C ) :   0.8537
B(  7-C ,  9-C ) :   1.4196 B(  7-C , 26-C ) :   0.9492 B(  7-C , 27-O ) :  -0.1590
B(  9-C , 10-C ) :   1.2494 B(  9-C , 11-H ) :   0.9388 B( 10-C , 44-S ) :   0.9568
B( 12-C , 13-C ) :   1.1896 B( 12-C , 14-C ) :   1.2647 B( 13-C , 15-C ) :   1.1875
B( 13-C , 16-C ) :   1.3015 B( 14-C , 17-C ) :   1.2497 B( 14-C , 42-S ) :   0.9562
B( 15-C , 18-C ) :   1.2627 B( 16-C , 19-C ) :   1.2613 B( 16-C , 20-C ) :   1.2735
B( 17-C , 20-C ) :   1.4191 B( 17-C , 21-H ) :   0.9394 B( 18-C , 22-C ) :   1.2507
B( 18-C , 45-S ) :   0.9572 B( 19-C , 22-C ) :   1.4195 B( 19-C , 29-C ) :   0.9598
B( 19-C , 30-O ) :  -0.1534 B( 20-C , 31-C ) :   0.9497 B( 20-C , 32-O ) :  -0.1587
B( 22-C , 23-H ) :   0.9403 B( 24-C , 25-O ) :   2.0601 B( 24-C , 28-N ) :   1.1771
B( 26-C , 27-O ) :   2.0543 B( 26-C , 28-N ) :   1.1950 B( 28-N , 34-C ) :   0.8714
B( 29-C , 30-O ) :   2.0601 B( 29-C , 33-N ) :   1.1769 B( 31-C , 32-O ) :   2.0535
B( 31-C , 33-N ) :   1.1948 B( 33-N , 38-C ) :   0.8715 B( 34-C , 35-H ) :   0.9696
B( 34-C , 36-H ) :   0.9609 B( 34-C , 37-H ) :   0.9696 B( 38-C , 39-H ) :   0.9696
B( 38-C , 40-H ) :   0.9609 B( 38-C , 41-H ) :   0.9696 B( 42-S , 52-O ) :   1.7720
B( 42-S , 53-O ) :   1.8391 B( 42-S , 87-C ) :   0.9636 B( 43-S , 50-O ) :   1.7732
B( 43-S , 51-O ) :   1.8391 B( 43-S , 76-C ) :   0.9640 B( 44-S , 46-O ) :   1.7720
B( 44-S , 47-O ) :   1.8392 B( 44-S , 65-C ) :   0.9638 B( 45-S , 48-O ) :   1.8391
B( 45-S , 49-O ) :   1.7731 B( 45-S , 54-C ) :   0.9639 B( 54-C , 55-C ) :   1.2977
B( 54-C , 56-C ) :   1.3033 B( 55-C , 57-C ) :   1.4271 B( 55-C , 58-H ) :   0.9671
B( 56-C , 59-C ) :   1.4177 B( 56-C , 60-H ) :   0.9430 B( 57-C , 61-C ) :   1.3750
B( 57-C , 62-H ) :   0.9835 B( 59-C , 61-C ) :   1.4010 B( 59-C , 63-H ) :   0.9789
B( 61-C , 64-H ) :   0.9755 B( 65-C , 66-C ) :   1.2990 B( 65-C , 67-C ) :   1.3070
B( 66-C , 68-C ) :   1.4263 B( 66-C , 69-H ) :   0.9658 B( 67-C , 70-C ) :   1.4182
B( 67-C , 71-H ) :   0.9412 B( 68-C , 72-C ) :   1.3768 B( 68-C , 73-H ) :   0.9831
B( 70-C , 72-C ) :   1.4020 B( 70-C , 74-H ) :   0.9789 B( 72-C , 75-H ) :   0.9754
B( 76-C , 77-C ) :   1.2976 B( 76-C , 78-C ) :   1.3034 B( 77-C , 79-C ) :   1.4271
B( 77-C , 80-H ) :   0.9671 B( 78-C , 81-C ) :   1.4178 B( 78-C , 82-H ) :   0.9430
B( 79-C , 83-C ) :   1.3750 B( 79-C , 84-H ) :   0.9835 B( 81-C , 83-C ) :   1.4010
B( 81-C , 85-H ) :   0.9790 B( 83-C , 86-H ) :   0.9755 B( 87-C , 88-C ) :   1.2989
B( 87-C , 89-C ) :   1.3068 B( 88-C , 90-C ) :   1.4264 B( 88-C , 91-H ) :   0.9657
B( 89-C , 92-C ) :   1.4183 B( 89-C , 93-H ) :   0.9414 B( 90-C , 94-C ) :   1.3768
B( 90-C , 95-H ) :   0.9831 B( 92-C , 94-C ) :   1.4018 B( 92-C , 96-H ) :   0.9789
B( 94-C , 97-H ) :   0.9754

MP2 TOTAL ENERGY:    -4523.331384859 Eh

-----------------------------------------------------------------------------
         ABSORPTION SPECTRUM VIA TRANSITION ELECTRIC DIPOLE MOMENTS
-----------------------------------------------------------------------------
State   Energy    Wavelength  fosc         T2        TX        TY        TZ
        (cm-1)      (nm)                 (au**2)    (au)      (au)      (au)
-----------------------------------------------------------------------------
   1   21534.9    464.4   0.680744582  10.40681   0.01145  -3.22594  -0.00001
   2   27319.3    366.0   0.009153748   0.11031  -0.00011   0.00003   0.33213
   3   29186.2    342.6   0.285855005   3.22436  -1.79564  -0.00722   0.00006
   4   32006.7    312.4   0.000022309   0.00023   0.00010  -0.00004   0.01515
   5   32004.0    312.5   0.040592011   0.41755  -0.00000  -0.00000  -0.64618
   6   36274.9    275.7   0.096042884   0.87164   0.00010   0.00002   0.93361
   7   34937.3    286.2   0.007707205   0.07262  -0.00268   0.00026   0.26948
   8   34862.7    286.8   0.000962959   0.00909  -0.09469   0.00765  -0.00830
   9   35095.9    284.9   0.000027811   0.00026   0.00006   0.00007   0.01615
  10   37943.6    263.5   1.328344528  11.52517   3.39487   0.00227   0.00005
  11   37719.4    265.1   0.012789830   0.11163   0.15171   0.29768  -0.00007
  12   37205.9    268.8   0.000035445   0.00031  -0.00098   0.00019  -0.01768
  13   37969.9    263.4   0.002595034   0.02250  -0.00121   0.00007  -0.14999
  14   36705.2    272.4   0.049972281   0.44821   0.66943   0.00818  -0.00026
  15   37231.6    268.6   0.000002502   0.00002  -0.00206   0.00013  -0.00423
  16   39455.6    253.4   0.020649185   0.17229  -0.00290  -0.01166   0.41491
  17   39457.6    253.4   0.023367830   0.19497  -0.06042  -0.43726  -0.01100
  18   39985.6    250.1   1.050433558   8.64849  -2.94077  -0.01874  -0.00021
  19   41916.0    238.6   0.000063790   0.00050   0.00030  -0.00025  -0.02238
  20   41965.0    238.3   0.004014530   0.03149   0.17746   0.00057  -0.00025
  21   40637.9    246.1   0.009636283   0.07806  -0.00207  -0.27939   0.00018
  22   40560.7    246.5   0.010118757   0.08213  -0.00022   0.00010   0.28658
  23   38742.0    258.1   0.019070917   0.16206  -0.07545  -0.39543   0.00118
  24   38691.1    258.5   0.000123244   0.00105  -0.00315  -0.02179  -0.02375
  25   39098.0    255.8   0.086994904   0.73251  -0.00119   0.00019   0.85587
  26   39725.3    251.7   0.000452258   0.00375   0.00148   0.00107  -0.06119
  27   39701.1    251.9   0.063595733   0.52735  -0.72381   0.05880  -0.00065
  28   40146.8    249.1   0.444095912   3.64168   1.90384   0.13072   0.00031
  29   43082.6    232.1   0.258376242   1.97436  -0.23542   1.38526  -0.00014
  30   43721.6    228.7   0.123977111   0.93351   0.06532   0.96398   0.00007

FINAL SINGLE POINT ENERGY     -4519.737884360357

DIPOLE MOMENT
-------------
                                X             Y             Z
Electronic contribution:      0.00010       0.00363      -0.22716
Nuclear contribution   :     -0.00016      -0.00468       0.26689
                        -----------------------------------------
Total Dipole Moment    :     -0.00006      -0.00105       0.03973
                        -----------------------------------------
Magnitude (a.u.)       :      0.03974
Magnitude (Debye)      :      0.10101

Rotational constants in cm-1:     0.001689     0.000890     0.000662
Rotational constants in MHz :    50.636708    26.686424    19.835733

                             ****ORCA TERMINATED NORMALLY****
TOTAL RUN TIME: 2 days 15 hours 16 minutes 47 seconds 644 msec
