                         Program Version 5.0.2 -  RELEASE  -
|  1> %maxcore 20000
|  2> %pal
|  3>  nprocs= 4
|  4> end
|  5> ! RI-SCS-PBE-QIDH   def2-TZVP def2/J def2-TZVP/C RIJCOSX CPCM TightSCF
|  6> %TDDFT
|  7>    NROOTS   30
|  8>    dcorr 4
|  9>    doscs true
| 10>    TDA      FALSE
| 11> END
| 12>
| 13> %CPCM
| 14>    SMD          TRUE
| 15>    SMDsolvent   "DICHLOROMETHANE"
| 16> END
| 17>
| 18>
| 19> * xyz 0 1
| 20> C                   2.25498900   -1.41242200    0.83088600
| 21> C                   1.22611500   -0.69583000    0.21135600
| 22> C                   0.00493300   -1.39792800   -0.00562900
| 23> C                   0.01042000   -2.81251500   -0.00659100
| 24> C                   1.12129500   -3.50904100    0.49256700
| 25> C                   2.17569300   -2.79665900    1.00688800
| 26> C                  -1.22133800   -0.70463000   -0.22082200
| 27> C                  -1.09477100   -3.51816200   -0.50590000
| 28> H                   2.96257300   -3.32666300    1.52829200
| 29> C                  -2.15492100   -2.81201700   -1.01771800
| 30> C                  -2.24538800   -1.42879600   -0.83973100
| 31> H                  -2.93782600   -3.34711400   -1.53962200
| 32> C                   1.22134000    0.70485900   -0.22081400
| 33> C                  -0.00493400    1.39815700   -0.00563500
| 34> C                   2.24539800    1.42902200   -0.83971600
| 35> C                  -1.22611800    0.69606200    0.21134400
| 36> C                  -0.01042000    2.81274600   -0.00660000
| 37> C                   2.15494600    2.81224700   -1.01768100
| 38> C                  -2.25499800    1.41265500    0.83086800
| 39> C                  -1.12130800    3.50927300    0.49253300
| 40> C                   1.09478900    3.51839200   -0.50587800
| 41> H                   2.93785100    3.34734000   -1.53958700
| 42> C                  -2.17571000    2.79689600    1.00684900
| 43> H                  -2.96258000    3.32690100    1.52826500
| 44> C                   1.12759000   -4.97842900    0.53013600
| 45> O                   2.04941900   -5.62115000    0.99625400
| 46> C                  -1.09771900   -4.98966800   -0.54948300
| 47> O                  -2.02439300   -5.62127600   -1.01959000
| 48> N                   0.02016100   -5.62649100   -0.01042800
| 49> C                  -1.12758100    4.97866000    0.53014300
| 50> O                  -2.04937800    5.62138200    0.99632400
| 51> C                   1.09772300    4.98989500   -0.54949400
| 52> O                   2.02439400    5.62150300   -1.01960700
| 53> N                  -0.02016900    5.62671900   -0.01046200
| 54> C                   0.05875300   -7.08120700    0.00462200
| 55> H                   0.93046300   -7.43603900   -0.54064000
| 56> H                  -0.84583600   -7.45113700   -0.46211400
| 57> H                   0.12270800   -7.44276900    1.02872300
| 58> C                  -0.05876300    7.08143700    0.00456800
| 59> H                  -0.93068900    7.43623500   -0.54036600
| 60> H                   0.84564600    7.45136100   -0.46252200
| 61> H                  -0.12232200    7.44304300    1.02868000
| 62> S                   3.57178500    0.67502400   -1.76927100
| 63> S                   3.57170700   -0.64788600    1.76482300
| 64> S                  -3.57184100   -0.67481800   -1.76919200
| 65> S                  -3.57163700    0.64809900    1.76491400
| 66> O                  -3.50346600    0.75725100   -1.63144600
| 67> O                  -3.43718700   -1.23408600   -3.09309800
| 68> O                  -3.42871100    1.19738700    3.09213100
| 69> O                  -3.50108900   -0.78278700    1.61644500
| 70> O                   3.50137700    0.78298600    1.61611400
| 71> O                   3.42871900   -1.19691300    3.09214100
| 72> O                   3.50319700   -0.75705700   -1.63176500
| 73> O                   3.43720800    1.23454900   -3.09307700
| 74> C                  -5.13413300    1.22191400    1.14923300
| 75> C                  -6.23966500    0.60898000    1.73510100
| 76> C                  -5.28958100    2.25418700    0.23580100
| 77> C                  -7.51011300    1.04479900    1.40353600
| 78> H                  -6.10364100   -0.19802900    2.44463300
| 79> C                  -6.56999900    2.67894300   -0.08861500
| 80> H                  -4.43467800    2.71571800   -0.23605800
| 81> C                  -7.67625300    2.08132800    0.49458800
| 82> H                  -8.37165500    0.56950400    1.85453100
| 83> H                  -6.69689900    3.48200900   -0.80284000
| 84> H                  -8.67184300    2.41976500    0.23745800
| 85> C                  -5.12970600   -1.24439500   -1.13843000
| 86> C                  -6.23862800   -0.61295700   -1.69725600
| 87> C                  -5.27988200   -2.29194200   -0.24166200
| 88> C                  -7.50748600   -1.04688700   -1.35697200
| 89> H                  -6.10615800    0.20757700   -2.39169900
| 90> C                  -6.55852200   -2.71390400    0.09269500
| 91> H                  -4.42193700   -2.76687300    0.21117100
| 92> C                  -7.66845100   -2.09884800   -0.46506800
| 93> H                  -8.37178400   -0.55767200   -1.78735000
| 94> H                  -6.68129400   -3.52827000    0.79471800
| 95> H                  -8.66279100   -2.43531500   -0.20060000
| 96> C                   5.13408300   -1.22211700    1.14920400
| 97> C                   6.23975600   -0.60974300    1.73539600
| 98> C                   5.28929300   -2.25413500    0.23544200
| 99> C                   7.51009700   -1.04586100    1.40381800
|100> H                   6.10392700    0.19706700    2.44519500
|101> C                   6.56960900   -2.67921600   -0.08895800
|102> H                   4.43429000   -2.71520700   -0.23668300
|103> C                   7.67599600   -2.08215300    0.49455500
|104> H                   8.37174600   -0.57098800    1.85505300
|105> H                   6.69632200   -3.48209600   -0.80342600
|106> H                   8.67150300   -2.42083700    0.23742600
|107> C                   5.12975200    1.24420000   -1.13842000
|108> C                   6.23854400    0.61224000   -1.69690600
|109> C                   5.28013400    2.29198500   -0.24196800
|110> C                   7.50749300    1.04589300   -1.35660000
|111> H                   6.10590000   -0.20848900   -2.39108400
|112> C                   6.55885700    2.71365200    0.09243200
|113> H                   4.42227100    2.76732600    0.21059300
|114> C                   7.66866600    2.09807900   -0.46500200
|115> H                   8.37169600    0.55628000   -1.78671600
|116> H                   6.68179200    3.52819500    0.79422100
|117> H                   8.66307700    2.43431900   -0.20050800
|118> *
|119>
|120>
|121>                          ****END OF INPUT****

CARTESIAN COORDINATES (ANGSTROEM)
---------------------------------
  C      2.254989   -1.412422    0.830886
  C      1.226115   -0.695830    0.211356
  C      0.004933   -1.397928   -0.005629
  C      0.010420   -2.812515   -0.006591
  C      1.121295   -3.509041    0.492567
  C      2.175693   -2.796659    1.006888
  C     -1.221338   -0.704630   -0.220822
  C     -1.094771   -3.518162   -0.505900
  H      2.962573   -3.326663    1.528292
  C     -2.154921   -2.812017   -1.017718
  C     -2.245388   -1.428796   -0.839731
  H     -2.937826   -3.347114   -1.539622
  C      1.221340    0.704859   -0.220814
  C     -0.004934    1.398157   -0.005635
  C      2.245398    1.429022   -0.839716
  C     -1.226118    0.696062    0.211344
  C     -0.010420    2.812746   -0.006600
  C      2.154946    2.812247   -1.017681
  C     -2.254998    1.412655    0.830868
  C     -1.121308    3.509273    0.492533
  C      1.094789    3.518392   -0.505878
  H      2.937851    3.347340   -1.539587
  C     -2.175710    2.796896    1.006849
  H     -2.962580    3.326901    1.528265
  C      1.127590   -4.978429    0.530136
  O      2.049419   -5.621150    0.996254
  C     -1.097719   -4.989668   -0.549483
  O     -2.024393   -5.621276   -1.019590
  N      0.020161   -5.626491   -0.010428
  C     -1.127581    4.978660    0.530143
  O     -2.049378    5.621382    0.996324
  C      1.097723    4.989895   -0.549494
  O      2.024394    5.621503   -1.019607
  N     -0.020169    5.626719   -0.010462
  C      0.058753   -7.081207    0.004622
  H      0.930463   -7.436039   -0.540640
  H     -0.845836   -7.451137   -0.462114
  H      0.122708   -7.442769    1.028723
  C     -0.058763    7.081437    0.004568
  H     -0.930689    7.436235   -0.540366
  H      0.845646    7.451361   -0.462522
  H     -0.122322    7.443043    1.028680
  S      3.571785    0.675024   -1.769271
  S      3.571707   -0.647886    1.764823
  S     -3.571841   -0.674818   -1.769192
  S     -3.571637    0.648099    1.764914
  O     -3.503466    0.757251   -1.631446
  O     -3.437187   -1.234086   -3.093098
  O     -3.428711    1.197387    3.092131
  O     -3.501089   -0.782787    1.616445
  O      3.501377    0.782986    1.616114
  O      3.428719   -1.196913    3.092141
  O      3.503197   -0.757057   -1.631765
  O      3.437208    1.234549   -3.093077
  C     -5.134133    1.221914    1.149233
  C     -6.239665    0.608980    1.735101
  C     -5.289581    2.254187    0.235801
  C     -7.510113    1.044799    1.403536
  H     -6.103641   -0.198029    2.444633
  C     -6.569999    2.678943   -0.088615
  H     -4.434678    2.715718   -0.236058
  C     -7.676253    2.081328    0.494588
  H     -8.371655    0.569504    1.854531
  H     -6.696899    3.482009   -0.802840
  H     -8.671843    2.419765    0.237458
  C     -5.129706   -1.244395   -1.138430
  C     -6.238628   -0.612957   -1.697256
  C     -5.279882   -2.291942   -0.241662
  C     -7.507486   -1.046887   -1.356972
  H     -6.106158    0.207577   -2.391699
  C     -6.558522   -2.713904    0.092695
  H     -4.421937   -2.766873    0.211171
  C     -7.668451   -2.098848   -0.465068
  H     -8.371784   -0.557672   -1.787350
  H     -6.681294   -3.528270    0.794718
  H     -8.662791   -2.435315   -0.200600
  C      5.134083   -1.222117    1.149204
  C      6.239756   -0.609743    1.735396
  C      5.289293   -2.254135    0.235442
  C      7.510097   -1.045861    1.403818
  H      6.103927    0.197067    2.445195
  C      6.569609   -2.679216   -0.088958
  H      4.434290   -2.715207   -0.236683
  C      7.675996   -2.082153    0.494555
  H      8.371746   -0.570988    1.855053
  H      6.696322   -3.482096   -0.803426
  H      8.671503   -2.420837    0.237426
  C      5.129752    1.244200   -1.138420
  C      6.238544    0.612240   -1.696906
  C      5.280134    2.291985   -0.241968
  C      7.507493    1.045893   -1.356600
  H      6.105900   -0.208489   -2.391084
  C      6.558857    2.713652    0.092432
  H      4.422271    2.767326    0.210593
  C      7.668666    2.098079   -0.465002
  H      8.371696    0.556280   -1.786716
  H      6.681792    3.528195    0.794221
  H      8.663077    2.434319   -0.200508

 Total Charge           Charge          ....    0
 Multiplicity           Mult            ....    1
 Number of Electrons    NEL             ....  504
 Basis Dimension        Dim             .... 2312

ORBITAL ENERGIES
----------------

  NO   OCC          E(Eh)            E(eV)
   0   2.0000     -90.959703     -2475.1394
   1   2.0000     -90.959702     -2475.1393
   2   2.0000     -90.959627     -2475.1373
   3   2.0000     -90.959626     -2475.1372
   4   2.0000     -20.009435      -544.4844
   5   2.0000     -20.009434      -544.4844
   6   2.0000     -20.009400      -544.4835
   7   2.0000     -20.009400      -544.4834
   8   2.0000     -20.004513      -544.3505
   9   2.0000     -20.004511      -544.3504
  10   2.0000     -20.004464      -544.3491
  11   2.0000     -20.004463      -544.3491
  12   2.0000     -20.000589      -544.2437
  13   2.0000     -20.000588      -544.2437
  14   2.0000     -20.000552      -544.2427
  15   2.0000     -20.000551      -544.2427
  16   2.0000     -15.148205      -412.2036
  17   2.0000     -15.148205      -412.2036
  18   2.0000     -10.967208      -298.4329
  19   2.0000     -10.967208      -298.4329
  20   2.0000     -10.964893      -298.3699
  21   2.0000     -10.964892      -298.3699
  22   2.0000     -10.908059      -296.8234
  23   2.0000     -10.908055      -296.8233
  24   2.0000     -10.907427      -296.8062
  25   2.0000     -10.907412      -296.8058
  26   2.0000     -10.894856      -296.4641
  27   2.0000     -10.894855      -296.4641
  28   2.0000     -10.894829      -296.4634
  29   2.0000     -10.894828      -296.4633
  30   2.0000     -10.884831      -296.1913
  31   2.0000     -10.884825      -296.1912
  32   2.0000     -10.883556      -296.1566
  33   2.0000     -10.883555      -296.1566
  34   2.0000     -10.873560      -295.8846
  35   2.0000     -10.873558      -295.8845
  36   2.0000     -10.873413      -295.8806
  37   2.0000     -10.873411      -295.8806
  38   2.0000     -10.868463      -295.7459
  39   2.0000     -10.868462      -295.7459
  40   2.0000     -10.868231      -295.7396
  41   2.0000     -10.868230      -295.7396
  42   2.0000     -10.865319      -295.6604
  43   2.0000     -10.865316      -295.6603
  44   2.0000     -10.865114      -295.6548
  45   2.0000     -10.865110      -295.6547
  46   2.0000     -10.843689      -295.0718
  47   2.0000     -10.843688      -295.0718
  48   2.0000     -10.843614      -295.0697
  49   2.0000     -10.843612      -295.0697
  50   2.0000     -10.843515      -295.0670
  51   2.0000     -10.843512      -295.0670
  52   2.0000     -10.843341      -295.0623
  53   2.0000     -10.843338      -295.0622
  54   2.0000     -10.841669      -295.0168
  55   2.0000     -10.841669      -295.0168
  56   2.0000     -10.834371      -294.8182
  57   2.0000     -10.834369      -294.8182
  58   2.0000     -10.834285      -294.8159
  59   2.0000     -10.834283      -294.8158
  60   2.0000     -10.831429      -294.7382
  61   2.0000     -10.831426      -294.7381
  62   2.0000     -10.831284      -294.7342
  63   2.0000     -10.831281      -294.7341
  64   2.0000     -10.830955      -294.7253
  65   2.0000     -10.830954      -294.7252
  66   2.0000     -10.830864      -294.7228
  67   2.0000     -10.830862      -294.7227
  68   2.0000      -8.758929      -238.3426
  69   2.0000      -8.758928      -238.3425
  70   2.0000      -8.758853      -238.3405
  71   2.0000      -8.758851      -238.3405
  72   2.0000      -6.548171      -178.1848
  73   2.0000      -6.548170      -178.1848
  74   2.0000      -6.548082      -178.1824
  75   2.0000      -6.548081      -178.1823
  76   2.0000      -6.546847      -178.1488
  77   2.0000      -6.546846      -178.1487
  78   2.0000      -6.546782      -178.1470
  79   2.0000      -6.546781      -178.1470
  80   2.0000      -6.546365      -178.1356
  81   2.0000      -6.546363      -178.1356
  82   2.0000      -6.546289      -178.1336
  83   2.0000      -6.546288      -178.1335
  84   2.0000      -1.353298       -36.8251
  85   2.0000      -1.353270       -36.8244
  86   2.0000      -1.351041       -36.7637
  87   2.0000      -1.351038       -36.7636
  88   2.0000      -1.308416       -35.6038
  89   2.0000      -1.308413       -35.6037
  90   2.0000      -1.288012       -35.0486
  91   2.0000      -1.288012       -35.0486
  92   2.0000      -1.239514       -33.7289
  93   2.0000      -1.239499       -33.7285
  94   2.0000      -1.238486       -33.7009
  95   2.0000      -1.238479       -33.7007
  96   2.0000      -1.166885       -31.7526
  97   2.0000      -1.164526       -31.6884
  98   2.0000      -1.154259       -31.4090
  99   2.0000      -1.124253       -30.5925
 100   2.0000      -1.089876       -29.6570
 101   2.0000      -1.078144       -29.3378
 102   2.0000      -1.077375       -29.3169
 103   2.0000      -1.076570       -29.2950
 104   2.0000      -1.074399       -29.2359
 105   2.0000      -1.067074       -29.0366
 106   2.0000      -1.061160       -28.8756
 107   2.0000      -1.007686       -27.4205
 108   2.0000      -0.998872       -27.1807
 109   2.0000      -0.990922       -26.9644
 110   2.0000      -0.981047       -26.6956
 111   2.0000      -0.968044       -26.3418
 112   2.0000      -0.966084       -26.2885
 113   2.0000      -0.958614       -26.0852
 114   2.0000      -0.955232       -25.9932
 115   2.0000      -0.946665       -25.7601
 116   2.0000      -0.942531       -25.6476
 117   2.0000      -0.941990       -25.6328
 118   2.0000      -0.941878       -25.6298
 119   2.0000      -0.941039       -25.6070
 120   2.0000      -0.909404       -24.7461
 121   2.0000      -0.902767       -24.5655
 122   2.0000      -0.891594       -24.2615
 123   2.0000      -0.863254       -23.4903
 124   2.0000      -0.854609       -23.2551
 125   2.0000      -0.851441       -23.1689
 126   2.0000      -0.848522       -23.0894
 127   2.0000      -0.842905       -22.9366
 128   2.0000      -0.825350       -22.4589
 129   2.0000      -0.817297       -22.2398
 130   2.0000      -0.804206       -21.8836
 131   2.0000      -0.796860       -21.6837
 132   2.0000      -0.795862       -21.6565
 133   2.0000      -0.773861       -21.0578
 134   2.0000      -0.773748       -21.0548
 135   2.0000      -0.771818       -21.0022
 136   2.0000      -0.769414       -20.9368
 137   2.0000      -0.769040       -20.9266
 138   2.0000      -0.753455       -20.5025
 139   2.0000      -0.750725       -20.4283
 140   2.0000      -0.746858       -20.3230
 141   2.0000      -0.735848       -20.0234
 142   2.0000      -0.723793       -19.6954
 143   2.0000      -0.705810       -19.2061
 144   2.0000      -0.705736       -19.2040
 145   2.0000      -0.691763       -18.8238
 146   2.0000      -0.687992       -18.7212
 147   2.0000      -0.683525       -18.5997
 148   2.0000      -0.681675       -18.5493
 149   2.0000      -0.674120       -18.3437
 150   2.0000      -0.669164       -18.2089
 151   2.0000      -0.665758       -18.1162
 152   2.0000      -0.643732       -17.5168
 153   2.0000      -0.642888       -17.4939
 154   2.0000      -0.642246       -17.4764
 155   2.0000      -0.631525       -17.1847
 156   2.0000      -0.624123       -16.9833
 157   2.0000      -0.624112       -16.9830
 158   2.0000      -0.621992       -16.9253
 159   2.0000      -0.617020       -16.7900
 160   2.0000      -0.616822       -16.7846
 161   2.0000      -0.616770       -16.7832
 162   2.0000      -0.616664       -16.7803
 163   2.0000      -0.614528       -16.7221
 164   2.0000      -0.609796       -16.5934
 165   2.0000      -0.605375       -16.4731
 166   2.0000      -0.604122       -16.4390
 167   2.0000      -0.598207       -16.2780
 168   2.0000      -0.597798       -16.2669
 169   2.0000      -0.594014       -16.1639
 170   2.0000      -0.593680       -16.1549
 171   2.0000      -0.592545       -16.1240
 172   2.0000      -0.588851       -16.0235
 173   2.0000      -0.586136       -15.9496
 174   2.0000      -0.586061       -15.9475
 175   2.0000      -0.585883       -15.9427
 176   2.0000      -0.579299       -15.7635
 177   2.0000      -0.579243       -15.7620
 178   2.0000      -0.575674       -15.6649
 179   2.0000      -0.570914       -15.5354
 180   2.0000      -0.570349       -15.5200
 181   2.0000      -0.569835       -15.5060
 182   2.0000      -0.564297       -15.3553
 183   2.0000      -0.562772       -15.3138
 184   2.0000      -0.562299       -15.3009
 185   2.0000      -0.559871       -15.2349
 186   2.0000      -0.550452       -14.9786
 187   2.0000      -0.547760       -14.9053
 188   2.0000      -0.546993       -14.8844
 189   2.0000      -0.546761       -14.8781
 190   2.0000      -0.546280       -14.8650
 191   2.0000      -0.540633       -14.7114
 192   2.0000      -0.534840       -14.5537
 193   2.0000      -0.525168       -14.2905
 194   2.0000      -0.521586       -14.1931
 195   2.0000      -0.519419       -14.1341
 196   2.0000      -0.515579       -14.0296
 197   2.0000      -0.509533       -13.8651
 198   2.0000      -0.505969       -13.7681
 199   2.0000      -0.502236       -13.6665
 200   2.0000      -0.500062       -13.6074
 201   2.0000      -0.499888       -13.6027
 202   2.0000      -0.498839       -13.5741
 203   2.0000      -0.495414       -13.4809
 204   2.0000      -0.494801       -13.4642
 205   2.0000      -0.492582       -13.4038
 206   2.0000      -0.492307       -13.3964
 207   2.0000      -0.491487       -13.3740
 208   2.0000      -0.480753       -13.0820
 209   2.0000      -0.479767       -13.0551
 210   2.0000      -0.475856       -12.9487
 211   2.0000      -0.475129       -12.9289
 212   2.0000      -0.462855       -12.5949
 213   2.0000      -0.462020       -12.5722
 214   2.0000      -0.460717       -12.5368
 215   2.0000      -0.460654       -12.5350
 216   2.0000      -0.459629       -12.5071
 217   2.0000      -0.459419       -12.5014
 218   2.0000      -0.458785       -12.4842
 219   2.0000      -0.457195       -12.4409
 220   2.0000      -0.454684       -12.3726
 221   2.0000      -0.452337       -12.3087
 222   2.0000      -0.452322       -12.3083
 223   2.0000      -0.450114       -12.2482
 224   2.0000      -0.445385       -12.1195
 225   2.0000      -0.437141       -11.8952
 226   2.0000      -0.435960       -11.8631
 227   2.0000      -0.426363       -11.6019
 228   2.0000      -0.426073       -11.5940
 229   2.0000      -0.421387       -11.4665
 230   2.0000      -0.420812       -11.4509
 231   2.0000      -0.412810       -11.2331
 232   2.0000      -0.409860       -11.1528
 233   2.0000      -0.407745       -11.0953
 234   2.0000      -0.404821       -11.0157
 235   2.0000      -0.398634       -10.8474
 236   2.0000      -0.398368       -10.8401
 237   2.0000      -0.379471       -10.3259
 238   2.0000      -0.376147       -10.2355
 239   2.0000      -0.359586        -9.7848
 240   2.0000      -0.351854        -9.5744
 241   2.0000      -0.347807        -9.4643
 242   2.0000      -0.347058        -9.4439
 243   2.0000      -0.346903        -9.4397
 244   2.0000      -0.343371        -9.3436
 245   2.0000      -0.337657        -9.1881
 246   2.0000      -0.337081        -9.1724
 247   2.0000      -0.329757        -8.9731
 248   2.0000      -0.329454        -8.9649
 249   2.0000      -0.327039        -8.8992
 250   2.0000      -0.326965        -8.8972
 251   2.0000      -0.293274        -7.9804
 252   0.0000      -0.097381        -2.6499
 253   0.0000      -0.024437        -0.6650
 254   0.0000      -0.015689        -0.4269
 255   0.0000      -0.002268        -0.0617
 256   0.0000       0.003725         0.1014

MULLIKEN ATOMIC CHARGES
-----------------------
   0 C :   -0.113444
   1 C :    0.241786
   2 C :   -0.024436
   3 C :    0.194424
   4 C :    0.089394
   5 C :   -0.336707
   6 C :    0.240965
   7 C :    0.084636
   8 H :    0.225530
   9 C :   -0.332567
  10 C :   -0.115477
  11 H :    0.226585
  12 C :    0.241772
  13 C :   -0.025005
  14 C :   -0.113338
  15 C :    0.244417
  16 C :    0.193326
  17 C :   -0.333487
  18 C :   -0.113103
  19 C :    0.089490
  20 C :    0.083744
  21 H :    0.226443
  22 C :   -0.337218
  23 H :    0.225516
  24 C :    0.257181
  25 O :   -0.464361
  26 C :    0.249892
  27 O :   -0.470607
  28 N :   -0.066194
  29 C :    0.258200
  30 O :   -0.464360
  31 C :    0.251160
  32 O :   -0.470526
  33 N :   -0.066440
  34 C :   -0.321227
  35 H :    0.159581
  36 H :    0.182824
  37 H :    0.159150
  38 C :   -0.321185
  39 H :    0.159585
  40 H :    0.182827
  41 H :    0.159145
  42 S :    0.965581
  43 S :    0.964705
  44 S :    0.965238
  45 S :    0.964768
  46 O :   -0.567544
  47 O :   -0.555630
  48 O :   -0.555734
  49 O :   -0.566444
  50 O :   -0.566399
  51 O :   -0.555712
  52 O :   -0.567626
  53 O :   -0.555622
  54 C :    0.067297
  55 C :   -0.248304
  56 C :   -0.085642
  57 C :   -0.176343
  58 H :    0.176528
  59 C :   -0.205469
  60 H :    0.199275
  61 C :   -0.121571
  62 H :    0.170704
  63 H :    0.172751
  64 H :    0.173727
  65 C :    0.059909
  66 C :   -0.239417
  67 C :   -0.085179
  68 C :   -0.177286
  69 H :    0.177330
  70 C :   -0.206620
  71 H :    0.199386
  72 C :   -0.121908
  73 H :    0.170503
  74 H :    0.172997
  75 H :    0.173580
  76 C :    0.067267
  77 C :   -0.248420
  78 C :   -0.085461
  79 C :   -0.176283
  80 H :    0.176537
  81 C :   -0.205573
  82 H :    0.199269
  83 C :   -0.121608
  84 H :    0.170721
  85 H :    0.172739
  86 H :    0.173725
  87 C :    0.060303
  88 C :   -0.239131
  89 C :   -0.085704
  90 C :   -0.177250
  91 H :    0.177341
  92 C :   -0.206638
  93 H :    0.199350
  94 C :   -0.121968
  95 H :    0.170491
  96 H :    0.172997
  97 H :    0.173581
Sum of atomic charges:   -0.0000000

LOEWDIN ATOMIC CHARGES
----------------------
   0 C :   -0.198072
   1 C :   -0.001183
   2 C :    0.019326
   3 C :    0.005290
   4 C :   -0.061772
   5 C :   -0.033017
   6 C :   -0.001238
   7 C :   -0.060977
   8 H :    0.180374
   9 C :   -0.033432
  10 C :   -0.197831
  11 H :    0.180217
  12 C :   -0.001239
  13 C :    0.019322
  14 C :   -0.197824
  15 C :   -0.001180
  16 C :    0.005289
  17 C :   -0.033439
  18 C :   -0.198068
  19 C :   -0.061771
  20 C :   -0.060978
  21 H :    0.180215
  22 C :   -0.033023
  23 H :    0.180372
  24 C :   -0.300221
  25 O :    0.058836
  26 C :   -0.299720
  27 O :    0.052859
  28 N :    0.231837
  29 C :   -0.300218
  30 O :    0.058835
  31 C :   -0.299720
  32 O :    0.052862
  33 N :    0.231838
  34 C :   -0.244265
  35 H :    0.127127
  36 H :    0.132010
  37 H :    0.126954
  38 C :   -0.244266
  39 H :    0.127129
  40 H :    0.132010
  41 H :    0.126952
  42 S :    0.844084
  43 S :    0.843950
  44 S :    0.844080
  45 S :    0.843952
  46 O :   -0.289461
  47 O :   -0.314931
  48 O :   -0.314830
  49 O :   -0.288950
  50 O :   -0.288939
  51 O :   -0.314828
  52 O :   -0.289472
  53 O :   -0.314933
  54 C :   -0.270780
  55 C :   -0.115458
  56 C :   -0.117424
  57 C :   -0.128965
  58 H :    0.163134
  59 C :   -0.131927
  60 H :    0.162615
  61 C :   -0.117147
  62 H :    0.158435
  63 H :    0.158500
  64 H :    0.157922
  65 C :   -0.271207
  66 C :   -0.115238
  67 C :   -0.117379
  68 C :   -0.129016
  69 H :    0.163092
  70 C :   -0.132217
  71 H :    0.162638
  72 C :   -0.117292
  73 H :    0.158390
  74 H :    0.158464
  75 H :    0.157901
  76 C :   -0.270772
  77 C :   -0.115462
  78 C :   -0.117425
  79 C :   -0.128965
  80 H :    0.163135
  81 C :   -0.131922
  82 H :    0.162615
  83 C :   -0.117145
  84 H :    0.158436
  85 H :    0.158500
  86 H :    0.157922
  87 C :   -0.271217
  88 C :   -0.115231
  89 C :   -0.117378
  90 C :   -0.129017
  91 H :    0.163092
  92 C :   -0.132222
  93 H :    0.162638
  94 C :   -0.117296
  95 H :    0.158389
  96 H :    0.158464
  97 H :    0.157901

  Mayer bond orders larger than 0.100000
B(  0-C ,  1-C ) :   1.1642 B(  0-C ,  5-C ) :   1.2414 B(  0-C , 12-C ) :  -0.1523
B(  0-C , 14-C ) :   0.1168 B(  0-C , 43-S ) :   0.9643 B(  1-C ,  2-C ) :   1.1572
B(  1-C , 12-C ) :   0.7852 B(  1-C , 14-C ) :  -0.1497 B(  2-C ,  3-C ) :   1.2721
B(  2-C ,  6-C ) :   1.1563 B(  3-C ,  4-C ) :   1.2853 B(  3-C ,  7-C ) :   1.2952
B(  4-C ,  5-C ) :   1.3896 B(  4-C , 24-C ) :   0.9608 B(  4-C , 25-O ) :  -0.1280
B(  5-C ,  8-H ) :   0.9606 B(  6-C , 10-C ) :   1.1657 B(  6-C , 15-C ) :   0.7859
B(  6-C , 18-C ) :  -0.1511 B(  7-C ,  9-C ) :   1.3902 B(  7-C , 26-C ) :   0.9570
B(  7-C , 27-O ) :  -0.1322 B(  9-C , 10-C ) :   1.2401 B(  9-C , 11-H ) :   0.9591
B( 10-C , 15-C ) :  -0.1507 B( 10-C , 18-C ) :   0.1164 B( 10-C , 44-S ) :   0.9637
B( 12-C , 13-C ) :   1.1573 B( 12-C , 14-C ) :   1.1664 B( 13-C , 15-C ) :   1.1567
B( 13-C , 16-C ) :   1.2708 B( 14-C , 17-C ) :   1.2406 B( 14-C , 42-S ) :   0.9631
B( 15-C , 18-C ) :   1.1635 B( 16-C , 19-C ) :   1.2854 B( 16-C , 20-C ) :   1.2947
B( 17-C , 20-C ) :   1.3897 B( 17-C , 21-H ) :   0.9596 B( 18-C , 22-C ) :   1.2412
B( 18-C , 45-S ) :   0.9638 B( 19-C , 22-C ) :   1.3889 B( 19-C , 29-C ) :   0.9610
B( 19-C , 30-O ) :  -0.1282 B( 20-C , 31-C ) :   0.9576 B( 20-C , 32-O ) :  -0.1318
B( 22-C , 23-H ) :   0.9609 B( 24-C , 25-O ) :   1.9965 B( 24-C , 28-N ) :   1.1901
B( 26-C , 27-O ) :   1.9915 B( 26-C , 28-N ) :   1.2077 B( 28-N , 34-C ) :   0.8709
B( 29-C , 30-O ) :   1.9965 B( 29-C , 33-N ) :   1.1899 B( 31-C , 32-O ) :   1.9906
B( 31-C , 33-N ) :   1.2074 B( 33-N , 38-C ) :   0.8710 B( 34-C , 35-H ) :   0.9694
B( 34-C , 36-H ) :   0.9583 B( 34-C , 37-H ) :   0.9694 B( 38-C , 39-H ) :   0.9694
B( 38-C , 40-H ) :   0.9583 B( 38-C , 41-H ) :   0.9695 B( 42-S , 52-O ) :   1.7534
B( 42-S , 53-O ) :   1.8062 B( 42-S , 87-C ) :   0.9712 B( 43-S , 50-O ) :   1.7545
B( 43-S , 51-O ) :   1.8063 B( 43-S , 76-C ) :   0.9721 B( 44-S , 46-O ) :   1.7534
B( 44-S , 47-O ) :   1.8063 B( 44-S , 65-C ) :   0.9714 B( 45-S , 48-O ) :   1.8062
B( 45-S , 49-O ) :   1.7545 B( 45-S , 54-C ) :   0.9719 B( 54-C , 55-C ) :   1.3093
B( 54-C , 56-C ) :   1.3288 B( 55-C , 57-C ) :   1.4359 B( 55-C , 58-H ) :   0.9671
B( 56-C , 59-C ) :   1.4038 B( 56-C , 60-H ) :   0.9466 B( 57-C , 61-C ) :   1.3798
B( 57-C , 62-H ) :   0.9826 B( 59-C , 61-C ) :   1.4091 B( 59-C , 63-H ) :   0.9821
B( 61-C , 64-H ) :   0.9759 B( 65-C , 66-C ) :   1.3124 B( 65-C , 67-C ) :   1.3313
B( 66-C , 68-C ) :   1.4361 B( 66-C , 69-H ) :   0.9649 B( 67-C , 70-C ) :   1.4053
B( 67-C , 71-H ) :   0.9453 B( 68-C , 72-C ) :   1.3814 B( 68-C , 73-H ) :   0.9820
B( 70-C , 72-C ) :   1.4093 B( 70-C , 74-H ) :   0.9822 B( 72-C , 75-H ) :   0.9760
B( 76-C , 77-C ) :   1.3092 B( 76-C , 78-C ) :   1.3287 B( 77-C , 79-C ) :   1.4359
B( 77-C , 80-H ) :   0.9671 B( 78-C , 81-C ) :   1.4039 B( 78-C , 82-H ) :   0.9465
B( 79-C , 83-C ) :   1.3798 B( 79-C , 84-H ) :   0.9826 B( 81-C , 83-C ) :   1.4091
B( 81-C , 85-H ) :   0.9821 B( 83-C , 86-H ) :   0.9759 B( 87-C , 88-C ) :   1.3123
B( 87-C , 89-C ) :   1.3312 B( 88-C , 90-C ) :   1.4362 B( 88-C , 91-H ) :   0.9648
B( 89-C , 92-C ) :   1.4054 B( 89-C , 93-H ) :   0.9454 B( 90-C , 94-C ) :   1.3814
B( 90-C , 95-H ) :   0.9820 B( 92-C , 94-C ) :   1.4092 B( 92-C , 96-H ) :   0.9822
B( 94-C , 97-H ) :   0.9760

MP2 TOTAL ENERGY:    -4524.896712261 Eh

-----------------------------------------------------------------------------
         ABSORPTION SPECTRUM VIA TRANSITION ELECTRIC DIPOLE MOMENTS
-----------------------------------------------------------------------------
State   Energy    Wavelength  fosc         T2        TX        TY        TZ
        (cm-1)      (nm)                 (au**2)    (au)      (au)      (au)
-----------------------------------------------------------------------------
   1   19544.3    511.7   0.616336177  10.38184  -0.01135   3.22207   0.00001
   2   24524.3    407.8   0.008088433   0.10858   0.00011  -0.00002  -0.32951
   3   25803.4    387.5   0.277441605   3.53973  -1.88140  -0.00745   0.00009
   4   29444.4    339.6   0.000021769   0.00024  -0.00016   0.00005  -0.01560
   5   28906.3    345.9   0.035669384   0.40624  -0.00011  -0.00000  -0.63737
   6   28700.6    348.4   0.000000781   0.00001  -0.00063   0.00015  -0.00292
   7   28695.9    348.5   0.015137832   0.17367   0.41672  -0.00386  -0.00006
   8   29390.9    340.2   0.000069326   0.00078   0.00002   0.00008   0.02787
   9   30146.5    331.7   0.011378535   0.12426   0.00022  -0.00021   0.35250
  10   29926.7    334.2   0.000785421   0.00864  -0.00952  -0.09246  -0.00076
  11   31585.1    316.6   0.051206921   0.53373  -0.00001   0.00002   0.73057
  12   30576.7    327.0   0.000307605   0.00331  -0.05712  -0.00684  -0.00156
  13   30622.4    326.6   0.003843540   0.04132   0.00037   0.00002  -0.20327
  14   31050.7    322.1   0.076170900   0.80759  -0.89860   0.01079  -0.00063
  15   30954.1    323.1   0.000120789   0.00128  -0.03375   0.00016   0.01206
  16   30854.9    324.1   0.001433855   0.01530   0.04387   0.00683  -0.11545
  17   31027.0    322.3   0.079239878   0.84078  -0.89072  -0.21767  -0.00394
  18   33503.6    298.5   0.592678773   5.82377  -2.41209   0.07469  -0.00089
  19   33727.1    296.5   0.009792645   0.09559  -0.00161   0.00004   0.30917
  20   33927.8    294.7   0.017164744   0.16655   0.23364   0.33462  -0.00022
  21   34275.8    291.8   0.000057868   0.00056   0.00177  -0.00011  -0.02351
  22   34604.6    289.0   1.160054803  11.03621  -3.32206  -0.01171   0.00000
  23   32352.5    309.1   0.064020048   0.65145   0.00024  -0.00010  -0.80713
  24   35182.6    284.2   0.154683605   1.44741   1.20297   0.01648   0.00019
  25   39326.6    254.3   0.022628299   0.18943   0.00765   0.43516  -0.00080
  26   39309.5    254.4   0.034865327   0.29199   0.00003  -0.00065  -0.54036
  27   39548.4    252.9   0.000012283   0.00010   0.00057  -0.00015   0.01010
  28   39530.1    253.0   0.005893473   0.04908   0.22129  -0.01050   0.00012
  29   39342.8    254.2   0.222332762   1.86043   0.05837  -1.36273   0.00003
  30   39755.2    251.5   0.095649248   0.79207  -0.00908   0.88994   0.00001

FINAL SINGLE POINT ENERGY     -4520.419886448312

DIPOLE MOMENT
-------------
                                X             Y             Z
Electronic contribution:      0.00010       0.00363      -0.22616
Nuclear contribution   :     -0.00016      -0.00468       0.26689
                        -----------------------------------------
Total Dipole Moment    :     -0.00006      -0.00105       0.04073
                        -----------------------------------------
Magnitude (a.u.)       :      0.04074
Magnitude (Debye)      :      0.10355

Rotational constants in cm-1:     0.001689     0.000890     0.000662
Rotational constants in MHz :    50.636708    26.686424    19.835733

                             ****ORCA TERMINATED NORMALLY****
TOTAL RUN TIME: 7 days 10 hours 0 minutes 19 seconds 439 msec
