                         Program Version 5.0.2 -  RELEASE  -
|  1> %maxcore 24000
|  2> %pal
|  3>  nprocs= 8
|  4> end
|  5> ! RI-DSD-BLYP D3BJ def2-TZVP def2/J def2-TZVP/C RIJCOSX CPCM TightSCF
|  6> %TDDFT
|  7>    NROOTS   30
|  8>    dcorr 4
|  9>    doscs true
| 10>    scspar 0.333, 1.2, 0.43, 1.24
| 11>    TDA      FALSE
| 12> END
| 13>
| 14> %CPCM
| 15>    SMD          TRUE
| 16>    SMDsolvent   "DICHLOROMETHANE"
| 17> END
| 18>
| 19>
| 20> * xyz 0 1
| 21> C                   2.25498900   -1.41242200    0.83088600
| 22> C                   1.22611500   -0.69583000    0.21135600
| 23> C                   0.00493300   -1.39792800   -0.00562900
| 24> C                   0.01042000   -2.81251500   -0.00659100
| 25> C                   1.12129500   -3.50904100    0.49256700
| 26> C                   2.17569300   -2.79665900    1.00688800
| 27> C                  -1.22133800   -0.70463000   -0.22082200
| 28> C                  -1.09477100   -3.51816200   -0.50590000
| 29> H                   2.96257300   -3.32666300    1.52829200
| 30> C                  -2.15492100   -2.81201700   -1.01771800
| 31> C                  -2.24538800   -1.42879600   -0.83973100
| 32> H                  -2.93782600   -3.34711400   -1.53962200
| 33> C                   1.22134000    0.70485900   -0.22081400
| 34> C                  -0.00493400    1.39815700   -0.00563500
| 35> C                   2.24539800    1.42902200   -0.83971600
| 36> C                  -1.22611800    0.69606200    0.21134400
| 37> C                  -0.01042000    2.81274600   -0.00660000
| 38> C                   2.15494600    2.81224700   -1.01768100
| 39> C                  -2.25499800    1.41265500    0.83086800
| 40> C                  -1.12130800    3.50927300    0.49253300
| 41> C                   1.09478900    3.51839200   -0.50587800
| 42> H                   2.93785100    3.34734000   -1.53958700
| 43> C                  -2.17571000    2.79689600    1.00684900
| 44> H                  -2.96258000    3.32690100    1.52826500
| 45> C                   1.12759000   -4.97842900    0.53013600
| 46> O                   2.04941900   -5.62115000    0.99625400
| 47> C                  -1.09771900   -4.98966800   -0.54948300
| 48> O                  -2.02439300   -5.62127600   -1.01959000
| 49> N                   0.02016100   -5.62649100   -0.01042800
| 50> C                  -1.12758100    4.97866000    0.53014300
| 51> O                  -2.04937800    5.62138200    0.99632400
| 52> C                   1.09772300    4.98989500   -0.54949400
| 53> O                   2.02439400    5.62150300   -1.01960700
| 54> N                  -0.02016900    5.62671900   -0.01046200
| 55> C                   0.05875300   -7.08120700    0.00462200
| 56> H                   0.93046300   -7.43603900   -0.54064000
| 57> H                  -0.84583600   -7.45113700   -0.46211400
| 58> H                   0.12270800   -7.44276900    1.02872300
| 59> C                  -0.05876300    7.08143700    0.00456800
| 60> H                  -0.93068900    7.43623500   -0.54036600
| 61> H                   0.84564600    7.45136100   -0.46252200
| 62> H                  -0.12232200    7.44304300    1.02868000
| 63> S                   3.57178500    0.67502400   -1.76927100
| 64> S                   3.57170700   -0.64788600    1.76482300
| 65> S                  -3.57184100   -0.67481800   -1.76919200
| 66> S                  -3.57163700    0.64809900    1.76491400
| 67> O                  -3.50346600    0.75725100   -1.63144600
| 68> O                  -3.43718700   -1.23408600   -3.09309800
| 69> O                  -3.42871100    1.19738700    3.09213100
| 70> O                  -3.50108900   -0.78278700    1.61644500
| 71> O                   3.50137700    0.78298600    1.61611400
| 72> O                   3.42871900   -1.19691300    3.09214100
| 73> O                   3.50319700   -0.75705700   -1.63176500
| 74> O                   3.43720800    1.23454900   -3.09307700
| 75> C                  -5.13413300    1.22191400    1.14923300
| 76> C                  -6.23966500    0.60898000    1.73510100
| 77> C                  -5.28958100    2.25418700    0.23580100
| 78> C                  -7.51011300    1.04479900    1.40353600
| 79> H                  -6.10364100   -0.19802900    2.44463300
| 80> C                  -6.56999900    2.67894300   -0.08861500
| 81> H                  -4.43467800    2.71571800   -0.23605800
| 82> C                  -7.67625300    2.08132800    0.49458800
| 83> H                  -8.37165500    0.56950400    1.85453100
| 84> H                  -6.69689900    3.48200900   -0.80284000
| 85> H                  -8.67184300    2.41976500    0.23745800
| 86> C                  -5.12970600   -1.24439500   -1.13843000
| 87> C                  -6.23862800   -0.61295700   -1.69725600
| 88> C                  -5.27988200   -2.29194200   -0.24166200
| 89> C                  -7.50748600   -1.04688700   -1.35697200
| 90> H                  -6.10615800    0.20757700   -2.39169900
| 91> C                  -6.55852200   -2.71390400    0.09269500
| 92> H                  -4.42193700   -2.76687300    0.21117100
| 93> C                  -7.66845100   -2.09884800   -0.46506800
| 94> H                  -8.37178400   -0.55767200   -1.78735000
| 95> H                  -6.68129400   -3.52827000    0.79471800
| 96> H                  -8.66279100   -2.43531500   -0.20060000
| 97> C                   5.13408300   -1.22211700    1.14920400
| 98> C                   6.23975600   -0.60974300    1.73539600
| 99> C                   5.28929300   -2.25413500    0.23544200
|100> C                   7.51009700   -1.04586100    1.40381800
|101> H                   6.10392700    0.19706700    2.44519500
|102> C                   6.56960900   -2.67921600   -0.08895800
|103> H                   4.43429000   -2.71520700   -0.23668300
|104> C                   7.67599600   -2.08215300    0.49455500
|105> H                   8.37174600   -0.57098800    1.85505300
|106> H                   6.69632200   -3.48209600   -0.80342600
|107> H                   8.67150300   -2.42083700    0.23742600
|108> C                   5.12975200    1.24420000   -1.13842000
|109> C                   6.23854400    0.61224000   -1.69690600
|110> C                   5.28013400    2.29198500   -0.24196800
|111> C                   7.50749300    1.04589300   -1.35660000
|112> H                   6.10590000   -0.20848900   -2.39108400
|113> C                   6.55885700    2.71365200    0.09243200
|114> H                   4.42227100    2.76732600    0.21059300
|115> C                   7.66866600    2.09807900   -0.46500200
|116> H                   8.37169600    0.55628000   -1.78671600
|117> H                   6.68179200    3.52819500    0.79422100
|118> H                   8.66307700    2.43431900   -0.20050800
|119> *
|120>
|121>
|122>                          ****END OF INPUT****

CARTESIAN COORDINATES (ANGSTROEM)
---------------------------------
  C      2.254989   -1.412422    0.830886
  C      1.226115   -0.695830    0.211356
  C      0.004933   -1.397928   -0.005629
  C      0.010420   -2.812515   -0.006591
  C      1.121295   -3.509041    0.492567
  C      2.175693   -2.796659    1.006888
  C     -1.221338   -0.704630   -0.220822
  C     -1.094771   -3.518162   -0.505900
  H      2.962573   -3.326663    1.528292
  C     -2.154921   -2.812017   -1.017718
  C     -2.245388   -1.428796   -0.839731
  H     -2.937826   -3.347114   -1.539622
  C      1.221340    0.704859   -0.220814
  C     -0.004934    1.398157   -0.005635
  C      2.245398    1.429022   -0.839716
  C     -1.226118    0.696062    0.211344
  C     -0.010420    2.812746   -0.006600
  C      2.154946    2.812247   -1.017681
  C     -2.254998    1.412655    0.830868
  C     -1.121308    3.509273    0.492533
  C      1.094789    3.518392   -0.505878
  H      2.937851    3.347340   -1.539587
  C     -2.175710    2.796896    1.006849
  H     -2.962580    3.326901    1.528265
  C      1.127590   -4.978429    0.530136
  O      2.049419   -5.621150    0.996254
  C     -1.097719   -4.989668   -0.549483
  O     -2.024393   -5.621276   -1.019590
  N      0.020161   -5.626491   -0.010428
  C     -1.127581    4.978660    0.530143
  O     -2.049378    5.621382    0.996324
  C      1.097723    4.989895   -0.549494
  O      2.024394    5.621503   -1.019607
  N     -0.020169    5.626719   -0.010462
  C      0.058753   -7.081207    0.004622
  H      0.930463   -7.436039   -0.540640
  H     -0.845836   -7.451137   -0.462114
  H      0.122708   -7.442769    1.028723
  C     -0.058763    7.081437    0.004568
  H     -0.930689    7.436235   -0.540366
  H      0.845646    7.451361   -0.462522
  H     -0.122322    7.443043    1.028680
  S      3.571785    0.675024   -1.769271
  S      3.571707   -0.647886    1.764823
  S     -3.571841   -0.674818   -1.769192
  S     -3.571637    0.648099    1.764914
  O     -3.503466    0.757251   -1.631446
  O     -3.437187   -1.234086   -3.093098
  O     -3.428711    1.197387    3.092131
  O     -3.501089   -0.782787    1.616445
  O      3.501377    0.782986    1.616114
  O      3.428719   -1.196913    3.092141
  O      3.503197   -0.757057   -1.631765
  O      3.437208    1.234549   -3.093077
  C     -5.134133    1.221914    1.149233
  C     -6.239665    0.608980    1.735101
  C     -5.289581    2.254187    0.235801
  C     -7.510113    1.044799    1.403536
  H     -6.103641   -0.198029    2.444633
  C     -6.569999    2.678943   -0.088615
  H     -4.434678    2.715718   -0.236058
  C     -7.676253    2.081328    0.494588
  H     -8.371655    0.569504    1.854531
  H     -6.696899    3.482009   -0.802840
  H     -8.671843    2.419765    0.237458
  C     -5.129706   -1.244395   -1.138430
  C     -6.238628   -0.612957   -1.697256
  C     -5.279882   -2.291942   -0.241662
  C     -7.507486   -1.046887   -1.356972
  H     -6.106158    0.207577   -2.391699
  C     -6.558522   -2.713904    0.092695
  H     -4.421937   -2.766873    0.211171
  C     -7.668451   -2.098848   -0.465068
  H     -8.371784   -0.557672   -1.787350
  H     -6.681294   -3.528270    0.794718
  H     -8.662791   -2.435315   -0.200600
  C      5.134083   -1.222117    1.149204
  C      6.239756   -0.609743    1.735396
  C      5.289293   -2.254135    0.235442
  C      7.510097   -1.045861    1.403818
  H      6.103927    0.197067    2.445195
  C      6.569609   -2.679216   -0.088958
  H      4.434290   -2.715207   -0.236683
  C      7.675996   -2.082153    0.494555
  H      8.371746   -0.570988    1.855053
  H      6.696322   -3.482096   -0.803426
  H      8.671503   -2.420837    0.237426
  C      5.129752    1.244200   -1.138420
  C      6.238544    0.612240   -1.696906
  C      5.280134    2.291985   -0.241968
  C      7.507493    1.045893   -1.356600
  H      6.105900   -0.208489   -2.391084
  C      6.558857    2.713652    0.092432
  H      4.422271    2.767326    0.210593
  C      7.668666    2.098079   -0.465002
  H      8.371696    0.556280   -1.786716
  H      6.681792    3.528195    0.794221
  H      8.663077    2.434319   -0.200508

 Total Charge           Charge          ....    0
 Multiplicity           Mult            ....    1
 Number of Electrons    NEL             ....  504
 Basis Dimension        Dim             .... 2312

ORBITAL ENERGIES
----------------

  NO   OCC          E(Eh)            E(eV)
   0   2.0000     -90.985811     -2475.8498
   1   2.0000     -90.985809     -2475.8497
   2   2.0000     -90.985732     -2475.8476
   3   2.0000     -90.985730     -2475.8476
   4   2.0000     -20.012993      -544.5812
   5   2.0000     -20.012992      -544.5812
   6   2.0000     -20.012955      -544.5802
   7   2.0000     -20.012954      -544.5802
   8   2.0000     -20.008197      -544.4507
   9   2.0000     -20.008195      -544.4507
  10   2.0000     -20.008147      -544.4494
  11   2.0000     -20.008146      -544.4493
  12   2.0000     -20.004953      -544.3624
  13   2.0000     -20.004953      -544.3624
  14   2.0000     -20.004846      -544.3595
  15   2.0000     -20.004845      -544.3595
  16   2.0000     -15.149808      -412.2472
  17   2.0000     -15.149808      -412.2472
  18   2.0000     -10.974514      -298.6317
  19   2.0000     -10.974513      -298.6317
  20   2.0000     -10.972220      -298.5693
  21   2.0000     -10.972219      -298.5693
  22   2.0000     -10.911820      -296.9257
  23   2.0000     -10.911815      -296.9256
  24   2.0000     -10.911184      -296.9084
  25   2.0000     -10.911169      -296.9080
  26   2.0000     -10.898102      -296.5524
  27   2.0000     -10.898101      -296.5524
  28   2.0000     -10.898074      -296.5517
  29   2.0000     -10.898072      -296.5516
  30   2.0000     -10.888334      -296.2866
  31   2.0000     -10.888330      -296.2865
  32   2.0000     -10.887413      -296.2616
  33   2.0000     -10.887411      -296.2615
  34   2.0000     -10.878461      -296.0180
  35   2.0000     -10.878459      -296.0179
  36   2.0000     -10.878305      -296.0137
  37   2.0000     -10.878302      -296.0137
  38   2.0000     -10.872535      -295.8567
  39   2.0000     -10.872534      -295.8567
  40   2.0000     -10.872323      -295.8510
  41   2.0000     -10.872322      -295.8509
  42   2.0000     -10.869429      -295.7722
  43   2.0000     -10.869426      -295.7721
  44   2.0000     -10.869229      -295.7668
  45   2.0000     -10.869225      -295.7667
  46   2.0000     -10.849898      -295.2407
  47   2.0000     -10.849898      -295.2407
  48   2.0000     -10.849314      -295.2248
  49   2.0000     -10.849313      -295.2248
  50   2.0000     -10.849245      -295.2230
  51   2.0000     -10.849243      -295.2229
  52   2.0000     -10.849133      -295.2199
  53   2.0000     -10.849130      -295.2198
  54   2.0000     -10.848947      -295.2148
  55   2.0000     -10.848943      -295.2148
  56   2.0000     -10.840276      -294.9789
  57   2.0000     -10.840275      -294.9789
  58   2.0000     -10.840191      -294.9766
  59   2.0000     -10.840189      -294.9766
  60   2.0000     -10.837095      -294.8923
  61   2.0000     -10.837092      -294.8923
  62   2.0000     -10.836950      -294.8884
  63   2.0000     -10.836947      -294.8883
  64   2.0000     -10.836701      -294.8816
  65   2.0000     -10.836700      -294.8816
  66   2.0000     -10.836617      -294.8793
  67   2.0000     -10.836615      -294.8793
  68   2.0000      -8.751750      -238.1472
  69   2.0000      -8.751748      -238.1472
  70   2.0000      -8.751670      -238.1451
  71   2.0000      -8.751669      -238.1450
  72   2.0000      -6.545396      -178.1093
  73   2.0000      -6.545394      -178.1092
  74   2.0000      -6.545304      -178.1068
  75   2.0000      -6.545302      -178.1067
  76   2.0000      -6.544144      -178.0752
  77   2.0000      -6.544143      -178.0752
  78   2.0000      -6.544077      -178.0734
  79   2.0000      -6.544075      -178.0733
  80   2.0000      -6.543751      -178.0645
  81   2.0000      -6.543750      -178.0645
  82   2.0000      -6.543672      -178.0624
  83   2.0000      -6.543670      -178.0623
  84   2.0000      -1.342331       -36.5267
  85   2.0000      -1.342305       -36.5260
  86   2.0000      -1.340084       -36.4655
  87   2.0000      -1.340082       -36.4655
  88   2.0000      -1.296547       -35.2808
  89   2.0000      -1.296544       -35.2808
  90   2.0000      -1.276473       -34.7346
  91   2.0000      -1.276473       -34.7346
  92   2.0000      -1.228815       -33.4378
  93   2.0000      -1.228802       -33.4374
  94   2.0000      -1.227803       -33.4102
  95   2.0000      -1.227796       -33.4100
  96   2.0000      -1.155022       -31.4297
  97   2.0000      -1.153012       -31.3750
  98   2.0000      -1.141845       -31.0712
  99   2.0000      -1.111707       -30.2511
 100   2.0000      -1.077787       -29.3281
 101   2.0000      -1.066580       -29.0231
 102   2.0000      -1.065763       -29.0009
 103   2.0000      -1.064942       -28.9785
 104   2.0000      -1.062845       -28.9215
 105   2.0000      -1.055109       -28.7110
 106   2.0000      -1.049071       -28.5467
 107   2.0000      -0.996271       -27.1099
 108   2.0000      -0.987660       -26.8756
 109   2.0000      -0.979588       -26.6560
 110   2.0000      -0.969802       -26.3897
 111   2.0000      -0.957424       -26.0528
 112   2.0000      -0.955547       -26.0018
 113   2.0000      -0.948024       -25.7970
 114   2.0000      -0.944624       -25.7045
 115   2.0000      -0.935963       -25.4688
 116   2.0000      -0.932069       -25.3629
 117   2.0000      -0.931544       -25.3486
 118   2.0000      -0.931429       -25.3455
 119   2.0000      -0.930483       -25.3197
 120   2.0000      -0.898356       -24.4455
 121   2.0000      -0.892177       -24.2774
 122   2.0000      -0.881077       -23.9753
 123   2.0000      -0.852898       -23.2085
 124   2.0000      -0.844069       -22.9683
 125   2.0000      -0.841368       -22.8948
 126   2.0000      -0.838207       -22.8088
 127   2.0000      -0.832472       -22.6527
 128   2.0000      -0.815033       -22.1782
 129   2.0000      -0.806923       -21.9575
 130   2.0000      -0.793947       -21.6044
 131   2.0000      -0.786606       -21.4046
 132   2.0000      -0.785768       -21.3818
 133   2.0000      -0.764303       -20.7977
 134   2.0000      -0.764049       -20.7908
 135   2.0000      -0.762263       -20.7422
 136   2.0000      -0.759726       -20.6732
 137   2.0000      -0.759515       -20.6674
 138   2.0000      -0.743370       -20.2281
 139   2.0000      -0.740877       -20.1603
 140   2.0000      -0.737095       -20.0574
 141   2.0000      -0.726220       -19.7615
 142   2.0000      -0.713471       -19.4145
 143   2.0000      -0.696084       -18.9414
 144   2.0000      -0.695659       -18.9298
 145   2.0000      -0.682169       -18.5628
 146   2.0000      -0.677793       -18.4437
 147   2.0000      -0.673672       -18.3315
 148   2.0000      -0.671924       -18.2840
 149   2.0000      -0.664303       -18.0766
 150   2.0000      -0.659449       -17.9445
 151   2.0000      -0.655870       -17.8471
 152   2.0000      -0.634036       -17.2530
 153   2.0000      -0.632990       -17.2245
 154   2.0000      -0.632491       -17.2109
 155   2.0000      -0.621976       -16.9248
 156   2.0000      -0.615144       -16.7389
 157   2.0000      -0.614583       -16.7237
 158   2.0000      -0.612907       -16.6781
 159   2.0000      -0.608049       -16.5458
 160   2.0000      -0.607909       -16.5420
 161   2.0000      -0.607345       -16.5267
 162   2.0000      -0.606515       -16.5041
 163   2.0000      -0.604288       -16.4435
 164   2.0000      -0.600480       -16.3399
 165   2.0000      -0.596599       -16.2343
 166   2.0000      -0.594417       -16.1749
 167   2.0000      -0.588490       -16.0136
 168   2.0000      -0.588426       -16.0119
 169   2.0000      -0.584357       -15.9012
 170   2.0000      -0.583948       -15.8900
 171   2.0000      -0.583557       -15.8794
 172   2.0000      -0.579930       -15.7807
 173   2.0000      -0.577610       -15.7176
 174   2.0000      -0.577587       -15.7169
 175   2.0000      -0.577433       -15.7128
 176   2.0000      -0.570879       -15.5344
 177   2.0000      -0.570792       -15.5320
 178   2.0000      -0.567097       -15.4315
 179   2.0000      -0.562948       -15.3186
 180   2.0000      -0.562626       -15.3098
 181   2.0000      -0.562194       -15.2981
 182   2.0000      -0.556564       -15.1449
 183   2.0000      -0.555088       -15.1047
 184   2.0000      -0.553795       -15.0695
 185   2.0000      -0.551477       -15.0064
 186   2.0000      -0.540494       -14.7076
 187   2.0000      -0.540373       -14.7043
 188   2.0000      -0.539958       -14.6930
 189   2.0000      -0.539707       -14.6862
 190   2.0000      -0.539174       -14.6717
 191   2.0000      -0.532022       -14.4771
 192   2.0000      -0.525217       -14.2919
 193   2.0000      -0.514696       -14.0056
 194   2.0000      -0.511169       -13.9096
 195   2.0000      -0.509751       -13.8710
 196   2.0000      -0.504967       -13.7408
 197   2.0000      -0.501172       -13.6376
 198   2.0000      -0.498196       -13.5566
 199   2.0000      -0.495032       -13.4705
 200   2.0000      -0.492604       -13.4044
 201   2.0000      -0.492268       -13.3953
 202   2.0000      -0.490965       -13.3598
 203   2.0000      -0.487924       -13.2771
 204   2.0000      -0.485654       -13.2153
 205   2.0000      -0.485165       -13.2020
 206   2.0000      -0.484952       -13.1962
 207   2.0000      -0.484136       -13.1740
 208   2.0000      -0.470864       -12.8128
 209   2.0000      -0.470058       -12.7909
 210   2.0000      -0.466350       -12.6900
 211   2.0000      -0.465600       -12.6696
 212   2.0000      -0.455769       -12.4021
 213   2.0000      -0.454411       -12.3652
 214   2.0000      -0.454176       -12.3588
 215   2.0000      -0.454128       -12.3574
 216   2.0000      -0.450663       -12.2632
 217   2.0000      -0.450240       -12.2516
 218   2.0000      -0.449962       -12.2441
 219   2.0000      -0.449703       -12.2370
 220   2.0000      -0.447313       -12.1720
 221   2.0000      -0.444914       -12.1067
 222   2.0000      -0.443703       -12.0738
 223   2.0000      -0.440834       -11.9957
 224   2.0000      -0.436219       -11.8701
 225   2.0000      -0.428049       -11.6478
 226   2.0000      -0.427153       -11.6234
 227   2.0000      -0.416700       -11.3390
 228   2.0000      -0.415670       -11.3110
 229   2.0000      -0.413487       -11.2516
 230   2.0000      -0.412731       -11.2310
 231   2.0000      -0.405295       -11.0287
 232   2.0000      -0.402219       -10.9449
 233   2.0000      -0.399720       -10.8769
 234   2.0000      -0.397180       -10.8078
 235   2.0000      -0.390648       -10.6301
 236   2.0000      -0.390458       -10.6249
 237   2.0000      -0.370424       -10.0797
 238   2.0000      -0.367468        -9.9993
 239   2.0000      -0.349270        -9.5041
 240   2.0000      -0.340749        -9.2723
 241   2.0000      -0.336801        -9.1648
 242   2.0000      -0.336725        -9.1628
 243   2.0000      -0.336610        -9.1596
 244   2.0000      -0.332198        -9.0396
 245   2.0000      -0.327254        -8.9050
 246   2.0000      -0.326626        -8.8880
 247   2.0000      -0.319091        -8.6829
 248   2.0000      -0.318773        -8.6743
 249   2.0000      -0.316568        -8.6142
 250   2.0000      -0.316470        -8.6116
 251   2.0000      -0.282746        -7.6939
 252   0.0000      -0.086454        -2.3525
 253   0.0000      -0.013851        -0.3769
 254   0.0000      -0.004897        -0.1333
 255   0.0000       0.008181         0.2226
 256   0.0000       0.014247         0.3877

MULLIKEN ATOMIC CHARGES
-----------------------
   0 C :   -0.080699
   1 C :    0.222365
   2 C :   -0.007427
   3 C :    0.173189
   4 C :    0.081742
   5 C :   -0.334050
   6 C :    0.221544
   7 C :    0.078982
   8 H :    0.212383
   9 C :   -0.329650
  10 C :   -0.082895
  11 H :    0.213530
  12 C :    0.222670
  13 C :   -0.008191
  14 C :   -0.080913
  15 C :    0.225348
  16 C :    0.172140
  17 C :   -0.330415
  18 C :   -0.080519
  19 C :    0.081790
  20 C :    0.078023
  21 H :    0.213386
  22 C :   -0.334407
  23 H :    0.212372
  24 C :    0.296037
  25 O :   -0.468198
  26 C :    0.288748
  27 O :   -0.472694
  28 N :   -0.116628
  29 C :    0.297042
  30 O :   -0.468196
  31 C :    0.290003
  32 O :   -0.472611
  33 N :   -0.116877
  34 C :   -0.275237
  35 H :    0.146366
  36 H :    0.170499
  37 H :    0.146067
  38 C :   -0.275193
  39 H :    0.146369
  40 H :    0.170501
  41 H :    0.146062
  42 S :    1.010417
  43 S :    1.009623
  44 S :    1.010086
  45 S :    1.009671
  46 O :   -0.596731
  47 O :   -0.579949
  48 O :   -0.580100
  49 O :   -0.595676
  50 O :   -0.595635
  51 O :   -0.580079
  52 O :   -0.596812
  53 O :   -0.579940
  54 C :    0.059757
  55 C :   -0.235932
  56 C :   -0.074348
  57 C :   -0.164188
  58 H :    0.166096
  59 C :   -0.194021
  60 H :    0.192563
  61 C :   -0.118275
  62 H :    0.162137
  63 H :    0.163700
  64 H :    0.165428
  65 C :    0.053246
  66 C :   -0.227335
  67 C :   -0.074597
  68 C :   -0.164861
  69 H :    0.166694
  70 C :   -0.194872
  71 H :    0.192815
  72 C :   -0.118765
  73 H :    0.161890
  74 H :    0.163952
  75 H :    0.165284
  76 C :    0.059713
  77 C :   -0.236024
  78 C :   -0.074163
  79 C :   -0.164150
  80 H :    0.166107
  81 C :   -0.194137
  82 H :    0.192549
  83 C :   -0.118294
  84 H :    0.162156
  85 H :    0.163686
  86 H :    0.165428
  87 C :    0.053653
  88 C :   -0.227059
  89 C :   -0.075137
  90 C :   -0.164822
  91 H :    0.166704
  92 C :   -0.194874
  93 H :    0.192778
  94 C :   -0.118831
  95 H :    0.161879
  96 H :    0.163952
  97 H :    0.165288
Sum of atomic charges:   -0.0000000

LOEWDIN ATOMIC CHARGES
----------------------
   0 C :   -0.196448
   1 C :    0.001269
   2 C :    0.020193
   3 C :    0.007711
   4 C :   -0.060229
   5 C :   -0.030783
   6 C :    0.001216
   7 C :   -0.059449
   8 H :    0.176408
   9 C :   -0.031183
  10 C :   -0.196208
  11 H :    0.176254
  12 C :    0.001216
  13 C :    0.020189
  14 C :   -0.196201
  15 C :    0.001272
  16 C :    0.007710
  17 C :   -0.031190
  18 C :   -0.196444
  19 C :   -0.060229
  20 C :   -0.059449
  21 H :    0.176252
  22 C :   -0.030789
  23 H :    0.176405
  24 C :   -0.293766
  25 O :    0.052197
  26 C :   -0.293329
  27 O :    0.046401
  28 N :    0.229588
  29 C :   -0.293763
  30 O :    0.052196
  31 C :   -0.293330
  32 O :    0.046405
  33 N :    0.229589
  34 C :   -0.236007
  35 H :    0.123190
  36 H :    0.128702
  37 H :    0.123014
  38 C :   -0.236008
  39 H :    0.123192
  40 H :    0.128702
  41 H :    0.123012
  42 S :    0.861268
  43 S :    0.861140
  44 S :    0.861264
  45 S :    0.861142
  46 O :   -0.299139
  47 O :   -0.325594
  48 O :   -0.325501
  49 O :   -0.298631
  50 O :   -0.298620
  51 O :   -0.325499
  52 O :   -0.299149
  53 O :   -0.325595
  54 C :   -0.268017
  55 C :   -0.111910
  56 C :   -0.113942
  57 C :   -0.125797
  58 H :    0.159241
  59 C :   -0.129668
  60 H :    0.159346
  61 C :   -0.113878
  62 H :    0.154653
  63 H :    0.154849
  64 H :    0.154376
  65 C :   -0.268429
  66 C :   -0.111706
  67 C :   -0.113946
  68 C :   -0.125807
  69 H :    0.159201
  70 C :   -0.129953
  71 H :    0.159370
  72 C :   -0.114040
  73 H :    0.154603
  74 H :    0.154816
  75 H :    0.154355
  76 C :   -0.268009
  77 C :   -0.111914
  78 C :   -0.113942
  79 C :   -0.125797
  80 H :    0.159242
  81 C :   -0.129663
  82 H :    0.159345
  83 C :   -0.113875
  84 H :    0.154654
  85 H :    0.154849
  86 H :    0.154376
  87 C :   -0.268439
  88 C :   -0.111700
  89 C :   -0.113945
  90 C :   -0.125807
  91 H :    0.159201
  92 C :   -0.129959
  93 H :    0.159369
  94 C :   -0.114044
  95 H :    0.154602
  96 H :    0.154816
  97 H :    0.154355

  Mayer bond orders larger than 0.100000
B(  0-C ,  1-C ) :   1.2024 B(  0-C ,  5-C ) :   1.2437 B(  0-C , 12-C ) :  -0.1399
B(  0-C , 14-C ) :   0.1011 B(  0-C , 43-S ) :   0.9670 B(  1-C ,  2-C ) :   1.1539
B(  1-C , 12-C ) :   0.8169 B(  1-C , 14-C ) :  -0.1376 B(  2-C ,  3-C ) :   1.3007
B(  2-C ,  6-C ) :   1.1533 B(  3-C ,  4-C ) :   1.2815 B(  3-C ,  7-C ) :   1.2941
B(  4-C ,  5-C ) :   1.3981 B(  4-C , 24-C ) :   0.9662 B(  4-C , 25-O ) :  -0.1412
B(  5-C ,  8-H ) :   0.9707 B(  6-C , 10-C ) :   1.2038 B(  6-C , 15-C ) :   0.8177
B(  6-C , 18-C ) :  -0.1387 B(  7-C ,  9-C ) :   1.3976 B(  7-C , 26-C ) :   0.9594
B(  7-C , 27-O ) :  -0.1465 B(  9-C , 10-C ) :   1.2424 B(  9-C , 11-H ) :   0.9692
B( 10-C , 15-C ) :  -0.1385 B( 10-C , 18-C ) :   0.1007 B( 10-C , 44-S ) :   0.9664
B( 12-C , 13-C ) :   1.1541 B( 12-C , 14-C ) :   1.2041 B( 13-C , 15-C ) :   1.1534
B( 13-C , 16-C ) :   1.2995 B( 14-C , 17-C ) :   1.2427 B( 14-C , 42-S ) :   0.9658
B( 15-C , 18-C ) :   1.2015 B( 16-C , 19-C ) :   1.2817 B( 16-C , 20-C ) :   1.2935
B( 17-C , 20-C ) :   1.3971 B( 17-C , 21-H ) :   0.9698 B( 18-C , 22-C ) :   1.2435
B( 18-C , 45-S ) :   0.9667 B( 19-C , 22-C ) :   1.3975 B( 19-C , 29-C ) :   0.9664
B( 19-C , 30-O ) :  -0.1414 B( 20-C , 31-C ) :   0.9600 B( 20-C , 32-O ) :  -0.1461
B( 22-C , 23-H ) :   0.9710 B( 24-C , 25-O ) :   2.0059 B( 24-C , 28-N ) :   1.1802
B( 26-C , 27-O ) :   2.0018 B( 26-C , 28-N ) :   1.1964 B( 28-N , 34-C ) :   0.8615
B( 29-C , 30-O ) :   2.0058 B( 29-C , 33-N ) :   1.1799 B( 31-C , 32-O ) :   2.0009
B( 31-C , 33-N ) :   1.1962 B( 33-N , 38-C ) :   0.8616 B( 34-C , 35-H ) :   0.9742
B( 34-C , 36-H ) :   0.9653 B( 34-C , 37-H ) :   0.9742 B( 38-C , 39-H ) :   0.9742
B( 38-C , 40-H ) :   0.9653 B( 38-C , 41-H ) :   0.9742 B( 42-S , 52-O ) :   1.7346
B( 42-S , 53-O ) :   1.7892 B( 42-S , 87-C ) :   0.9697 B( 43-S , 50-O ) :   1.7358
B( 43-S , 51-O ) :   1.7891 B( 43-S , 76-C ) :   0.9706 B( 44-S , 46-O ) :   1.7346
B( 44-S , 47-O ) :   1.7893 B( 44-S , 65-C ) :   0.9699 B( 45-S , 48-O ) :   1.7890
B( 45-S , 49-O ) :   1.7357 B( 45-S , 54-C ) :   0.9705 B( 54-C , 55-C ) :   1.3111
B( 54-C , 56-C ) :   1.3310 B( 55-C , 57-C ) :   1.4349 B( 55-C , 58-H ) :   0.9724
B( 56-C , 59-C ) :   1.4033 B( 56-C , 60-H ) :   0.9500 B( 57-C , 61-C ) :   1.3824
B( 57-C , 62-H ) :   0.9864 B( 59-C , 61-C ) :   1.4065 B( 59-C , 63-H ) :   0.9863
B( 61-C , 64-H ) :   0.9791 B( 65-C , 66-C ) :   1.3141 B( 65-C , 67-C ) :   1.3334
B( 66-C , 68-C ) :   1.4342 B( 66-C , 69-H ) :   0.9705 B( 67-C , 70-C ) :   1.4045
B( 67-C , 71-H ) :   0.9487 B( 68-C , 72-C ) :   1.3839 B( 68-C , 73-H ) :   0.9860
B( 70-C , 72-C ) :   1.4069 B( 70-C , 74-H ) :   0.9863 B( 72-C , 75-H ) :   0.9791
B( 76-C , 77-C ) :   1.3110 B( 76-C , 78-C ) :   1.3310 B( 77-C , 79-C ) :   1.4350
B( 77-C , 80-H ) :   0.9724 B( 78-C , 81-C ) :   1.4034 B( 78-C , 82-H ) :   0.9500
B( 79-C , 83-C ) :   1.3824 B( 79-C , 84-H ) :   0.9864 B( 81-C , 83-C ) :   1.4065
B( 81-C , 85-H ) :   0.9863 B( 83-C , 86-H ) :   0.9791 B( 87-C , 88-C ) :   1.3139
B( 87-C , 89-C ) :   1.3333 B( 88-C , 90-C ) :   1.4342 B( 88-C , 91-H ) :   0.9705
B( 89-C , 92-C ) :   1.4046 B( 89-C , 93-H ) :   0.9489 B( 90-C , 94-C ) :   1.3839
B( 90-C , 95-H ) :   0.9860 B( 92-C , 94-C ) :   1.4068 B( 92-C , 96-H ) :   0.9863
B( 94-C , 97-H ) :   0.9791

MP2 TOTAL ENERGY:    -4525.086092826 Eh

-----------------------------------------------------------------------------
         ABSORPTION SPECTRUM VIA TRANSITION ELECTRIC DIPOLE MOMENTS
-----------------------------------------------------------------------------
State   Energy    Wavelength  fosc         T2        TX        TY        TZ
        (cm-1)      (nm)                 (au**2)    (au)      (au)      (au)
-----------------------------------------------------------------------------
   1   14128.5    707.8   0.447684748  10.43163   0.01153  -3.22978  -0.00001
   2   16230.8    616.1   0.005255924   0.10661   0.00011  -0.00002  -0.32651
   3   15385.4    650.0   0.167919670   3.59309  -1.89553  -0.00757   0.00009
   4   22994.4    434.9   0.000011748   0.00017  -0.00017   0.00005  -0.01297
   5   20417.9    489.8   0.026237457   0.42305  -0.00011  -0.00000  -0.65042
   6   13025.1    767.7   0.000000352   0.00001  -0.00055   0.00015  -0.00293
   7   12847.4    778.4   0.007231650   0.18531  -0.43046   0.00382   0.00008
   8   13541.4    738.5   0.000038793   0.00094  -0.00002  -0.00008  -0.03071
   9   15596.5    641.2   0.010652419   0.22485   0.00024  -0.00010   0.47419
  10   14198.1    704.3   0.000411173   0.00953   0.01010   0.09712   0.00049
  11   18342.7    545.2   0.025553408   0.45863   0.00005  -0.00002  -0.67722
  12   14839.9    673.9   0.012868662   0.28548   0.53430   0.00106   0.00018
  13   15231.6    656.5   0.001480757   0.03200  -0.00069   0.00005   0.17890
  14   14474.4    690.9   0.000024434   0.00056  -0.00150   0.00024  -0.02353
  15   15242.5    656.1   0.037977326   0.82025   0.90562  -0.01003   0.00022
  16   21603.5    462.9   0.488228812   7.44003  -2.72711  -0.05388   0.00037
  17   13785.0    725.4   0.001148869   0.02744   0.00855   0.00123   0.16542
  18   13055.3    766.0   0.014109198   0.35579  -0.55473   0.21924  -0.00086
  19   19892.0    502.7   0.006259528   0.10359   0.00253  -0.00005  -0.32185
  20   20054.8    498.6   0.010447953   0.17151   0.25572   0.32576  -0.00022
  21   20361.8    491.1   0.000032402   0.00052  -0.00221   0.00012   0.02278
  22   20239.5    494.1   0.617559870  10.04513   3.16939   0.00885  -0.00001
  23   12742.9    784.8   0.024591936   0.63533   0.00016  -0.00011  -0.79708
  24   29849.4    335.0   0.018343004   0.20231   0.00044  -0.44978   0.00060
  25   29782.6    335.8   0.027993619   0.30944   0.00002  -0.00047  -0.55627
  26   29851.6    335.0   0.024327981   0.26830   0.51797  -0.00087   0.00029
  27   30214.2    331.0   0.000016006   0.00017  -0.00253  -0.00008   0.01296
  28   20501.5    487.8   0.051208318   0.82230   0.90607   0.03664   0.00010
  29   27637.4    361.8   0.171421734   2.04194   0.06814  -1.42734   0.00004
  30   29627.2    337.5   0.055421281   0.61583  -0.00156  -0.78475  -0.00001

Dispersion correction           -0.137120655
FINAL SINGLE POINT ENERGY     -4519.362831990329

DIPOLE MOMENT
-------------
                                X             Y             Z
Electronic contribution:      0.00010       0.00363      -0.22870
Nuclear contribution   :     -0.00016      -0.00468       0.26689
                        -----------------------------------------
Total Dipole Moment    :     -0.00006      -0.00105       0.03819
                        -----------------------------------------
Magnitude (a.u.)       :      0.03820
Magnitude (Debye)      :      0.09710

Rotational constants in cm-1:     0.001689     0.000890     0.000662
Rotational constants in MHz :    50.636708    26.686424    19.835733

                             ****ORCA TERMINATED NORMALLY****
TOTAL RUN TIME: 2 days 23 hours 39 minutes 16 seconds 195 msec
