                         Program Version 5.0.2 -  RELEASE  -
|  1> %maxcore 20000
|  2> %pal
|  3>  nprocs= 6
|  4> end
|  5> ! RI-wPBEPP86   def2-TZVP def2/J def2-TZVP/C RIJCOSX CPCM TightSCF
|  6> %TDDFT
|  7>    NROOTS   30
|  8>    dcorr 1
|  9>    TDA      FALSE
| 10> END
| 11>
| 12> %CPCM
| 13>    SMD          TRUE
| 14>    SMDsolvent   "DICHLOROMETHANE"
| 15> END
| 16>
| 17>
| 18> * xyz 0 1
| 19> C                   2.25498900   -1.41242200    0.83088600
| 20> C                   1.22611500   -0.69583000    0.21135600
| 21> C                   0.00493300   -1.39792800   -0.00562900
| 22> C                   0.01042000   -2.81251500   -0.00659100
| 23> C                   1.12129500   -3.50904100    0.49256700
| 24> C                   2.17569300   -2.79665900    1.00688800
| 25> C                  -1.22133800   -0.70463000   -0.22082200
| 26> C                  -1.09477100   -3.51816200   -0.50590000
| 27> H                   2.96257300   -3.32666300    1.52829200
| 28> C                  -2.15492100   -2.81201700   -1.01771800
| 29> C                  -2.24538800   -1.42879600   -0.83973100
| 30> H                  -2.93782600   -3.34711400   -1.53962200
| 31> C                   1.22134000    0.70485900   -0.22081400
| 32> C                  -0.00493400    1.39815700   -0.00563500
| 33> C                   2.24539800    1.42902200   -0.83971600
| 34> C                  -1.22611800    0.69606200    0.21134400
| 35> C                  -0.01042000    2.81274600   -0.00660000
| 36> C                   2.15494600    2.81224700   -1.01768100
| 37> C                  -2.25499800    1.41265500    0.83086800
| 38> C                  -1.12130800    3.50927300    0.49253300
| 39> C                   1.09478900    3.51839200   -0.50587800
| 40> H                   2.93785100    3.34734000   -1.53958700
| 41> C                  -2.17571000    2.79689600    1.00684900
| 42> H                  -2.96258000    3.32690100    1.52826500
| 43> C                   1.12759000   -4.97842900    0.53013600
| 44> O                   2.04941900   -5.62115000    0.99625400
| 45> C                  -1.09771900   -4.98966800   -0.54948300
| 46> O                  -2.02439300   -5.62127600   -1.01959000
| 47> N                   0.02016100   -5.62649100   -0.01042800
| 48> C                  -1.12758100    4.97866000    0.53014300
| 49> O                  -2.04937800    5.62138200    0.99632400
| 50> C                   1.09772300    4.98989500   -0.54949400
| 51> O                   2.02439400    5.62150300   -1.01960700
| 52> N                  -0.02016900    5.62671900   -0.01046200
| 53> C                   0.05875300   -7.08120700    0.00462200
| 54> H                   0.93046300   -7.43603900   -0.54064000
| 55> H                  -0.84583600   -7.45113700   -0.46211400
| 56> H                   0.12270800   -7.44276900    1.02872300
| 57> C                  -0.05876300    7.08143700    0.00456800
| 58> H                  -0.93068900    7.43623500   -0.54036600
| 59> H                   0.84564600    7.45136100   -0.46252200
| 60> H                  -0.12232200    7.44304300    1.02868000
| 61> S                   3.57178500    0.67502400   -1.76927100
| 62> S                   3.57170700   -0.64788600    1.76482300
| 63> S                  -3.57184100   -0.67481800   -1.76919200
| 64> S                  -3.57163700    0.64809900    1.76491400
| 65> O                  -3.50346600    0.75725100   -1.63144600
| 66> O                  -3.43718700   -1.23408600   -3.09309800
| 67> O                  -3.42871100    1.19738700    3.09213100
| 68> O                  -3.50108900   -0.78278700    1.61644500
| 69> O                   3.50137700    0.78298600    1.61611400
| 70> O                   3.42871900   -1.19691300    3.09214100
| 71> O                   3.50319700   -0.75705700   -1.63176500
| 72> O                   3.43720800    1.23454900   -3.09307700
| 73> C                  -5.13413300    1.22191400    1.14923300
| 74> C                  -6.23966500    0.60898000    1.73510100
| 75> C                  -5.28958100    2.25418700    0.23580100
| 76> C                  -7.51011300    1.04479900    1.40353600
| 77> H                  -6.10364100   -0.19802900    2.44463300
| 78> C                  -6.56999900    2.67894300   -0.08861500
| 79> H                  -4.43467800    2.71571800   -0.23605800
| 80> C                  -7.67625300    2.08132800    0.49458800
| 81> H                  -8.37165500    0.56950400    1.85453100
| 82> H                  -6.69689900    3.48200900   -0.80284000
| 83> H                  -8.67184300    2.41976500    0.23745800
| 84> C                  -5.12970600   -1.24439500   -1.13843000
| 85> C                  -6.23862800   -0.61295700   -1.69725600
| 86> C                  -5.27988200   -2.29194200   -0.24166200
| 87> C                  -7.50748600   -1.04688700   -1.35697200
| 88> H                  -6.10615800    0.20757700   -2.39169900
| 89> C                  -6.55852200   -2.71390400    0.09269500
| 90> H                  -4.42193700   -2.76687300    0.21117100
| 91> C                  -7.66845100   -2.09884800   -0.46506800
| 92> H                  -8.37178400   -0.55767200   -1.78735000
| 93> H                  -6.68129400   -3.52827000    0.79471800
| 94> H                  -8.66279100   -2.43531500   -0.20060000
| 95> C                   5.13408300   -1.22211700    1.14920400
| 96> C                   6.23975600   -0.60974300    1.73539600
| 97> C                   5.28929300   -2.25413500    0.23544200
| 98> C                   7.51009700   -1.04586100    1.40381800
| 99> H                   6.10392700    0.19706700    2.44519500
|100> C                   6.56960900   -2.67921600   -0.08895800
|101> H                   4.43429000   -2.71520700   -0.23668300
|102> C                   7.67599600   -2.08215300    0.49455500
|103> H                   8.37174600   -0.57098800    1.85505300
|104> H                   6.69632200   -3.48209600   -0.80342600
|105> H                   8.67150300   -2.42083700    0.23742600
|106> C                   5.12975200    1.24420000   -1.13842000
|107> C                   6.23854400    0.61224000   -1.69690600
|108> C                   5.28013400    2.29198500   -0.24196800
|109> C                   7.50749300    1.04589300   -1.35660000
|110> H                   6.10590000   -0.20848900   -2.39108400
|111> C                   6.55885700    2.71365200    0.09243200
|112> H                   4.42227100    2.76732600    0.21059300
|113> C                   7.66866600    2.09807900   -0.46500200
|114> H                   8.37169600    0.55628000   -1.78671600
|115> H                   6.68179200    3.52819500    0.79422100
|116> H                   8.66307700    2.43431900   -0.20050800
|117> *
|118>
|119>
|120>                          ****END OF INPUT****

CARTESIAN COORDINATES (ANGSTROEM)
---------------------------------
  C      2.254989   -1.412422    0.830886
  C      1.226115   -0.695830    0.211356
  C      0.004933   -1.397928   -0.005629
  C      0.010420   -2.812515   -0.006591
  C      1.121295   -3.509041    0.492567
  C      2.175693   -2.796659    1.006888
  C     -1.221338   -0.704630   -0.220822
  C     -1.094771   -3.518162   -0.505900
  H      2.962573   -3.326663    1.528292
  C     -2.154921   -2.812017   -1.017718
  C     -2.245388   -1.428796   -0.839731
  H     -2.937826   -3.347114   -1.539622
  C      1.221340    0.704859   -0.220814
  C     -0.004934    1.398157   -0.005635
  C      2.245398    1.429022   -0.839716
  C     -1.226118    0.696062    0.211344
  C     -0.010420    2.812746   -0.006600
  C      2.154946    2.812247   -1.017681
  C     -2.254998    1.412655    0.830868
  C     -1.121308    3.509273    0.492533
  C      1.094789    3.518392   -0.505878
  H      2.937851    3.347340   -1.539587
  C     -2.175710    2.796896    1.006849
  H     -2.962580    3.326901    1.528265
  C      1.127590   -4.978429    0.530136
  O      2.049419   -5.621150    0.996254
  C     -1.097719   -4.989668   -0.549483
  O     -2.024393   -5.621276   -1.019590
  N      0.020161   -5.626491   -0.010428
  C     -1.127581    4.978660    0.530143
  O     -2.049378    5.621382    0.996324
  C      1.097723    4.989895   -0.549494
  O      2.024394    5.621503   -1.019607
  N     -0.020169    5.626719   -0.010462
  C      0.058753   -7.081207    0.004622
  H      0.930463   -7.436039   -0.540640
  H     -0.845836   -7.451137   -0.462114
  H      0.122708   -7.442769    1.028723
  C     -0.058763    7.081437    0.004568
  H     -0.930689    7.436235   -0.540366
  H      0.845646    7.451361   -0.462522
  H     -0.122322    7.443043    1.028680
  S      3.571785    0.675024   -1.769271
  S      3.571707   -0.647886    1.764823
  S     -3.571841   -0.674818   -1.769192
  S     -3.571637    0.648099    1.764914
  O     -3.503466    0.757251   -1.631446
  O     -3.437187   -1.234086   -3.093098
  O     -3.428711    1.197387    3.092131
  O     -3.501089   -0.782787    1.616445
  O      3.501377    0.782986    1.616114
  O      3.428719   -1.196913    3.092141
  O      3.503197   -0.757057   -1.631765
  O      3.437208    1.234549   -3.093077
  C     -5.134133    1.221914    1.149233
  C     -6.239665    0.608980    1.735101
  C     -5.289581    2.254187    0.235801
  C     -7.510113    1.044799    1.403536
  H     -6.103641   -0.198029    2.444633
  C     -6.569999    2.678943   -0.088615
  H     -4.434678    2.715718   -0.236058
  C     -7.676253    2.081328    0.494588
  H     -8.371655    0.569504    1.854531
  H     -6.696899    3.482009   -0.802840
  H     -8.671843    2.419765    0.237458
  C     -5.129706   -1.244395   -1.138430
  C     -6.238628   -0.612957   -1.697256
  C     -5.279882   -2.291942   -0.241662
  C     -7.507486   -1.046887   -1.356972
  H     -6.106158    0.207577   -2.391699
  C     -6.558522   -2.713904    0.092695
  H     -4.421937   -2.766873    0.211171
  C     -7.668451   -2.098848   -0.465068
  H     -8.371784   -0.557672   -1.787350
  H     -6.681294   -3.528270    0.794718
  H     -8.662791   -2.435315   -0.200600
  C      5.134083   -1.222117    1.149204
  C      6.239756   -0.609743    1.735396
  C      5.289293   -2.254135    0.235442
  C      7.510097   -1.045861    1.403818
  H      6.103927    0.197067    2.445195
  C      6.569609   -2.679216   -0.088958
  H      4.434290   -2.715207   -0.236683
  C      7.675996   -2.082153    0.494555
  H      8.371746   -0.570988    1.855053
  H      6.696322   -3.482096   -0.803426
  H      8.671503   -2.420837    0.237426
  C      5.129752    1.244200   -1.138420
  C      6.238544    0.612240   -1.696906
  C      5.280134    2.291985   -0.241968
  C      7.507493    1.045893   -1.356600
  H      6.105900   -0.208489   -2.391084
  C      6.558857    2.713652    0.092432
  H      4.422271    2.767326    0.210593
  C      7.668666    2.098079   -0.465002
  H      8.371696    0.556280   -1.786716
  H      6.681792    3.528195    0.794221
  H      8.663077    2.434319   -0.200508

 Total Charge           Charge          ....    0
 Multiplicity           Mult            ....    1
 Number of Electrons    NEL             ....  504
 Basis Dimension        Dim             .... 2312

ORBITAL ENERGIES
----------------

  NO   OCC          E(Eh)            E(eV)
   0   2.0000     -91.045816     -2477.4826
   1   2.0000     -91.045815     -2477.4826
   2   2.0000     -91.045740     -2477.4805
   3   2.0000     -91.045738     -2477.4805
   4   2.0000     -20.065025      -545.9971
   5   2.0000     -20.065024      -545.9971
   6   2.0000     -20.064991      -545.9962
   7   2.0000     -20.064991      -545.9962
   8   2.0000     -20.059571      -545.8487
   9   2.0000     -20.059569      -545.8486
  10   2.0000     -20.059523      -545.8474
  11   2.0000     -20.059522      -545.8473
  12   2.0000     -20.055744      -545.7445
  13   2.0000     -20.055744      -545.7445
  14   2.0000     -20.055644      -545.7418
  15   2.0000     -20.055643      -545.7418
  16   2.0000     -15.198056      -413.5601
  17   2.0000     -15.198056      -413.5601
  18   2.0000     -11.015053      -299.7348
  19   2.0000     -11.015052      -299.7348
  20   2.0000     -11.012723      -299.6714
  21   2.0000     -11.012723      -299.6714
  22   2.0000     -10.955656      -298.1185
  23   2.0000     -10.955651      -298.1184
  24   2.0000     -10.955021      -298.1013
  25   2.0000     -10.955006      -298.1009
  26   2.0000     -10.941804      -297.7416
  27   2.0000     -10.941802      -297.7416
  28   2.0000     -10.941777      -297.7409
  29   2.0000     -10.941776      -297.7409
  30   2.0000     -10.931689      -297.4664
  31   2.0000     -10.931684      -297.4662
  32   2.0000     -10.930663      -297.4385
  33   2.0000     -10.930662      -297.4384
  34   2.0000     -10.920607      -297.1648
  35   2.0000     -10.920605      -297.1648
  36   2.0000     -10.920462      -297.1609
  37   2.0000     -10.920460      -297.1608
  38   2.0000     -10.915107      -297.0152
  39   2.0000     -10.915107      -297.0152
  40   2.0000     -10.914880      -297.0090
  41   2.0000     -10.914879      -297.0090
  42   2.0000     -10.911967      -296.9297
  43   2.0000     -10.911964      -296.9296
  44   2.0000     -10.911757      -296.9240
  45   2.0000     -10.911752      -296.9239
  46   2.0000     -10.890212      -296.3377
  47   2.0000     -10.890211      -296.3377
  48   2.0000     -10.890136      -296.3357
  49   2.0000     -10.890134      -296.3356
  50   2.0000     -10.889882      -296.3287
  51   2.0000     -10.889879      -296.3287
  52   2.0000     -10.889708      -296.3240
  53   2.0000     -10.889705      -296.3239
  54   2.0000     -10.886764      -296.2439
  55   2.0000     -10.886763      -296.2439
  56   2.0000     -10.880521      -296.0740
  57   2.0000     -10.880519      -296.0740
  58   2.0000     -10.880435      -296.0717
  59   2.0000     -10.880434      -296.0717
  60   2.0000     -10.877501      -295.9919
  61   2.0000     -10.877499      -295.9918
  62   2.0000     -10.877356      -295.9879
  63   2.0000     -10.877354      -295.9878
  64   2.0000     -10.877031      -295.9791
  65   2.0000     -10.877030      -295.9790
  66   2.0000     -10.876939      -295.9765
  67   2.0000     -10.876937      -295.9765
  68   2.0000      -8.808789      -239.6993
  69   2.0000      -8.808787      -239.6993
  70   2.0000      -8.808712      -239.6972
  71   2.0000      -8.808710      -239.6972
  72   2.0000      -6.592976      -179.4040
  73   2.0000      -6.592974      -179.4039
  74   2.0000      -6.592886      -179.4016
  75   2.0000      -6.592884      -179.4015
  76   2.0000      -6.591688      -179.3689
  77   2.0000      -6.591687      -179.3689
  78   2.0000      -6.591622      -179.3672
  79   2.0000      -6.591621      -179.3671
  80   2.0000      -6.591228      -179.3564
  81   2.0000      -6.591227      -179.3564
  82   2.0000      -6.591152      -179.3544
  83   2.0000      -6.591150      -179.3543
  84   2.0000      -1.394198       -37.9381
  85   2.0000      -1.394170       -37.9373
  86   2.0000      -1.391873       -37.8748
  87   2.0000      -1.391870       -37.8747
  88   2.0000      -1.348919       -36.7059
  89   2.0000      -1.348916       -36.7059
  90   2.0000      -1.328381       -36.1471
  91   2.0000      -1.328381       -36.1471
  92   2.0000      -1.279608       -34.8199
  93   2.0000      -1.279593       -34.8195
  94   2.0000      -1.278544       -34.7910
  95   2.0000      -1.278536       -34.7907
  96   2.0000      -1.206886       -32.8410
  97   2.0000      -1.204212       -32.7683
  98   2.0000      -1.194499       -32.5040
  99   2.0000      -1.164442       -31.6861
 100   2.0000      -1.129972       -30.7481
 101   2.0000      -1.117797       -30.4168
 102   2.0000      -1.117038       -30.3962
 103   2.0000      -1.116222       -30.3739
 104   2.0000      -1.113900       -30.3108
 105   2.0000      -1.106832       -30.1184
 106   2.0000      -1.101127       -29.9632
 107   2.0000      -1.047180       -28.4952
 108   2.0000      -1.038335       -28.2545
 109   2.0000      -1.030316       -28.0363
 110   2.0000      -1.020334       -27.7647
 111   2.0000      -1.006970       -27.4010
 112   2.0000      -1.004986       -27.3471
 113   2.0000      -0.997409       -27.1409
 114   2.0000      -0.993947       -27.0467
 115   2.0000      -0.985427       -26.8148
 116   2.0000      -0.980984       -26.6939
 117   2.0000      -0.980451       -26.6794
 118   2.0000      -0.980310       -26.6756
 119   2.0000      -0.979587       -26.6559
 120   2.0000      -0.947936       -25.7947
 121   2.0000      -0.941348       -25.6154
 122   2.0000      -0.929628       -25.2965
 123   2.0000      -0.901622       -24.5344
 124   2.0000      -0.893034       -24.3007
 125   2.0000      -0.889555       -24.2060
 126   2.0000      -0.886646       -24.1269
 127   2.0000      -0.880872       -23.9697
 128   2.0000      -0.863211       -23.4892
 129   2.0000      -0.855489       -23.2790
 130   2.0000      -0.842018       -22.9125
 131   2.0000      -0.834647       -22.7119
 132   2.0000      -0.833565       -22.6825
 133   2.0000      -0.811077       -22.0705
 134   2.0000      -0.811069       -22.0703
 135   2.0000      -0.809013       -22.0144
 136   2.0000      -0.806640       -21.9498
 137   2.0000      -0.806103       -21.9352
 138   2.0000      -0.791007       -21.5244
 139   2.0000      -0.788065       -21.4443
 140   2.0000      -0.784057       -21.3353
 141   2.0000      -0.772954       -21.0331
 142   2.0000      -0.761412       -20.7191
 143   2.0000      -0.743180       -20.2229
 144   2.0000      -0.742967       -20.2172
 145   2.0000      -0.728575       -19.8255
 146   2.0000      -0.725279       -19.7359
 147   2.0000      -0.720578       -19.6079
 148   2.0000      -0.718919       -19.5628
 149   2.0000      -0.711373       -19.3574
 150   2.0000      -0.706386       -19.2217
 151   2.0000      -0.702783       -19.1237
 152   2.0000      -0.680250       -18.5106
 153   2.0000      -0.680043       -18.5049
 154   2.0000      -0.679392       -18.4872
 155   2.0000      -0.668019       -18.1777
 156   2.0000      -0.660748       -17.9799
 157   2.0000      -0.660352       -17.9691
 158   2.0000      -0.658294       -17.9131
 159   2.0000      -0.654142       -17.8001
 160   2.0000      -0.653144       -17.7730
 161   2.0000      -0.653076       -17.7711
 162   2.0000      -0.652600       -17.7582
 163   2.0000      -0.651545       -17.7294
 164   2.0000      -0.646344       -17.5879
 165   2.0000      -0.641676       -17.4609
 166   2.0000      -0.640336       -17.4244
 167   2.0000      -0.634411       -17.2632
 168   2.0000      -0.634113       -17.2551
 169   2.0000      -0.630388       -17.1537
 170   2.0000      -0.630341       -17.1525
 171   2.0000      -0.628480       -17.1018
 172   2.0000      -0.624536       -16.9945
 173   2.0000      -0.622366       -16.9354
 174   2.0000      -0.622076       -16.9276
 175   2.0000      -0.621734       -16.9182
 176   2.0000      -0.615356       -16.7447
 177   2.0000      -0.614924       -16.7329
 178   2.0000      -0.611577       -16.6419
 179   2.0000      -0.606483       -16.5032
 180   2.0000      -0.605337       -16.4721
 181   2.0000      -0.604741       -16.4558
 182   2.0000      -0.599123       -16.3030
 183   2.0000      -0.597559       -16.2604
 184   2.0000      -0.597439       -16.2571
 185   2.0000      -0.595458       -16.2032
 186   2.0000      -0.586621       -15.9628
 187   2.0000      -0.582696       -15.8560
 188   2.0000      -0.581659       -15.8277
 189   2.0000      -0.581436       -15.8217
 190   2.0000      -0.580894       -15.8069
 191   2.0000      -0.576129       -15.6773
 192   2.0000      -0.570493       -15.5239
 193   2.0000      -0.561398       -15.2764
 194   2.0000      -0.557680       -15.1752
 195   2.0000      -0.556544       -15.1443
 196   2.0000      -0.553015       -15.0483
 197   2.0000      -0.543982       -14.8025
 198   2.0000      -0.540495       -14.7076
 199   2.0000      -0.536446       -14.5974
 200   2.0000      -0.534968       -14.5572
 201   2.0000      -0.534029       -14.5317
 202   2.0000      -0.533390       -14.5143
 203   2.0000      -0.530287       -14.4298
 204   2.0000      -0.529522       -14.4090
 205   2.0000      -0.527202       -14.3459
 206   2.0000      -0.526935       -14.3386
 207   2.0000      -0.526051       -14.3146
 208   2.0000      -0.516488       -14.0543
 209   2.0000      -0.515330       -14.0228
 210   2.0000      -0.511918       -13.9300
 211   2.0000      -0.510302       -13.8860
 212   2.0000      -0.497309       -13.5325
 213   2.0000      -0.496932       -13.5222
 214   2.0000      -0.495659       -13.4876
 215   2.0000      -0.494760       -13.4631
 216   2.0000      -0.494472       -13.4553
 217   2.0000      -0.493685       -13.4339
 218   2.0000      -0.493143       -13.4191
 219   2.0000      -0.491577       -13.3765
 220   2.0000      -0.489065       -13.3081
 221   2.0000      -0.486524       -13.2390
 222   2.0000      -0.486322       -13.2335
 223   2.0000      -0.485362       -13.2074
 224   2.0000      -0.480841       -13.0843
 225   2.0000      -0.472274       -12.8512
 226   2.0000      -0.471200       -12.8220
 227   2.0000      -0.461315       -12.5530
 228   2.0000      -0.460020       -12.5178
 229   2.0000      -0.456077       -12.4105
 230   2.0000      -0.456006       -12.4086
 231   2.0000      -0.446970       -12.1627
 232   2.0000      -0.444057       -12.0834
 233   2.0000      -0.442115       -12.0306
 234   2.0000      -0.438945       -11.9443
 235   2.0000      -0.433765       -11.8033
 236   2.0000      -0.433216       -11.7884
 237   2.0000      -0.412578       -11.2268
 238   2.0000      -0.409004       -11.1296
 239   2.0000      -0.391273       -10.6471
 240   2.0000      -0.382319       -10.4034
 241   2.0000      -0.378937       -10.3114
 242   2.0000      -0.378836       -10.3086
 243   2.0000      -0.378587       -10.3019
 244   2.0000      -0.374050       -10.1784
 245   2.0000      -0.369246       -10.0477
 246   2.0000      -0.368564       -10.0291
 247   2.0000      -0.360657        -9.8140
 248   2.0000      -0.360311        -9.8046
 249   2.0000      -0.357635        -9.7317
 250   2.0000      -0.357545        -9.7293
 251   2.0000      -0.321507        -8.7487
 252   0.0000      -0.081415        -2.2154
 253   0.0000      -0.005501        -0.1497
 254   0.0000       0.002771         0.0754
 255   0.0000       0.015781         0.4294
 256   0.0000       0.022775         0.6197

MULLIKEN ATOMIC CHARGES
-----------------------
   0 C :   -0.143552
   1 C :    0.216202
   2 C :   -0.014120
   3 C :    0.156536
   4 C :    0.066836
   5 C :   -0.318018
   6 C :    0.216262
   7 C :    0.064663
   8 H :    0.248354
   9 C :   -0.314655
  10 C :   -0.145451
  11 H :    0.249355
  12 C :    0.216473
  13 C :   -0.014367
  14 C :   -0.142566
  15 C :    0.219582
  16 C :    0.155085
  17 C :   -0.315929
  18 C :   -0.143333
  19 C :    0.066959
  20 C :    0.063933
  21 H :    0.249188
  22 C :   -0.318520
  23 H :    0.248338
  24 C :    0.297313
  25 O :   -0.460723
  26 C :    0.288054
  27 O :   -0.468186
  28 N :   -0.101826
  29 C :    0.298385
  30 O :   -0.460722
  31 C :    0.289420
  32 O :   -0.468095
  33 N :   -0.102095
  34 C :   -0.346982
  35 H :    0.170998
  36 H :    0.189768
  37 H :    0.170928
  38 C :   -0.346931
  39 H :    0.170997
  40 H :    0.189772
  41 H :    0.170926
  42 S :    0.977739
  43 S :    0.976724
  44 S :    0.977355
  45 S :    0.976772
  46 O :   -0.560556
  47 O :   -0.549132
  48 O :   -0.549216
  49 O :   -0.559360
  50 O :   -0.559312
  51 O :   -0.549195
  52 O :   -0.560649
  53 O :   -0.549127
  54 C :    0.062608
  55 C :   -0.263414
  56 C :   -0.116931
  57 C :   -0.194363
  58 H :    0.198113
  59 C :   -0.216609
  60 H :    0.223195
  61 C :   -0.136482
  62 H :    0.188312
  63 H :    0.186856
  64 H :    0.188498
  65 C :    0.055108
  66 C :   -0.255643
  67 C :   -0.115566
  68 C :   -0.196107
  69 H :    0.199039
  70 C :   -0.217324
  71 H :    0.223550
  72 C :   -0.136923
  73 H :    0.188422
  74 H :    0.187128
  75 H :    0.188361
  76 C :    0.062558
  77 C :   -0.263494
  78 C :   -0.116750
  79 C :   -0.194277
  80 H :    0.198114
  81 C :   -0.216718
  82 H :    0.223178
  83 C :   -0.136526
  84 H :    0.188326
  85 H :    0.186840
  86 H :    0.188493
  87 C :    0.055529
  88 C :   -0.255328
  89 C :   -0.116105
  90 C :   -0.196089
  91 H :    0.199044
  92 C :   -0.217347
  93 H :    0.223504
  94 C :   -0.136978
  95 H :    0.188414
  96 H :    0.187123
  97 H :    0.188362
Sum of atomic charges:   -0.0000000

LOEWDIN ATOMIC CHARGES
----------------------
   0 C :   -0.199653
   1 C :   -0.000744
   2 C :    0.018530
   3 C :    0.005743
   4 C :   -0.062796
   5 C :   -0.034379
   6 C :   -0.000789
   7 C :   -0.061990
   8 H :    0.182834
   9 C :   -0.034801
  10 C :   -0.199409
  11 H :    0.182657
  12 C :   -0.000791
  13 C :    0.018526
  14 C :   -0.199401
  15 C :   -0.000741
  16 C :    0.005741
  17 C :   -0.034808
  18 C :   -0.199649
  19 C :   -0.062796
  20 C :   -0.061991
  21 H :    0.182655
  22 C :   -0.034385
  23 H :    0.182831
  24 C :   -0.300595
  25 O :    0.059660
  26 C :   -0.299996
  27 O :    0.053509
  28 N :    0.231156
  29 C :   -0.300592
  30 O :    0.059659
  31 C :   -0.299996
  32 O :    0.053512
  33 N :    0.231157
  34 C :   -0.249240
  35 H :    0.129334
  36 H :    0.133920
  37 H :    0.129189
  38 C :   -0.249241
  39 H :    0.129335
  40 H :    0.133920
  41 H :    0.129187
  42 S :    0.842648
  43 S :    0.842500
  44 S :    0.842644
  45 S :    0.842503
  46 O :   -0.288800
  47 O :   -0.314145
  48 O :   -0.314045
  49 O :   -0.288287
  50 O :   -0.288276
  51 O :   -0.314043
  52 O :   -0.288811
  53 O :   -0.314147
  54 C :   -0.272323
  55 C :   -0.117986
  56 C :   -0.120033
  57 C :   -0.131524
  58 H :    0.165927
  59 C :   -0.133915
  60 H :    0.164771
  61 C :   -0.118981
  62 H :    0.161329
  63 H :    0.161332
  64 H :    0.160801
  65 C :   -0.272767
  66 C :   -0.117746
  67 C :   -0.119975
  68 C :   -0.131619
  69 H :    0.165849
  70 C :   -0.134193
  71 H :    0.164811
  72 C :   -0.119118
  73 H :    0.161281
  74 H :    0.161293
  75 H :    0.160780
  76 C :   -0.272314
  77 C :   -0.117990
  78 C :   -0.120035
  79 C :   -0.131523
  80 H :    0.165929
  81 C :   -0.133911
  82 H :    0.164770
  83 C :   -0.118978
  84 H :    0.161330
  85 H :    0.161333
  86 H :    0.160802
  87 C :   -0.272777
  88 C :   -0.117739
  89 C :   -0.119973
  90 C :   -0.131620
  91 H :    0.165848
  92 C :   -0.134199
  93 H :    0.164810
  94 C :   -0.119121
  95 H :    0.161281
  96 H :    0.161293
  97 H :    0.160780

  Mayer bond orders larger than 0.100000
B(  0-C ,  1-C ) :   1.2082 B(  0-C ,  5-C ) :   1.2422 B(  0-C , 12-C ) :  -0.1271
B(  0-C , 43-S ) :   0.9643 B(  1-C ,  2-C ) :   1.1801 B(  1-C , 12-C ) :   0.8128
B(  1-C , 14-C ) :  -0.1247 B(  2-C ,  3-C ) :   1.2926 B(  2-C ,  6-C ) :   1.1797
B(  3-C ,  4-C ) :   1.2890 B(  3-C ,  7-C ) :   1.2999 B(  4-C ,  5-C ) :   1.4141
B(  4-C , 24-C ) :   0.9581 B(  4-C , 25-O ) :  -0.1232 B(  5-C ,  8-H ) :   0.9350
B(  6-C , 10-C ) :   1.2091 B(  6-C , 15-C ) :   0.8135 B(  6-C , 18-C ) :  -0.1259
B(  7-C ,  9-C ) :   1.4143 B(  7-C , 26-C ) :   0.9508 B(  7-C , 27-O ) :  -0.1268
B(  9-C , 10-C ) :   1.2405 B(  9-C , 11-H ) :   0.9337 B( 10-C , 15-C ) :  -0.1260
B( 10-C , 44-S ) :   0.9636 B( 12-C , 13-C ) :   1.1808 B( 12-C , 14-C ) :   1.2099
B( 13-C , 15-C ) :   1.1793 B( 13-C , 16-C ) :   1.2914 B( 14-C , 17-C ) :   1.2411
B( 14-C , 42-S ) :   0.9629 B( 15-C , 18-C ) :   1.2074 B( 16-C , 19-C ) :   1.2894
B( 16-C , 20-C ) :   1.2991 B( 17-C , 20-C ) :   1.4137 B( 17-C , 21-H ) :   0.9344
B( 18-C , 22-C ) :   1.2420 B( 18-C , 45-S ) :   0.9638 B( 19-C , 22-C ) :   1.4133
B( 19-C , 29-C ) :   0.9582 B( 19-C , 30-O ) :  -0.1234 B( 20-C , 31-C ) :   0.9514
B( 20-C , 32-O ) :  -0.1263 B( 22-C , 23-H ) :   0.9353 B( 24-C , 25-O ) :   1.9895
B( 24-C , 28-N ) :   1.1879 B( 26-C , 27-O ) :   1.9827 B( 26-C , 28-N ) :   1.2072
B( 28-N , 34-C ) :   0.8685 B( 29-C , 30-O ) :   1.9895 B( 29-C , 33-N ) :   1.1877
B( 31-C , 32-O ) :   1.9818 B( 31-C , 33-N ) :   1.2070 B( 33-N , 38-C ) :   0.8687
B( 34-C , 35-H ) :   0.9669 B( 34-C , 36-H ) :   0.9561 B( 34-C , 37-H ) :   0.9669
B( 38-C , 39-H ) :   0.9669 B( 38-C , 40-H ) :   0.9561 B( 38-C , 41-H ) :   0.9669
B( 42-S , 52-O ) :   1.7507 B( 42-S , 53-O ) :   1.8086 B( 42-S , 87-C ) :   0.9753
B( 43-S , 50-O ) :   1.7519 B( 43-S , 51-O ) :   1.8087 B( 43-S , 76-C ) :   0.9760
B( 44-S , 46-O ) :   1.7507 B( 44-S , 47-O ) :   1.8087 B( 44-S , 65-C ) :   0.9755
B( 45-S , 48-O ) :   1.8087 B( 45-S , 49-O ) :   1.7518 B( 45-S , 54-C ) :   0.9759
B( 54-C , 55-C ) :   1.2975 B( 54-C , 56-C ) :   1.3071 B( 55-C , 57-C ) :   1.4295
B( 55-C , 58-H ) :   0.9627 B( 56-C , 59-C ) :   1.4105 B( 56-C , 60-H ) :   0.9425
B( 57-C , 61-C ) :   1.3710 B( 57-C , 62-H ) :   0.9835 B( 59-C , 61-C ) :   1.4003
B( 59-C , 63-H ) :   0.9801 B( 61-C , 64-H ) :   0.9770 B( 65-C , 66-C ) :   1.3001
B( 65-C , 67-C ) :   1.3109 B( 66-C , 68-C ) :   1.4298 B( 66-C , 69-H ) :   0.9607
B( 67-C , 70-C ) :   1.4118 B( 67-C , 71-H ) :   0.9407 B( 68-C , 72-C ) :   1.3731
B( 68-C , 73-H ) :   0.9827 B( 70-C , 72-C ) :   1.4012 B( 70-C , 74-H ) :   0.9801
B( 72-C , 75-H ) :   0.9769 B( 76-C , 77-C ) :   1.2975 B( 76-C , 78-C ) :   1.3070
B( 77-C , 79-C ) :   1.4295 B( 77-C , 80-H ) :   0.9628 B( 78-C , 81-C ) :   1.4107
B( 78-C , 82-H ) :   0.9425 B( 79-C , 83-C ) :   1.3710 B( 79-C , 84-H ) :   0.9835
B( 81-C , 83-C ) :   1.4004 B( 81-C , 85-H ) :   0.9801 B( 83-C , 86-H ) :   0.9770
B( 87-C , 88-C ) :   1.2999 B( 87-C , 89-C ) :   1.3107 B( 88-C , 90-C ) :   1.4299
B( 88-C , 91-H ) :   0.9606 B( 89-C , 92-C ) :   1.4118 B( 89-C , 93-H ) :   0.9408
B( 90-C , 94-C ) :   1.3731 B( 90-C , 95-H ) :   0.9827 B( 92-C , 94-C ) :   1.4010
B( 92-C , 96-H ) :   0.9801 B( 94-C , 97-H ) :   0.9769

MP2 TOTAL ENERGY:    -4526.695753434 Eh

-----------------------------------------------------------------------------
         ABSORPTION SPECTRUM VIA TRANSITION ELECTRIC DIPOLE MOMENTS
-----------------------------------------------------------------------------
State   Energy    Wavelength  fosc         T2        TX        TY        TZ
        (cm-1)      (nm)                 (au**2)    (au)      (au)      (au)
-----------------------------------------------------------------------------
   1   20395.1    490.3   0.647736058  10.45556   0.01150  -3.23349  -0.00001
   2   25755.7    388.3   0.008379443   0.10711   0.00010  -0.00002  -0.32727
   3   27270.9    366.7   0.287729670   3.47345   1.86370   0.00716  -0.00007
   4   30813.5    324.5   0.000014084   0.00015   0.00016  -0.00004   0.01227
   5   30345.8    329.5   0.041061987   0.44547   0.00004   0.00000   0.66743
   6   33509.6    298.4   0.087346489   0.85813  -0.00007  -0.00002  -0.92635
   7   30591.4    326.9   0.000001416   0.00002  -0.00001   0.00007   0.00390
   8   31635.9    316.1   0.003337555   0.03473  -0.00026   0.00008   0.18636
   9   31617.2    316.3   0.001611694   0.01678   0.12923  -0.00896   0.00111
  10   31953.5    313.0   0.502018163   5.17222  -2.27425   0.00029  -0.00004
  11   30518.7    327.7   0.000000361   0.00000  -0.00103  -0.00023   0.00167
  12   34284.3    291.7   0.766308394   7.35840   2.71261   0.01107   0.00013
  13   34280.9    291.7   0.006765718   0.06497   0.00092  -0.00001  -0.25490
  14   32351.4    309.1   0.007703295   0.07839   0.03694   0.27753  -0.00013
  15   32248.2    310.1   0.001400186   0.01429  -0.00006   0.00011   0.11956
  16   34652.2    288.6   0.008952587   0.08505  -0.15043  -0.24985   0.00012
  17   35183.2    284.2   0.000019611   0.00018  -0.00109   0.00010   0.01350
  18   35543.4    281.3   0.564309350   5.22678   2.28621   0.00527   0.00003
  19   34750.2    287.8   0.000000599   0.00001  -0.00222  -0.00080   0.00034
  20   36474.7    274.2   0.232999017   2.10299   1.44689   0.09749   0.00025
  21   33801.4    295.8   0.004208536   0.04099  -0.00050   0.00984  -0.20222
  22   34373.2    290.9   0.026559611   0.25438  -0.20157   0.46231   0.00425
  23   39082.1    255.9   0.007335512   0.06179  -0.00599  -0.24851   0.00004
  24   39408.5    253.8   0.026143468   0.21840   0.00009   0.00006   0.46733
  25   39396.7    253.8   0.000029789   0.00025  -0.00024  -0.00027   0.01577
  26   38937.2    256.8   0.065770587   0.55609  -0.74562   0.01187  -0.00023
  27   33736.0    296.4   0.071187867   0.69468  -0.00058   0.00013   0.83348
  28   35687.5    280.2   0.378200705   3.48885   1.86359   0.12595   0.00029
  29   40820.4    245.0   0.258933815   2.08827   0.22503  -1.42746   0.00010
  30   41847.5    239.0   0.120818382   0.95047   0.06322   0.97287   0.00003

FINAL SINGLE POINT ENERGY     -4520.498937528927

DIPOLE MOMENT
-------------
                                X             Y             Z
Electronic contribution:      0.00010       0.00362      -0.22464
Nuclear contribution   :     -0.00016      -0.00468       0.26689
                        -----------------------------------------
Total Dipole Moment    :     -0.00006      -0.00106       0.04224
                        -----------------------------------------
Magnitude (a.u.)       :      0.04226
Magnitude (Debye)      :      0.10741

Rotational constants in cm-1:     0.001689     0.000890     0.000662
Rotational constants in MHz :    50.636708    26.686424    19.835733

                             ****ORCA TERMINATED NORMALLY****
TOTAL RUN TIME: 7 days 12 hours 17 minutes 38 seconds 379 msec
