                         Program Version 5.0.2 -  RELEASE  -
|  1> %maxcore 3200
|  2> %pal
|  3>  nprocs= 8
|  4> end
|  5> ! RI-B2PLYP D3BJ def2-TZVP def2/J def2-TZVP/C RIJCOSX CPCM TightSCF
|  6> %TDDFT DCORR 4
|  7>    NROOTS   30
|  8>
|  9>    TDA      FALSE
| 10> END
| 11>
| 12> %CPCM
| 13>    SMD          TRUE
| 14>    SMDsolvent   "DICHLOROMETHANE"
| 15> END
| 16>
| 17>
| 18> * xyz 0 1
| 19> C                   2.25498900   -1.41242200    0.83088600
| 20> C                   1.22611500   -0.69583000    0.21135600
| 21> C                   0.00493300   -1.39792800   -0.00562900
| 22> C                   0.01042000   -2.81251500   -0.00659100
| 23> C                   1.12129500   -3.50904100    0.49256700
| 24> C                   2.17569300   -2.79665900    1.00688800
| 25> C                  -1.22133800   -0.70463000   -0.22082200
| 26> C                  -1.09477100   -3.51816200   -0.50590000
| 27> H                   2.96257300   -3.32666300    1.52829200
| 28> C                  -2.15492100   -2.81201700   -1.01771800
| 29> C                  -2.24538800   -1.42879600   -0.83973100
| 30> H                  -2.93782600   -3.34711400   -1.53962200
| 31> C                   1.22134000    0.70485900   -0.22081400
| 32> C                  -0.00493400    1.39815700   -0.00563500
| 33> C                   2.24539800    1.42902200   -0.83971600
| 34> C                  -1.22611800    0.69606200    0.21134400
| 35> C                  -0.01042000    2.81274600   -0.00660000
| 36> C                   2.15494600    2.81224700   -1.01768100
| 37> C                  -2.25499800    1.41265500    0.83086800
| 38> C                  -1.12130800    3.50927300    0.49253300
| 39> C                   1.09478900    3.51839200   -0.50587800
| 40> H                   2.93785100    3.34734000   -1.53958700
| 41> C                  -2.17571000    2.79689600    1.00684900
| 42> H                  -2.96258000    3.32690100    1.52826500
| 43> C                   1.12759000   -4.97842900    0.53013600
| 44> O                   2.04941900   -5.62115000    0.99625400
| 45> C                  -1.09771900   -4.98966800   -0.54948300
| 46> O                  -2.02439300   -5.62127600   -1.01959000
| 47> N                   0.02016100   -5.62649100   -0.01042800
| 48> C                  -1.12758100    4.97866000    0.53014300
| 49> O                  -2.04937800    5.62138200    0.99632400
| 50> C                   1.09772300    4.98989500   -0.54949400
| 51> O                   2.02439400    5.62150300   -1.01960700
| 52> N                  -0.02016900    5.62671900   -0.01046200
| 53> C                   0.05875300   -7.08120700    0.00462200
| 54> H                   0.93046300   -7.43603900   -0.54064000
| 55> H                  -0.84583600   -7.45113700   -0.46211400
| 56> H                   0.12270800   -7.44276900    1.02872300
| 57> C                  -0.05876300    7.08143700    0.00456800
| 58> H                  -0.93068900    7.43623500   -0.54036600
| 59> H                   0.84564600    7.45136100   -0.46252200
| 60> H                  -0.12232200    7.44304300    1.02868000
| 61> S                   3.57178500    0.67502400   -1.76927100
| 62> S                   3.57170700   -0.64788600    1.76482300
| 63> S                  -3.57184100   -0.67481800   -1.76919200
| 64> S                  -3.57163700    0.64809900    1.76491400
| 65> O                  -3.50346600    0.75725100   -1.63144600
| 66> O                  -3.43718700   -1.23408600   -3.09309800
| 67> O                  -3.42871100    1.19738700    3.09213100
| 68> O                  -3.50108900   -0.78278700    1.61644500
| 69> O                   3.50137700    0.78298600    1.61611400
| 70> O                   3.42871900   -1.19691300    3.09214100
| 71> O                   3.50319700   -0.75705700   -1.63176500
| 72> O                   3.43720800    1.23454900   -3.09307700
| 73> C                  -5.13413300    1.22191400    1.14923300
| 74> C                  -6.23966500    0.60898000    1.73510100
| 75> C                  -5.28958100    2.25418700    0.23580100
| 76> C                  -7.51011300    1.04479900    1.40353600
| 77> H                  -6.10364100   -0.19802900    2.44463300
| 78> C                  -6.56999900    2.67894300   -0.08861500
| 79> H                  -4.43467800    2.71571800   -0.23605800
| 80> C                  -7.67625300    2.08132800    0.49458800
| 81> H                  -8.37165500    0.56950400    1.85453100
| 82> H                  -6.69689900    3.48200900   -0.80284000
| 83> H                  -8.67184300    2.41976500    0.23745800
| 84> C                  -5.12970600   -1.24439500   -1.13843000
| 85> C                  -6.23862800   -0.61295700   -1.69725600
| 86> C                  -5.27988200   -2.29194200   -0.24166200
| 87> C                  -7.50748600   -1.04688700   -1.35697200
| 88> H                  -6.10615800    0.20757700   -2.39169900
| 89> C                  -6.55852200   -2.71390400    0.09269500
| 90> H                  -4.42193700   -2.76687300    0.21117100
| 91> C                  -7.66845100   -2.09884800   -0.46506800
| 92> H                  -8.37178400   -0.55767200   -1.78735000
| 93> H                  -6.68129400   -3.52827000    0.79471800
| 94> H                  -8.66279100   -2.43531500   -0.20060000
| 95> C                   5.13408300   -1.22211700    1.14920400
| 96> C                   6.23975600   -0.60974300    1.73539600
| 97> C                   5.28929300   -2.25413500    0.23544200
| 98> C                   7.51009700   -1.04586100    1.40381800
| 99> H                   6.10392700    0.19706700    2.44519500
|100> C                   6.56960900   -2.67921600   -0.08895800
|101> H                   4.43429000   -2.71520700   -0.23668300
|102> C                   7.67599600   -2.08215300    0.49455500
|103> H                   8.37174600   -0.57098800    1.85505300
|104> H                   6.69632200   -3.48209600   -0.80342600
|105> H                   8.67150300   -2.42083700    0.23742600
|106> C                   5.12975200    1.24420000   -1.13842000
|107> C                   6.23854400    0.61224000   -1.69690600
|108> C                   5.28013400    2.29198500   -0.24196800
|109> C                   7.50749300    1.04589300   -1.35660000
|110> H                   6.10590000   -0.20848900   -2.39108400
|111> C                   6.55885700    2.71365200    0.09243200
|112> H                   4.42227100    2.76732600    0.21059300
|113> C                   7.66866600    2.09807900   -0.46500200
|114> H                   8.37169600    0.55628000   -1.78671600
|115> H                   6.68179200    3.52819500    0.79422100
|116> H                   8.66307700    2.43431900   -0.20050800
|117> *
|118>
|119>
|120>                          ****END OF INPUT****

CARTESIAN COORDINATES (ANGSTROEM)
---------------------------------
  C      2.254989   -1.412422    0.830886
  C      1.226115   -0.695830    0.211356
  C      0.004933   -1.397928   -0.005629
  C      0.010420   -2.812515   -0.006591
  C      1.121295   -3.509041    0.492567
  C      2.175693   -2.796659    1.006888
  C     -1.221338   -0.704630   -0.220822
  C     -1.094771   -3.518162   -0.505900
  H      2.962573   -3.326663    1.528292
  C     -2.154921   -2.812017   -1.017718
  C     -2.245388   -1.428796   -0.839731
  H     -2.937826   -3.347114   -1.539622
  C      1.221340    0.704859   -0.220814
  C     -0.004934    1.398157   -0.005635
  C      2.245398    1.429022   -0.839716
  C     -1.226118    0.696062    0.211344
  C     -0.010420    2.812746   -0.006600
  C      2.154946    2.812247   -1.017681
  C     -2.254998    1.412655    0.830868
  C     -1.121308    3.509273    0.492533
  C      1.094789    3.518392   -0.505878
  H      2.937851    3.347340   -1.539587
  C     -2.175710    2.796896    1.006849
  H     -2.962580    3.326901    1.528265
  C      1.127590   -4.978429    0.530136
  O      2.049419   -5.621150    0.996254
  C     -1.097719   -4.989668   -0.549483
  O     -2.024393   -5.621276   -1.019590
  N      0.020161   -5.626491   -0.010428
  C     -1.127581    4.978660    0.530143
  O     -2.049378    5.621382    0.996324
  C      1.097723    4.989895   -0.549494
  O      2.024394    5.621503   -1.019607
  N     -0.020169    5.626719   -0.010462
  C      0.058753   -7.081207    0.004622
  H      0.930463   -7.436039   -0.540640
  H     -0.845836   -7.451137   -0.462114
  H      0.122708   -7.442769    1.028723
  C     -0.058763    7.081437    0.004568
  H     -0.930689    7.436235   -0.540366
  H      0.845646    7.451361   -0.462522
  H     -0.122322    7.443043    1.028680
  S      3.571785    0.675024   -1.769271
  S      3.571707   -0.647886    1.764823
  S     -3.571841   -0.674818   -1.769192
  S     -3.571637    0.648099    1.764914
  O     -3.503466    0.757251   -1.631446
  O     -3.437187   -1.234086   -3.093098
  O     -3.428711    1.197387    3.092131
  O     -3.501089   -0.782787    1.616445
  O      3.501377    0.782986    1.616114
  O      3.428719   -1.196913    3.092141
  O      3.503197   -0.757057   -1.631765
  O      3.437208    1.234549   -3.093077
  C     -5.134133    1.221914    1.149233
  C     -6.239665    0.608980    1.735101
  C     -5.289581    2.254187    0.235801
  C     -7.510113    1.044799    1.403536
  H     -6.103641   -0.198029    2.444633
  C     -6.569999    2.678943   -0.088615
  H     -4.434678    2.715718   -0.236058
  C     -7.676253    2.081328    0.494588
  H     -8.371655    0.569504    1.854531
  H     -6.696899    3.482009   -0.802840
  H     -8.671843    2.419765    0.237458
  C     -5.129706   -1.244395   -1.138430
  C     -6.238628   -0.612957   -1.697256
  C     -5.279882   -2.291942   -0.241662
  C     -7.507486   -1.046887   -1.356972
  H     -6.106158    0.207577   -2.391699
  C     -6.558522   -2.713904    0.092695
  H     -4.421937   -2.766873    0.211171
  C     -7.668451   -2.098848   -0.465068
  H     -8.371784   -0.557672   -1.787350
  H     -6.681294   -3.528270    0.794718
  H     -8.662791   -2.435315   -0.200600
  C      5.134083   -1.222117    1.149204
  C      6.239756   -0.609743    1.735396
  C      5.289293   -2.254135    0.235442
  C      7.510097   -1.045861    1.403818
  H      6.103927    0.197067    2.445195
  C      6.569609   -2.679216   -0.088958
  H      4.434290   -2.715207   -0.236683
  C      7.675996   -2.082153    0.494555
  H      8.371746   -0.570988    1.855053
  H      6.696322   -3.482096   -0.803426
  H      8.671503   -2.420837    0.237426
  C      5.129752    1.244200   -1.138420
  C      6.238544    0.612240   -1.696906
  C      5.280134    2.291985   -0.241968
  C      7.507493    1.045893   -1.356600
  H      6.105900   -0.208489   -2.391084
  C      6.558857    2.713652    0.092432
  H      4.422271    2.767326    0.210593
  C      7.668666    2.098079   -0.465002
  H      8.371696    0.556280   -1.786716
  H      6.681792    3.528195    0.794221
  H      8.663077    2.434319   -0.200508

 Total Charge           Charge          ....    0
 Multiplicity           Mult            ....    1
 Number of Electrons    NEL             ....  504
 Basis Dimension        Dim             .... 2312

ORBITAL ENERGIES
----------------

  NO   OCC          E(Eh)            E(eV)
   0   2.0000     -90.364472     -2458.9423
   1   2.0000     -90.364471     -2458.9423
   2   2.0000     -90.364395     -2458.9402
   3   2.0000     -90.364393     -2458.9401
   4   2.0000     -19.728327      -536.8351
   5   2.0000     -19.728326      -536.8350
   6   2.0000     -19.728284      -536.8339
   7   2.0000     -19.728283      -536.8339
   8   2.0000     -19.723961      -536.7163
   9   2.0000     -19.723960      -536.7162
  10   2.0000     -19.723912      -536.7149
  11   2.0000     -19.723911      -536.7149
  12   2.0000     -19.720410      -536.6196
  13   2.0000     -19.720409      -536.6196
  14   2.0000     -19.720370      -536.6186
  15   2.0000     -19.720370      -536.6185
  16   2.0000     -14.901875      -405.5006
  17   2.0000     -14.901874      -405.5006
  18   2.0000     -10.758541      -292.7548
  19   2.0000     -10.758541      -292.7548
  20   2.0000     -10.756287      -292.6935
  21   2.0000     -10.756287      -292.6934
  22   2.0000     -10.696896      -291.0773
  23   2.0000     -10.696890      -291.0772
  24   2.0000     -10.696356      -291.0627
  25   2.0000     -10.696342      -291.0623
  26   2.0000     -10.685365      -290.7636
  27   2.0000     -10.685363      -290.7635
  28   2.0000     -10.685338      -290.7628
  29   2.0000     -10.685336      -290.7628
  30   2.0000     -10.675855      -290.5048
  31   2.0000     -10.675849      -290.5046
  32   2.0000     -10.674124      -290.4577
  33   2.0000     -10.674123      -290.4577
  34   2.0000     -10.664799      -290.2039
  35   2.0000     -10.664797      -290.2039
  36   2.0000     -10.664664      -290.2003
  37   2.0000     -10.664662      -290.2002
  38   2.0000     -10.661189      -290.1057
  39   2.0000     -10.661188      -290.1057
  40   2.0000     -10.660966      -290.0996
  41   2.0000     -10.660965      -290.0996
  42   2.0000     -10.657679      -290.0102
  43   2.0000     -10.657676      -290.0101
  44   2.0000     -10.657488      -290.0050
  45   2.0000     -10.657484      -290.0049
  46   2.0000     -10.639295      -289.5099
  47   2.0000     -10.639295      -289.5099
  48   2.0000     -10.637164      -289.4519
  49   2.0000     -10.637163      -289.4519
  50   2.0000     -10.637122      -289.4508
  51   2.0000     -10.637119      -289.4507
  52   2.0000     -10.637092      -289.4500
  53   2.0000     -10.637090      -289.4499
  54   2.0000     -10.636941      -289.4459
  55   2.0000     -10.636938      -289.4458
  56   2.0000     -10.628407      -289.2137
  57   2.0000     -10.628405      -289.2136
  58   2.0000     -10.628322      -289.2113
  59   2.0000     -10.628320      -289.2113
  60   2.0000     -10.626088      -289.1505
  61   2.0000     -10.626086      -289.1505
  62   2.0000     -10.625948      -289.1468
  63   2.0000     -10.625946      -289.1467
  64   2.0000     -10.625668      -289.1391
  65   2.0000     -10.625667      -289.1391
  66   2.0000     -10.625585      -289.1369
  67   2.0000     -10.625583      -289.1368
  68   2.0000      -8.540308      -232.3936
  69   2.0000      -8.540306      -232.3936
  70   2.0000      -8.540230      -232.3915
  71   2.0000      -8.540228      -232.3914
  72   2.0000      -6.388935      -173.8518
  73   2.0000      -6.388934      -173.8517
  74   2.0000      -6.388845      -173.8493
  75   2.0000      -6.388843      -173.8493
  76   2.0000      -6.387675      -173.8175
  77   2.0000      -6.387674      -173.8174
  78   2.0000      -6.387609      -173.8157
  79   2.0000      -6.387607      -173.8156
  80   2.0000      -6.387308      -173.8075
  81   2.0000      -6.387306      -173.8074
  82   2.0000      -6.387230      -173.8054
  83   2.0000      -6.387228      -173.8053
  84   2.0000      -1.272061       -34.6146
  85   2.0000      -1.272037       -34.6139
  86   2.0000      -1.269890       -34.5555
  87   2.0000      -1.269889       -34.5554
  88   2.0000      -1.226069       -33.3630
  89   2.0000      -1.226066       -33.3630
  90   2.0000      -1.206345       -32.8263
  91   2.0000      -1.206344       -32.8263
  92   2.0000      -1.160340       -31.5744
  93   2.0000      -1.160326       -31.5741
  94   2.0000      -1.159333       -31.5470
  95   2.0000      -1.159325       -31.5468
  96   2.0000      -1.090919       -29.6854
  97   2.0000      -1.089213       -29.6390
  98   2.0000      -1.078035       -29.3348
  99   2.0000      -1.049233       -28.5511
 100   2.0000      -1.016563       -27.6621
 101   2.0000      -1.005697       -27.3664
 102   2.0000      -1.004923       -27.3453
 103   2.0000      -1.004183       -27.3252
 104   2.0000      -1.002083       -27.2681
 105   2.0000      -0.994951       -27.0740
 106   2.0000      -0.989294       -26.9201
 107   2.0000      -0.939227       -25.5577
 108   2.0000      -0.930950       -25.3324
 109   2.0000      -0.922494       -25.1023
 110   2.0000      -0.913609       -24.8606
 111   2.0000      -0.901889       -24.5417
 112   2.0000      -0.900082       -24.4925
 113   2.0000      -0.892623       -24.2895
 114   2.0000      -0.889279       -24.1985
 115   2.0000      -0.881040       -23.9743
 116   2.0000      -0.876929       -23.8624
 117   2.0000      -0.876384       -23.8476
 118   2.0000      -0.876271       -23.8446
 119   2.0000      -0.875506       -23.8237
 120   2.0000      -0.847414       -23.0593
 121   2.0000      -0.840316       -22.8662
 122   2.0000      -0.830484       -22.5986
 123   2.0000      -0.803167       -21.8553
 124   2.0000      -0.795388       -21.6436
 125   2.0000      -0.792173       -21.5561
 126   2.0000      -0.789536       -21.4844
 127   2.0000      -0.783942       -21.3321
 128   2.0000      -0.767210       -20.8768
 129   2.0000      -0.759720       -20.6730
 130   2.0000      -0.747748       -20.3473
 131   2.0000      -0.740738       -20.1565
 132   2.0000      -0.739483       -20.1223
 133   2.0000      -0.718739       -19.5579
 134   2.0000      -0.718397       -19.5486
 135   2.0000      -0.716812       -19.5055
 136   2.0000      -0.714158       -19.4332
 137   2.0000      -0.714078       -19.4310
 138   2.0000      -0.699661       -19.0387
 139   2.0000      -0.696876       -18.9630
 140   2.0000      -0.693020       -18.8580
 141   2.0000      -0.682368       -18.5682
 142   2.0000      -0.671160       -18.2632
 143   2.0000      -0.654566       -17.8117
 144   2.0000      -0.654531       -17.8107
 145   2.0000      -0.641208       -17.4482
 146   2.0000      -0.636818       -17.3287
 147   2.0000      -0.633804       -17.2467
 148   2.0000      -0.631631       -17.1876
 149   2.0000      -0.624499       -16.9935
 150   2.0000      -0.619465       -16.8565
 151   2.0000      -0.616411       -16.7734
 152   2.0000      -0.594342       -16.1729
 153   2.0000      -0.594022       -16.1642
 154   2.0000      -0.592917       -16.1341
 155   2.0000      -0.583173       -15.8689
 156   2.0000      -0.576749       -15.6941
 157   2.0000      -0.576478       -15.6868
 158   2.0000      -0.572863       -15.5884
 159   2.0000      -0.570647       -15.5281
 160   2.0000      -0.569988       -15.5102
 161   2.0000      -0.569466       -15.4960
 162   2.0000      -0.568287       -15.4639
 163   2.0000      -0.567595       -15.4450
 164   2.0000      -0.560744       -15.2586
 165   2.0000      -0.559025       -15.2119
 166   2.0000      -0.556692       -15.1484
 167   2.0000      -0.550566       -14.9817
 168   2.0000      -0.550509       -14.9801
 169   2.0000      -0.547426       -14.8962
 170   2.0000      -0.546121       -14.8607
 171   2.0000      -0.545578       -14.8459
 172   2.0000      -0.543707       -14.7950
 173   2.0000      -0.541538       -14.7360
 174   2.0000      -0.540418       -14.7055
 175   2.0000      -0.539505       -14.6807
 176   2.0000      -0.534115       -14.5340
 177   2.0000      -0.532524       -14.4907
 178   2.0000      -0.529760       -14.4155
 179   2.0000      -0.526914       -14.3381
 180   2.0000      -0.526677       -14.3316
 181   2.0000      -0.526214       -14.3190
 182   2.0000      -0.520838       -14.1727
 183   2.0000      -0.519161       -14.1271
 184   2.0000      -0.519077       -14.1248
 185   2.0000      -0.516337       -14.0502
 186   2.0000      -0.507390       -13.8068
 187   2.0000      -0.506035       -13.7699
 188   2.0000      -0.505457       -13.7542
 189   2.0000      -0.505187       -13.7468
 190   2.0000      -0.504803       -13.7364
 191   2.0000      -0.496820       -13.5192
 192   2.0000      -0.493310       -13.4236
 193   2.0000      -0.483684       -13.1617
 194   2.0000      -0.480029       -13.0623
 195   2.0000      -0.477525       -12.9941
 196   2.0000      -0.473462       -12.8836
 197   2.0000      -0.470012       -12.7897
 198   2.0000      -0.466306       -12.6888
 199   2.0000      -0.462966       -12.5980
 200   2.0000      -0.460087       -12.5196
 201   2.0000      -0.458821       -12.4852
 202   2.0000      -0.458097       -12.4655
 203   2.0000      -0.454949       -12.3798
 204   2.0000      -0.454173       -12.3587
 205   2.0000      -0.452024       -12.3002
 206   2.0000      -0.451496       -12.2858
 207   2.0000      -0.450745       -12.2654
 208   2.0000      -0.439065       -11.9476
 209   2.0000      -0.438110       -11.9216
 210   2.0000      -0.435303       -11.8452
 211   2.0000      -0.433709       -11.8018
 212   2.0000      -0.424609       -11.5542
 213   2.0000      -0.423393       -11.5211
 214   2.0000      -0.422828       -11.5057
 215   2.0000      -0.422567       -11.4986
 216   2.0000      -0.418224       -11.3805
 217   2.0000      -0.418101       -11.3771
 218   2.0000      -0.417012       -11.3475
 219   2.0000      -0.416513       -11.3339
 220   2.0000      -0.414969       -11.2919
 221   2.0000      -0.413623       -11.2553
 222   2.0000      -0.413364       -11.2482
 223   2.0000      -0.408811       -11.1243
 224   2.0000      -0.403957       -10.9922
 225   2.0000      -0.396487       -10.7890
 226   2.0000      -0.393369       -10.7041
 227   2.0000      -0.388508       -10.5718
 228   2.0000      -0.385840       -10.4992
 229   2.0000      -0.381173       -10.3722
 230   2.0000      -0.379020       -10.3137
 231   2.0000      -0.374772       -10.1981
 232   2.0000      -0.370556       -10.0833
 233   2.0000      -0.368727       -10.0336
 234   2.0000      -0.367288        -9.9944
 235   2.0000      -0.355548        -9.6749
 236   2.0000      -0.355381        -9.6704
 237   2.0000      -0.344484        -9.3739
 238   2.0000      -0.341135        -9.2827
 239   2.0000      -0.327622        -8.9151
 240   2.0000      -0.323156        -8.7935
 241   2.0000      -0.318970        -8.6796
 242   2.0000      -0.317287        -8.6338
 243   2.0000      -0.316696        -8.6177
 244   2.0000      -0.314449        -8.5566
 245   2.0000      -0.309068        -8.4102
 246   2.0000      -0.308540        -8.3958
 247   2.0000      -0.301810        -8.2127
 248   2.0000      -0.301497        -8.2041
 249   2.0000      -0.299210        -8.1419
 250   2.0000      -0.299184        -8.1412
 251   2.0000      -0.267965        -7.2917
 252   0.0000      -0.106065        -2.8862
 253   0.0000      -0.039058        -1.0628
 254   0.0000      -0.029033        -0.7900
 255   0.0000      -0.016076        -0.4375
 256   0.0000      -0.011026        -0.3000

MULLIKEN ATOMIC CHARGES
-----------------------
   0 C :   -0.064664
   1 C :    0.209673
   2 C :   -0.021974
   3 C :    0.150683
   4 C :    0.083880
   5 C :   -0.332683
   6 C :    0.208615
   7 C :    0.081664
   8 H :    0.205623
   9 C :   -0.329125
  10 C :   -0.066197
  11 H :    0.206832
  12 C :    0.208974
  13 C :   -0.022356
  14 C :   -0.064503
  15 C :    0.211865
  16 C :    0.149863
  17 C :   -0.329863
  18 C :   -0.064593
  19 C :    0.083794
  20 C :    0.081030
  21 H :    0.206735
  22 C :   -0.332855
  23 H :    0.205659
  24 C :    0.275681
  25 O :   -0.434987
  26 C :    0.269381
  27 O :   -0.439406
  28 N :   -0.101777
  29 C :    0.276447
  30 O :   -0.434985
  31 C :    0.270377
  32 O :   -0.439339
  33 N :   -0.101970
  34 C :   -0.278737
  35 H :    0.147198
  36 H :    0.167157
  37 H :    0.147020
  38 C :   -0.278702
  39 H :    0.147200
  40 H :    0.167159
  41 H :    0.147017
  42 S :    0.953662
  43 S :    0.952793
  44 S :    0.953389
  45 S :    0.952845
  46 O :   -0.570585
  47 O :   -0.551911
  48 O :   -0.552045
  49 O :   -0.569526
  50 O :   -0.569489
  51 O :   -0.552029
  52 O :   -0.570651
  53 O :   -0.551905
  54 C :    0.066567
  55 C :   -0.228598
  56 C :   -0.079718
  57 C :   -0.156703
  58 H :    0.160960
  59 C :   -0.188547
  60 H :    0.191903
  61 C :   -0.118576
  62 H :    0.158111
  63 H :    0.159540
  64 H :    0.160946
  65 C :    0.059820
  66 C :   -0.220629
  67 C :   -0.079657
  68 C :   -0.157366
  69 H :    0.161561
  70 C :   -0.189181
  71 H :    0.192286
  72 C :   -0.118863
  73 H :    0.157856
  74 H :    0.159770
  75 H :    0.160823
  76 C :    0.066524
  77 C :   -0.228674
  78 C :   -0.079542
  79 C :   -0.156691
  80 H :    0.160979
  81 C :   -0.188666
  82 H :    0.191893
  83 C :   -0.118580
  84 H :    0.158129
  85 H :    0.159536
  86 H :    0.160949
  87 C :    0.060131
  88 C :   -0.220400
  89 C :   -0.080102
  90 C :   -0.157324
  91 H :    0.161572
  92 C :   -0.189174
  93 H :    0.192259
  94 C :   -0.118926
  95 H :    0.157849
  96 H :    0.159771
  97 H :    0.160827
Sum of atomic charges:    0.0000000

LOEWDIN ATOMIC CHARGES
----------------------
   0 C :   -0.196822
   1 C :   -0.002860
   2 C :    0.021908
   3 C :    0.005790
   4 C :   -0.058687
   5 C :   -0.035957
   6 C :   -0.002896
   7 C :   -0.057883
   8 H :    0.175703
   9 C :   -0.036361
  10 C :   -0.196584
  11 H :    0.175547
  12 C :   -0.002897
  13 C :    0.021905
  14 C :   -0.196577
  15 C :   -0.002858
  16 C :    0.005789
  17 C :   -0.036368
  18 C :   -0.196818
  19 C :   -0.058687
  20 C :   -0.057883
  21 H :    0.175544
  22 C :   -0.035963
  23 H :    0.175701
  24 C :   -0.306491
  25 O :    0.065436
  26 C :   -0.306046
  27 O :    0.059808
  28 N :    0.236740
  29 C :   -0.306489
  30 O :    0.065435
  31 C :   -0.306046
  32 O :    0.059811
  33 N :    0.236741
  34 C :   -0.240921
  35 H :    0.124683
  36 H :    0.129245
  37 H :    0.124528
  38 C :   -0.240921
  39 H :    0.124684
  40 H :    0.129245
  41 H :    0.124526
  42 S :    0.840153
  43 S :    0.840028
  44 S :    0.840150
  45 S :    0.840030
  46 O :   -0.284017
  47 O :   -0.310133
  48 O :   -0.310038
  49 O :   -0.283486
  50 O :   -0.283474
  51 O :   -0.310037
  52 O :   -0.284028
  53 O :   -0.310134
  54 C :   -0.267790
  55 C :   -0.113893
  56 C :   -0.116249
  57 C :   -0.125374
  58 H :    0.159203
  59 C :   -0.129057
  60 H :    0.159609
  61 C :   -0.116002
  62 H :    0.155054
  63 H :    0.155194
  64 H :    0.154496
  65 C :   -0.268213
  66 C :   -0.113700
  67 C :   -0.116255
  68 C :   -0.125383
  69 H :    0.159166
  70 C :   -0.129319
  71 H :    0.159641
  72 C :   -0.116153
  73 H :    0.155007
  74 H :    0.155161
  75 H :    0.154474
  76 C :   -0.267781
  77 C :   -0.113897
  78 C :   -0.116250
  79 C :   -0.125375
  80 H :    0.159204
  81 C :   -0.129053
  82 H :    0.159608
  83 C :   -0.115999
  84 H :    0.155055
  85 H :    0.155195
  86 H :    0.154496
  87 C :   -0.268224
  88 C :   -0.113694
  89 C :   -0.116255
  90 C :   -0.125383
  91 H :    0.159166
  92 C :   -0.129324
  93 H :    0.159641
  94 C :   -0.116156
  95 H :    0.155006
  96 H :    0.155161
  97 H :    0.154474

  Mayer bond orders larger than 0.100000
B(  0-C ,  1-C ) :   1.2067 B(  0-C ,  5-C ) :   1.2458 B(  0-C , 12-C ) :  -0.1229
B(  0-C , 43-S ) :   0.9570 B(  1-C ,  2-C ) :   1.1627 B(  1-C , 12-C ) :   0.8512
B(  1-C , 14-C ) :  -0.1208 B(  2-C ,  3-C ) :   1.2869 B(  2-C ,  6-C ) :   1.1625
B(  3-C ,  4-C ) :   1.2705 B(  3-C ,  7-C ) :   1.2840 B(  4-C ,  5-C ) :   1.3870
B(  4-C , 24-C ) :   0.9694 B(  4-C , 25-O ) :  -0.1478 B(  5-C ,  8-H ) :   0.9698
B(  6-C , 10-C ) :   1.2089 B(  6-C , 15-C ) :   0.8517 B(  6-C , 18-C ) :  -0.1220
B(  7-C ,  9-C ) :   1.3868 B(  7-C , 26-C ) :   0.9622 B(  7-C , 27-O ) :  -0.1540
B(  9-C , 10-C ) :   1.2449 B(  9-C , 11-H ) :   0.9682 B( 10-C , 15-C ) :  -0.1216
B( 10-C , 44-S ) :   0.9561 B( 12-C , 13-C ) :   1.1633 B( 12-C , 14-C ) :   1.2094
B( 13-C , 15-C ) :   1.1622 B( 13-C , 16-C ) :   1.2859 B( 14-C , 17-C ) :   1.2454
B( 14-C , 42-S ) :   0.9556 B( 15-C , 18-C ) :   1.2063 B( 16-C , 19-C ) :   1.2705
B( 16-C , 20-C ) :   1.2836 B( 17-C , 20-C ) :   1.3866 B( 17-C , 21-H ) :   0.9686
B( 18-C , 22-C ) :   1.2459 B( 18-C , 45-S ) :   0.9567 B( 19-C , 22-C ) :   1.3867
B( 19-C , 29-C ) :   0.9695 B( 19-C , 30-O ) :  -0.1479 B( 20-C , 31-C ) :   0.9626
B( 20-C , 32-O ) :  -0.1536 B( 22-C , 23-H ) :   0.9699 B( 24-C , 25-O ) :   2.0239
B( 24-C , 28-N ) :   1.1740 B( 26-C , 27-O ) :   2.0207 B( 26-C , 28-N ) :   1.1890
B( 28-N , 34-C ) :   0.8691 B( 29-C , 30-O ) :   2.0239 B( 29-C , 33-N ) :   1.1738
B( 31-C , 32-O ) :   2.0200 B( 31-C , 33-N ) :   1.1888 B( 33-N , 38-C ) :   0.8692
B( 34-C , 35-H ) :   0.9709 B( 34-C , 36-H ) :   0.9633 B( 34-C , 37-H ) :   0.9708
B( 38-C , 39-H ) :   0.9709 B( 38-C , 40-H ) :   0.9633 B( 38-C , 41-H ) :   0.9708
B( 42-S , 52-O ) :   1.7520 B( 42-S , 53-O ) :   1.8045 B( 42-S , 87-C ) :   0.9562
B( 43-S , 50-O ) :   1.7531 B( 43-S , 51-O ) :   1.8044 B( 43-S , 76-C ) :   0.9570
B( 44-S , 46-O ) :   1.7520 B( 44-S , 47-O ) :   1.8046 B( 44-S , 65-C ) :   0.9564
B( 45-S , 48-O ) :   1.8043 B( 45-S , 49-O ) :   1.7531 B( 45-S , 54-C ) :   0.9569
B( 54-C , 55-C ) :   1.2995 B( 54-C , 56-C ) :   1.3250 B( 55-C , 57-C ) :   1.4259
B( 55-C , 58-H ) :   0.9720 B( 56-C , 59-C ) :   1.4004 B( 56-C , 60-H ) :   0.9453
B( 57-C , 61-C ) :   1.3763 B( 57-C , 62-H ) :   0.9856 B( 59-C , 61-C ) :   1.3983
B( 59-C , 63-H ) :   0.9857 B( 61-C , 64-H ) :   0.9783 B( 65-C , 66-C ) :   1.3025
B( 65-C , 67-C ) :   1.3274 B( 66-C , 68-C ) :   1.4253 B( 66-C , 69-H ) :   0.9702
B( 67-C , 70-C ) :   1.4019 B( 67-C , 71-H ) :   0.9440 B( 68-C , 72-C ) :   1.3777
B( 68-C , 73-H ) :   0.9852 B( 70-C , 72-C ) :   1.3988 B( 70-C , 74-H ) :   0.9856
B( 72-C , 75-H ) :   0.9783 B( 76-C , 77-C ) :   1.2995 B( 76-C , 78-C ) :   1.3251
B( 77-C , 79-C ) :   1.4260 B( 77-C , 80-H ) :   0.9720 B( 78-C , 81-C ) :   1.4006
B( 78-C , 82-H ) :   0.9453 B( 79-C , 83-C ) :   1.3763 B( 79-C , 84-H ) :   0.9856
B( 81-C , 83-C ) :   1.3983 B( 81-C , 85-H ) :   0.9857 B( 83-C , 86-H ) :   0.9783
B( 87-C , 88-C ) :   1.3024 B( 87-C , 89-C ) :   1.3273 B( 88-C , 90-C ) :   1.4253
B( 88-C , 91-H ) :   0.9701 B( 89-C , 92-C ) :   1.4019 B( 89-C , 93-H ) :   0.9441
B( 90-C , 94-C ) :   1.3778 B( 90-C , 95-H ) :   0.9852 B( 92-C , 94-C ) :   1.3987
B( 92-C , 96-H ) :   0.9856 B( 94-C , 97-H ) :   0.9783

MP2 TOTAL ENERGY:    -4526.762170564 Eh

-----------------------------------------------------------------------------
         ABSORPTION SPECTRUM VIA TRANSITION ELECTRIC DIPOLE MOMENTS
-----------------------------------------------------------------------------
State   Energy    Wavelength  fosc         T2        TX        TY        TZ
        (cm-1)      (nm)                 (au**2)    (au)      (au)      (au)
-----------------------------------------------------------------------------
   1   18471.0    541.4   0.567949408  10.12267  -0.01109   3.18160   0.00001
   2   24254.6    412.3   0.007971239   0.10819  -0.00012   0.00002   0.32893
   3   25758.5    388.2   0.263326538   3.36550  -1.83451  -0.00812   0.00013
   4   27334.6    365.8   0.000070191   0.00085   0.00015  -0.00006   0.02907
   5   26864.9    372.2   0.024105253   0.29539   0.00032   0.00001   0.54350
   6   25141.5    397.7   0.000223971   0.00293  -0.05397   0.00452  -0.00024
   7   25315.9    395.0   0.000026275   0.00034   0.00024   0.00010  -0.01848
   8   25957.7    385.2   0.000354727   0.00450   0.00626   0.06678  -0.00002
   9   26029.3    384.2   0.000037217   0.00047   0.00013   0.00004   0.02170
  10   27802.9    359.7   0.000004777   0.00006  -0.00001  -0.00003  -0.00752
  11   27006.4    370.3   0.000001479   0.00002   0.00417  -0.00043  -0.00067
  12   27006.5    370.3   0.007779944   0.09484  -0.30767   0.01335   0.00001
  13   26883.1    372.0   0.001132621   0.01387   0.00050  -0.00098   0.11777
  14   26691.2    374.7   0.004126380   0.05090   0.03807   0.22236   0.00054
  15   28484.8    351.1   0.018088662   0.20906   0.00017   0.00002  -0.45723
  16   26584.1    376.2   0.000390076   0.00483  -0.06948   0.00189   0.00039
  17   28063.7    356.3   0.020960221   0.24588  -0.00005   0.00005   0.49586
  18   29435.7    339.7   0.037420943   0.41852   0.64670  -0.01737   0.00010
  19   31818.7    314.3   0.001539023   0.01592   0.00053   0.00011   0.12619
  20   30504.4    327.8   0.012617299   0.13617  -0.16192  -0.33159   0.00055
  21   30775.3    324.9   0.001479354   0.01583   0.00112  -0.00016  -0.12579
  22   30479.3    328.1   0.070236245   0.75863   0.00123   0.00018   0.87099
  23   33233.3    300.9   1.424702085  14.11321  -3.75674  -0.01113   0.00023
  24   31345.0    319.0   0.029786775   0.31285   0.55931   0.00468   0.00013
  25   36291.8    275.5   0.109018463   0.98893   0.02152  -0.99422   0.00005
  26   32803.0    304.8   0.021855704   0.21934   0.00078  -0.00225  -0.46834
  27   38079.7    262.6   0.113879904   0.98453   0.08679  -0.98843   0.00107
  28   40550.6    246.6   0.018156337   0.14740   0.06312   0.37868  -0.00472
  29   40567.6    246.5   0.032782154   0.26603   0.00006  -0.00349  -0.51577
  30   38199.8    261.8   0.544300983   4.69088   2.16566   0.02778   0.00034

Dispersion correction           -0.168782484
FINAL SINGLE POINT ENERGY     -4522.973722657306

DIPOLE MOMENT
-------------
                                X             Y             Z
Electronic contribution:      0.00010       0.00364      -0.22871
Nuclear contribution   :     -0.00016      -0.00468       0.26689
                        -----------------------------------------
Total Dipole Moment    :     -0.00006      -0.00104       0.03817
                        -----------------------------------------
Magnitude (a.u.)       :      0.03819
Magnitude (Debye)      :      0.09707

Rotational constants in cm-1:     0.001689     0.000890     0.000662
Rotational constants in MHz :    50.636708    26.686424    19.835733

                             ****ORCA TERMINATED NORMALLY****
TOTAL RUN TIME: 3 days 0 hours 14 minutes 51 seconds 970 msec
