 Gaussian 09, Revision E.01,
 Gaussian 09:  ES64L-G09RevE.01 30-Nov-2015

 ----------------------------------------------------------------------
 #p hf/def2TZVP int=ultrafine scrf=(SMD,solvent=dichloromethane) td=(NS
 tates=30)
 ----------------------------------------------------------------------

 -----
 Title
 -----
 Symbolic Z-matrix:
 Charge =  0 Multiplicity = 1

                         Standard orientation:
 ---------------------------------------------------------------------
 Center     Atomic      Atomic             Coordinates (Angstroms)
 Number     Number       Type             X           Y           Z
 ---------------------------------------------------------------------
      1          6           0        2.197652   -1.381354    0.933896
      2          6           0        1.214302   -0.701736    0.251374
      3          6           0        0.001195   -1.403841   -0.000787
      4          6           0        0.002539   -2.793524   -0.001337
      5          6           0        1.092899   -3.483702    0.542557
      6          6           0        2.115958   -2.781854    1.087071
      7          6           0       -1.213065   -0.703640   -0.252185
      8          6           0       -1.086238   -3.486899   -0.545296
      9          1           0        2.896450   -3.312241    1.590516
     10          6           0       -2.110400   -2.785436   -1.088641
     11          6           0       -2.195020   -1.385169   -0.934614
     12          1           0       -2.890185   -3.316586   -1.592148
     13          6           0        1.213080    0.703633   -0.252261
     14          6           0       -0.001177    1.403841   -0.000832
     15          6           0        2.195002    1.385153   -0.934750
     16          6           0       -1.214267    0.701739    0.251406
     17          6           0       -0.002532    2.793524   -0.001420
     18          6           0        2.110366    2.785415   -1.088801
     19          6           0       -2.197596    1.381370    0.933943
     20          6           0       -1.092877    3.483713    0.542490
     21          6           0        1.086222    3.486888   -0.545440
     22          1           0        2.890126    3.316555   -1.592356
     23          6           0       -2.115914    2.781878    1.087066
     24          1           0       -2.896396    3.312279    1.590514
     25          6           0        1.078203   -4.965828    0.575635
     26          8           0        1.959943   -5.593675    1.075265
     27          6           0       -1.076244   -4.971211   -0.583601
     28          8           0       -1.965692   -5.584235   -1.087428
     29          7           0        0.003708   -5.606464   -0.004289
     30          6           0       -1.078191    4.965841    0.575513
     31          8           0       -1.959919    5.593699    1.075150
     32          6           0        1.076221    4.971200   -0.583787
     33          8           0        1.965632    5.584211   -1.087696
     34          7           0       -0.003715    5.606464   -0.004459
     35          6           0        0.040198   -7.069522    0.014942
     36          1           0        0.923447   -7.419150   -0.498793
     37          1           0       -0.837719   -7.441492   -0.478515
     38          1           0        0.062186   -7.421474    1.035814
     39          6           0       -0.040217    7.069522    0.014718
     40          1           0       -0.923460    7.419128   -0.499041
     41          1           0        0.837705    7.441483   -0.478738
     42          1           0       -0.062222    7.421509    1.035578
     43         16           0        3.417518    0.571451   -1.960289
     44         16           0        3.417756   -0.565102    1.960265
     45         16           0       -3.417592   -0.571500   -1.960114
     46         16           0       -3.417654    0.565124    1.960368
     47          8           0       -3.839460    0.637682   -1.366192
     48          8           0       -2.795121   -0.494308   -3.229834
     49          8           0       -2.793988    0.489073    3.229565
     50          8           0       -3.837602   -0.644830    1.366681
     51          8           0        3.837675    0.644868    1.366593
     52          8           0        2.794122   -0.489070    3.229481
     53          8           0        3.839447   -0.637695   -1.366339
     54          8           0        2.794976    0.494191   -3.229970
     55          6           0       -4.798459    1.647440    2.113259
     56          6           0       -4.974940    2.335795    3.300783
     57          6           0       -5.710027    1.764956    1.075745
     58          6           0       -6.080706    3.151164    3.451303
     59          1           0       -4.264863    2.234541    4.095988
     60          6           0       -6.807309    2.584536    1.233918
     61          1           0       -5.562541    1.232370    0.159718
     62          6           0       -6.991888    3.275356    2.420219
     63          1           0       -6.226296    3.684981    4.370803
     64          1           0       -7.517562    2.682446    0.435332
     65          1           0       -7.849331    3.910880    2.538993
     66          6           0       -4.796507   -1.656427   -2.111880
     67          6           0       -4.972613   -2.345148   -3.299249
     68          6           0       -5.707154   -1.775472   -1.073744
     69          6           0       -6.077065   -3.162445   -3.448964
     70          1           0       -4.263259   -2.242717   -4.094945
     71          6           0       -6.803121   -2.596967   -1.231117
     72          1           0       -5.559969   -1.242556   -0.157868
     73          6           0       -6.987329   -3.288162   -2.417254
     74          1           0       -6.222360   -3.696552   -4.368344
     75          1           0       -7.512653   -2.696053   -0.432035
     76          1           0       -7.843755   -3.925172   -2.535405
     77          6           0        4.798573   -1.647426    2.113113
     78          6           0        4.975030   -2.335826    3.300616
     79          6           0        5.710190   -1.764888    1.075631
     80          6           0        6.080798   -3.151196    3.451144
     81          1           0        4.264932   -2.234604    4.095805
     82          6           0        6.807466   -2.584469    1.233809
     83          1           0        5.562748   -1.232256    0.159629
     84          6           0        6.992014   -3.275339    2.420089
     85          1           0        6.226371   -3.685036    4.370633
     86          1           0        7.517746   -2.682343    0.435242
     87          1           0        7.849455   -3.910864    2.538867
     88          6           0        4.796389    1.656402   -2.112162
     89          6           0        4.972442    2.345102   -3.299552
     90          6           0        5.707057    1.775510   -1.074052
     91          6           0        6.076861    3.162427   -3.449322
     92          1           0        4.263069    2.242618   -4.095228
     93          6           0        6.802997    2.597036   -1.231477
     94          1           0        5.559913    1.242623   -0.158153
     95          6           0        6.987152    3.288198   -2.417638
     96          1           0        6.222121    3.696508   -4.368722
     97          1           0        7.512547    2.696170   -0.432417
     98          1           0        7.843553    3.925232   -2.535833
 ---------------------------------------------------------------------

 SCF Done:  E(RHF) =  -4509.36748829     A.U. after   22 cycles

 Excitation energies and oscillator strengths:

 Excited State   1:      Singlet-A      3.2530 eV  381.13 nm  f=0.7146  <S**2>=0.000
     245 -> 254       -0.14489
     252 -> 253        0.65446
 This state for optimization and/or second-order correction.
 Total Energy, E(TD-HF/TD-KS) =  -4509.24794092
 Copying the excited state density for this state as the 1-particle RhoCI density.

 Excited State   2:      Singlet-A      4.1087 eV  301.76 nm  f=0.0284  <S**2>=0.000
     241 -> 254       -0.12983
     243 -> 253        0.23789
     246 -> 253        0.22038
     250 -> 253        0.52094
     251 -> 254       -0.17602
     252 -> 255        0.16046

 Excited State   3:      Singlet-A      4.3030 eV  288.14 nm  f=0.3819  <S**2>=0.000
     241 -> 253        0.29017
     247 -> 253       -0.24287
     250 -> 254       -0.22836
     251 -> 253        0.44122
     252 -> 256        0.20718

 Excited State   4:      Singlet-A      4.3923 eV  282.28 nm  f=0.0000  <S**2>=0.000
     242 -> 253        0.24898
     245 -> 253        0.42719
     250 -> 256       -0.14126
     252 -> 254       -0.40361

 Excited State   5:      Singlet-A      4.6018 eV  269.43 nm  f=0.0786  <S**2>=0.000
     240 -> 253        0.49663
     243 -> 253       -0.14397
     250 -> 253        0.12583
     252 -> 255       -0.24947
     252 -> 257        0.27442

 Excited State   6:      Singlet-A      5.4656 eV  226.84 nm  f=0.2188  <S**2>=0.000
     242 -> 256        0.10800
     245 -> 256        0.23555
     250 -> 253       -0.16995
     252 -> 255        0.46077
     252 -> 257        0.30108
     252 -> 261        0.16262

 Excited State   7:      Singlet-A      5.6552 eV  219.24 nm  f=2.3924  <S**2>=0.000
     241 -> 260       -0.11539
     242 -> 261        0.15603
     243 -> 258       -0.13704
     244 -> 259        0.15177
     245 -> 255        0.17009
     245 -> 257        0.16712
     247 -> 253        0.11372
     251 -> 253       -0.17805
     252 -> 256        0.47689
     252 -> 259       -0.11735

 Excited State   8:      Singlet-A      5.7070 eV  217.25 nm  f=0.0298  <S**2>=0.000
     241 -> 262        0.11977
     242 -> 263       -0.13172
     243 -> 265       -0.13311
     244 -> 264       -0.15837
     246 -> 257        0.11924
     246 -> 261       -0.21579
     247 -> 259       -0.22491
     248 -> 260       -0.29961
     249 -> 258        0.31063
     250 -> 261        0.13328
     251 -> 259       -0.18223

 Excited State   9:      Singlet-A      5.7093 eV  217.16 nm  f=0.0002  <S**2>=0.000
     240 -> 256       -0.11041
     242 -> 253        0.18655
     245 -> 253        0.34493
     252 -> 254        0.48148

 Excited State  10:      Singlet-A      5.7126 eV  217.03 nm  f=0.2238  <S**2>=0.000
     241 -> 263       -0.12267
     242 -> 262        0.13275
     243 -> 264        0.13886
     244 -> 265        0.15907
     246 -> 260        0.26212
     247 -> 258       -0.25136
     248 -> 257       -0.13029
     248 -> 261        0.25815
     249 -> 256        0.11615
     249 -> 259        0.28843
     250 -> 260       -0.14306
     251 -> 258       -0.18242

 Excited State  11:      Singlet-A      5.7243 eV  216.59 nm  f=0.0000  <S**2>=0.000
     241 -> 265        0.12130
     242 -> 264       -0.13726
     243 -> 262       -0.14439
     244 -> 263       -0.16493
     246 -> 259       -0.24941
     247 -> 257        0.10837
     247 -> 261       -0.19331
     248 -> 258        0.30467
     249 -> 260       -0.29803
     250 -> 259        0.13440
     251 -> 261       -0.16660

 Excited State  12:      Singlet-A      5.7247 eV  216.58 nm  f=0.0033  <S**2>=0.000
     241 -> 264       -0.12610
     242 -> 265        0.13678
     243 -> 263        0.14464
     244 -> 262        0.16288
     246 -> 258       -0.27382
     247 -> 260        0.24166
     248 -> 256        0.11149
     248 -> 259        0.28530
     249 -> 257       -0.13095
     249 -> 261        0.25942
     250 -> 258        0.13783
     251 -> 260        0.18006

 Excited State  13:      Singlet-A      5.8034 eV  213.64 nm  f=0.0013  <S**2>=0.000
     241 -> 259       -0.19398
     242 -> 258       -0.21937
     243 -> 261        0.19567
     244 -> 260        0.25985
     245 -> 258        0.15532
     246 -> 265       -0.16223
     247 -> 259       -0.12245
     247 -> 262       -0.16209
     248 -> 264       -0.19575
     249 -> 263       -0.19899
     250 -> 257        0.10320
     251 -> 256        0.11993
     251 -> 259        0.10113
     251 -> 262       -0.11348

 Excited State  14:      Singlet-A      5.8146 eV  213.23 nm  f=0.0000  <S**2>=0.000
     241 -> 261       -0.17504
     242 -> 260        0.21250
     243 -> 259        0.22160
     244 -> 258       -0.26316
     245 -> 260       -0.14866
     246 -> 262       -0.18022
     247 -> 261       -0.11802
     247 -> 265       -0.14680
     248 -> 263       -0.19504
     249 -> 264       -0.19574
     250 -> 256       -0.11005
     251 -> 265       -0.12375

 Excited State  15:      Singlet-A      5.8282 eV  212.73 nm  f=0.0001  <S**2>=0.000
     241 -> 258        0.19151
     242 -> 256        0.10055
     242 -> 259        0.19237
     243 -> 260        0.21877
     244 -> 257       -0.11330
     244 -> 261        0.21750
     245 -> 259       -0.15466
     246 -> 264       -0.17553
     247 -> 258        0.12148
     247 -> 263       -0.16760
     248 -> 265       -0.20067
     249 -> 262       -0.20327
     251 -> 258       -0.13892
     251 -> 263       -0.11895
     252 -> 255        0.12366

 Excited State  16:      Singlet-A      5.8696 eV  211.23 nm  f=0.1757  <S**2>=0.000
     241 -> 260       -0.15864
     242 -> 255       -0.10372
     242 -> 257       -0.10828
     242 -> 261        0.13003
     243 -> 258       -0.19175
     244 -> 259        0.20239
     245 -> 261       -0.14398
     246 -> 263       -0.17706
     247 -> 260       -0.10001
     247 -> 264       -0.15775
     248 -> 262       -0.19659
     249 -> 265       -0.19656
     251 -> 253        0.15062
     251 -> 260        0.11190
     251 -> 264       -0.12087
     252 -> 256       -0.24045
     252 -> 259        0.10396

 Excited State  17:      Singlet-A      5.9068 eV  209.90 nm  f=0.0046  <S**2>=0.000
     231 -> 253       -0.13799
     234 -> 253       -0.20938
     237 -> 253        0.22663
     239 -> 253        0.12495
     240 -> 254        0.28220
     242 -> 255        0.11703
     242 -> 257       -0.10086
     243 -> 254       -0.16086
     245 -> 255        0.21746
     245 -> 257       -0.14469
     250 -> 254       -0.16262
     252 -> 267       -0.22699

 Excited State  18:      Singlet-A      5.9295 eV  209.10 nm  f=0.0041  <S**2>=0.000
     230 -> 267        0.12008
     232 -> 253        0.15031
     232 -> 266        0.12159
     234 -> 254        0.28290
     234 -> 268       -0.19689
     235 -> 253        0.32208
     235 -> 266        0.22798

 Excited State  19:      Singlet-A      5.9385 eV  208.78 nm  f=0.0150  <S**2>=0.000
     229 -> 267       -0.10325
     231 -> 253       -0.13566
     232 -> 254        0.11646
     234 -> 253        0.29024
     234 -> 266        0.23121
     235 -> 254        0.26020
     235 -> 268       -0.17266
     237 -> 253        0.15266
     240 -> 254        0.10408

 Excited State  20:      Singlet-A      5.9698 eV  207.69 nm  f=0.1270  <S**2>=0.000
     236 -> 253        0.22295
     241 -> 256        0.19182
     242 -> 254        0.13620
     243 -> 257        0.12657
     245 -> 254        0.19861
     246 -> 257        0.12004
     247 -> 256       -0.13477
     250 -> 257        0.28161
     250 -> 261        0.13104
     251 -> 256        0.24327
     252 -> 253        0.15396

 Excited State  21:      Singlet-A      6.0976 eV  203.33 nm  f=0.0132  <S**2>=0.000
     240 -> 253       -0.35331
     243 -> 253        0.15387
     252 -> 255       -0.31307
     252 -> 257        0.40305

 Excited State  22:      Singlet-A      6.1825 eV  200.54 nm  f=0.3226  <S**2>=0.000
     228 -> 253       -0.12916
     229 -> 253        0.15441
     229 -> 266        0.13906
     230 -> 254       -0.17093
     233 -> 254        0.13284
     234 -> 267       -0.14668
     235 -> 255       -0.10078
     235 -> 257        0.10549
     236 -> 253       -0.22699
     243 -> 255        0.11629
     246 -> 255        0.12120
     250 -> 255        0.28532
     251 -> 256        0.11315

 Excited State  23:      Singlet-A      6.1951 eV  200.13 nm  f=0.0000  <S**2>=0.000
     227 -> 253       -0.10828
     228 -> 254       -0.12543
     229 -> 254        0.19752
     229 -> 268       -0.11395
     230 -> 253       -0.24144
     230 -> 266       -0.16741
     233 -> 253        0.21344
     233 -> 266        0.11723
     234 -> 255       -0.12902
     234 -> 257        0.13604
     234 -> 290        0.11575
     235 -> 267       -0.17604
     236 -> 254       -0.14969

 Excited State  24:      Singlet-A      6.2494 eV  198.39 nm  f=0.1590  <S**2>=0.000
     229 -> 253       -0.20925
     234 -> 267        0.11474
     240 -> 257       -0.10104
     243 -> 255        0.18138
     246 -> 255        0.16443
     250 -> 255        0.38910
     250 -> 257       -0.18902
     251 -> 267       -0.12212

 Excited State  25:      Singlet-A      6.2964 eV  196.91 nm  f=0.0000  <S**2>=0.000
     241 -> 255        0.18823
     242 -> 253        0.11203
     243 -> 256        0.11819
     245 -> 253        0.11049
     246 -> 256        0.15117
     247 -> 255       -0.15110
     250 -> 256        0.31491
     250 -> 259       -0.10860
     251 -> 255        0.29327
     251 -> 257        0.10873
     252 -> 254       -0.18606

 Excited State  26:      Singlet-A      6.4604 eV  191.91 nm  f=0.0000  <S**2>=0.000
     224 -> 253       -0.12452
     240 -> 256        0.15981
     241 -> 255       -0.13082
     241 -> 257        0.18404
     242 -> 253       -0.10966
     245 -> 253        0.23601
     247 -> 255        0.13461
     247 -> 257       -0.15371
     250 -> 256        0.15985
     250 -> 267        0.16635
     251 -> 255       -0.23984
     251 -> 257        0.29827

 Excited State  27:      Singlet-A      6.4998 eV  190.75 nm  f=0.1323  <S**2>=0.000
     229 -> 253        0.11484
     236 -> 253        0.16674
     240 -> 255       -0.25233
     242 -> 254        0.18483
     243 -> 255        0.10377
     245 -> 254        0.28777
     248 -> 253        0.12978
     250 -> 257       -0.10144
     251 -> 256       -0.12976
     252 -> 266       -0.28083

 Excited State  28:      Singlet-A      6.7415 eV  183.91 nm  f=0.0330  <S**2>=0.000
     239 -> 253        0.17231
     241 -> 253       -0.11615
     243 -> 254        0.11166
     246 -> 254        0.18334
     247 -> 253        0.35411
     250 -> 254        0.22453
     251 -> 253        0.40666

 Excited State  29:      Singlet-A      6.7608 eV  183.39 nm  f=0.0000  <S**2>=0.000
     248 -> 254        0.10560
     249 -> 253        0.64986

 Excited State  30:      Singlet-A      6.7778 eV  182.93 nm  f=0.0283  <S**2>=0.000
     243 -> 253        0.12171
     246 -> 253        0.55991
     247 -> 254        0.12031
     250 -> 253       -0.29237

 The electronic state is 1-A.
 Alpha  occ. eigenvalues --  -92.17042 -92.17042 -92.17040 -92.17040 -20.55098
 Alpha  occ. eigenvalues --  -20.55098 -20.55096 -20.55096 -20.54859 -20.54859
 Alpha  occ. eigenvalues --  -20.54857 -20.54857 -20.54515 -20.54515 -20.54459
 Alpha  occ. eigenvalues --  -20.54459 -15.61746 -15.61746 -11.37632 -11.37632
 Alpha  occ. eigenvalues --  -11.37417 -11.37417 -11.30914 -11.30914 -11.30843
 Alpha  occ. eigenvalues --  -11.30841 -11.29518 -11.29518 -11.29512 -11.29512
 Alpha  occ. eigenvalues --  -11.28130 -11.28129 -11.27965 -11.27965 -11.27467
 Alpha  occ. eigenvalues --  -11.27467 -11.27453 -11.27453 -11.26657 -11.26657
 Alpha  occ. eigenvalues --  -11.26634 -11.26634 -11.26581 -11.26581 -11.26579
 Alpha  occ. eigenvalues --  -11.26579 -11.25196 -11.25196 -11.25194 -11.25194
 Alpha  occ. eigenvalues --  -11.25025 -11.25025 -11.25022 -11.25022 -11.24977
 Alpha  occ. eigenvalues --  -11.24976 -11.24551 -11.24551 -11.24550 -11.24550
 Alpha  occ. eigenvalues --  -11.23726 -11.23726 -11.23725 -11.23725 -11.23704
 Alpha  occ. eigenvalues --  -11.23704 -11.23703 -11.23703  -9.14466  -9.14465
 Alpha  occ. eigenvalues --   -9.14463  -9.14463  -6.83023  -6.83023  -6.83020
 Alpha  occ. eigenvalues --   -6.83020  -6.82975  -6.82975  -6.82972  -6.82972
 Alpha  occ. eigenvalues --   -6.82967  -6.82967  -6.82965  -6.82965  -1.48648
 Alpha  occ. eigenvalues --   -1.48646  -1.48415  -1.48415  -1.43913  -1.43912
 Alpha  occ. eigenvalues --   -1.41969  -1.41969  -1.36650  -1.36650  -1.36405
 Alpha  occ. eigenvalues --   -1.36405  -1.27414  -1.27267  -1.25673  -1.22546
 Alpha  occ. eigenvalues --   -1.18596  -1.18117  -1.18015  -1.18014  -1.17827
 Alpha  occ. eigenvalues --   -1.16261  -1.15156  -1.09545  -1.08478  -1.07700
 Alpha  occ. eigenvalues --   -1.06994  -1.05993  -1.05773  -1.04836  -1.04505
 Alpha  occ. eigenvalues --   -1.03617  -1.03617  -1.03603  -1.03571  -1.03192
 Alpha  occ. eigenvalues --   -0.98897  -0.97484  -0.97372  -0.93752  -0.93137
 Alpha  occ. eigenvalues --   -0.92655  -0.91946  -0.91528  -0.89593  -0.89327
 Alpha  occ. eigenvalues --   -0.87373  -0.87158  -0.86024  -0.84718  -0.84709
 Alpha  occ. eigenvalues --   -0.84646  -0.84581  -0.83942  -0.82291  -0.82213
 Alpha  occ. eigenvalues --   -0.81329  -0.80457  -0.78478  -0.77120  -0.77071
 Alpha  occ. eigenvalues --   -0.75233  -0.74422  -0.74395  -0.74194  -0.74154
 Alpha  occ. eigenvalues --   -0.73664  -0.72881  -0.71111  -0.70518  -0.70507
 Alpha  occ. eigenvalues --   -0.69640  -0.68654  -0.68467  -0.67986  -0.67547
 Alpha  occ. eigenvalues --   -0.67251  -0.67093  -0.67084  -0.67049  -0.66913
 Alpha  occ. eigenvalues --   -0.66849  -0.66813  -0.66368  -0.65995  -0.65968
 Alpha  occ. eigenvalues --   -0.65218  -0.64623  -0.64602  -0.64403  -0.64382
 Alpha  occ. eigenvalues --   -0.63972  -0.63850  -0.63697  -0.63682  -0.63232
 Alpha  occ. eigenvalues --   -0.63203  -0.62931  -0.62563  -0.62402  -0.61523
 Alpha  occ. eigenvalues --   -0.61005  -0.60730  -0.60670  -0.60119  -0.60118
 Alpha  occ. eigenvalues --   -0.59670  -0.59185  -0.58259  -0.57395  -0.57105
 Alpha  occ. eigenvalues --   -0.56199  -0.55940  -0.55414  -0.55395  -0.54991
 Alpha  occ. eigenvalues --   -0.54945  -0.54819  -0.54685  -0.54516  -0.54370
 Alpha  occ. eigenvalues --   -0.54086  -0.54010  -0.53062  -0.52735  -0.52634
 Alpha  occ. eigenvalues --   -0.52589  -0.52016  -0.52006  -0.51959  -0.51816
 Alpha  occ. eigenvalues --   -0.51526  -0.51230  -0.51143  -0.50964  -0.50913
 Alpha  occ. eigenvalues --   -0.50853  -0.50744  -0.49900  -0.49822  -0.49678
 Alpha  occ. eigenvalues --   -0.48275  -0.47953  -0.47028  -0.46977  -0.46807
 Alpha  occ. eigenvalues --   -0.46028  -0.45789  -0.45646  -0.45031  -0.44886
 Alpha  occ. eigenvalues --   -0.44322  -0.44201  -0.41695  -0.41495  -0.37836
 Alpha  occ. eigenvalues --   -0.37287  -0.36704  -0.36599  -0.36499  -0.35809
 Alpha  occ. eigenvalues --   -0.35460  -0.35394  -0.35330  -0.35196  -0.34762
 Alpha  occ. eigenvalues --   -0.34748  -0.30485
 Alpha virt. eigenvalues --   -0.02194   0.04280   0.05896   0.07101   0.07358
 Alpha virt. eigenvalues --    0.08237   0.08529   0.08777   0.09488   0.11222
 Alpha virt. eigenvalues --    0.11452   0.11627   0.11683   0.13118   0.13656

 Mulliken charges:
               1
     1  C    0.027709
     2  C    0.053422
     3  C    0.024712
     4  C    0.282831
     5  C   -0.018707
     6  C   -0.249811
     7  C    0.052651
     8  C   -0.027638
     9  H    0.201717
    10  C   -0.243416
    11  C    0.026368
    12  H    0.202340
    13  C    0.052666
    14  C    0.024681
    15  C    0.026328
    16  C    0.053444
    17  C    0.282829
    18  C   -0.243390
    19  C    0.027695
    20  C   -0.018714
    21  C   -0.027640
    22  H    0.202342
    23  C   -0.249794
    24  H    0.201721
    25  C    0.319588
    26  O   -0.506776
    27  C    0.311740
    28  O   -0.511938
    29  N   -0.160565
    30  C    0.319592
    31  O   -0.506776
    32  C    0.311739
    33  O   -0.511939
    34  N   -0.160565
    35  C   -0.248921
    36  H    0.140359
    37  H    0.171468
    38  H    0.139946
    39  C   -0.248921
    40  H    0.140359
    41  H    0.171468
    42  H    0.139947
    43  S    1.143505
    44  S    1.143509
    45  S    1.143508
    46  S    1.143515
    47  O   -0.645175
    48  O   -0.623927
    49  O   -0.623887
    50  O   -0.645108
    51  O   -0.645103
    52  O   -0.623889
    53  O   -0.645169
    54  O   -0.623925
    55  C   -0.043382
    56  C   -0.120816
    57  C   -0.125451
    58  C   -0.177206
    59  H    0.184594
    60  C   -0.197756
    61  H    0.192048
    62  C   -0.082403
    63  H    0.167223
    64  H    0.167139
    65  H    0.167983
    66  C   -0.043441
    67  C   -0.120908
    68  C   -0.125169
    69  C   -0.177093
    70  H    0.184570
    71  C   -0.197866
    72  H    0.192038
    73  C   -0.082405
    74  H    0.167206
    75  H    0.167122
    76  H    0.167969
    77  C   -0.043408
    78  C   -0.120790
    79  C   -0.125436
    80  C   -0.177215
    81  H    0.184594
    82  C   -0.197763
    83  H    0.192046
    84  C   -0.082394
    85  H    0.167223
    86  H    0.167138
    87  H    0.167984
    88  C   -0.043437
    89  C   -0.120919
    90  C   -0.125163
    91  C   -0.177093
    92  H    0.184568
    93  C   -0.197869
    94  H    0.192038
    95  C   -0.082401
    96  H    0.167206
    97  H    0.167122
    98  H    0.167969
 Sum of Mulliken charges =  -0.00000

 Dipole moment (field-independent basis, Debye):
    X=              0.0001    Y=              0.0002    Z=              0.0152  Tot=              0.0152
 Quadrupole moment (field-independent basis, Debye-Ang):
   XX=           -300.9304   YY=           -399.4315   ZZ=           -431.4539
   XY=              0.2130   XZ=             -0.0031   YZ=             -0.0010

 Normal termination of Gaussian 09 at Mon Jul  4 11:38:35 2022.
