 Gaussian 09, Revision E.01,
 Gaussian 09:  ES64L-G09RevE.01 30-Nov-2015

 ----------------------------------------------------------------------
 #p m06/def2TZVP int=ultrafine scrf=(SMD,solvent=dichloromethane) td=(N
 States=30)
 ----------------------------------------------------------------------

 -----
 Title
 -----
 Symbolic Z-matrix:
 Charge =  0 Multiplicity = 1

                         Standard orientation:
 ---------------------------------------------------------------------
 Center     Atomic      Atomic             Coordinates (Angstroms)
 Number     Number       Type             X           Y           Z
 ---------------------------------------------------------------------
      1          6           0        2.227554   -1.405369    0.874941
      2          6           0        1.218845   -0.697964    0.230311
      3          6           0        0.000927   -1.396243   -0.000305
      4          6           0        0.001978   -2.803456   -0.000451
      5          6           0        1.099771   -3.499534    0.522545
      6          6           0        2.141039   -2.791694    1.054956
      7          6           0       -1.217841   -0.699577   -0.230459
      8          6           0       -1.094432   -3.502501   -0.523062
      9          1           0        2.918511   -3.324445    1.590590
     10          6           0       -2.136503   -2.794984   -1.054927
     11          6           0       -2.225328   -1.408861   -0.874899
     12          1           0       -2.913400   -3.328603   -1.590415
     13          6           0        1.217834    0.699495   -0.230780
     14          6           0       -0.000912    1.396262   -0.000830
     15          6           0        2.225298    1.408515   -0.875554
     16          6           0       -1.218843    0.698081    0.230046
     17          6           0       -0.001900    2.803475   -0.001430
     18          6           0        2.136552    2.794590   -1.055969
     19          6           0       -2.227553    1.405758    0.874372
     20          6           0       -1.099651    3.499764    0.521374
     21          6           0        1.094537    3.502312   -0.524265
     22          1           0        2.913461    3.328007   -1.591642
     23          6           0       -2.140959    2.792132    1.053979
     24          1           0       -2.918399    3.325087    1.589456
     25          6           0        1.097875   -4.972984    0.564068
     26          8           0        2.002655   -5.609985    1.051629
     27          6           0       -1.097628   -4.977812   -0.568271
     28          8           0       -2.008845   -5.600557   -1.060788
     29          7           0        0.002570   -5.615872   -0.000834
     30          6           0       -1.097675    4.973225    0.562483
     31          8           0       -2.002423    5.610414    1.049860
     32          6           0        1.097807    4.977609   -0.569896
     33          8           0        2.009038    5.600167   -1.062623
     34          7           0       -0.002338    5.615891   -0.002603
     35          6           0        0.035247   -7.071077    0.016679
     36          1           0        0.911146   -7.432107   -0.522079
     37          1           0       -0.866779   -7.440905   -0.459555
     38          1           0        0.085265   -7.431951    1.043847
     39          6           0       -0.034932    7.071103    0.014512
     40          1           0       -0.910833    7.432037   -0.524304
     41          1           0        0.867097    7.440749   -0.461860
     42          1           0       -0.084884    7.432260    1.041585
     43         16           0        3.527454    0.640800   -1.825485
     44         16           0        3.528389   -0.635622    1.824990
     45         16           0       -3.527666   -0.641526   -1.824885
     46         16           0       -3.528535    0.636412    1.824533
     47          8           0       -3.444219    0.784021   -1.679322
     48          8           0       -3.379096   -1.189847   -3.145541
     49          8           0       -3.380261    1.184670    3.145250
     50          8           0       -3.443327   -0.788993    1.678658
     51          8           0        3.443024    0.789744    1.678798
     52          8           0        3.380130   -1.183598    3.145826
     53          8           0        3.443797   -0.784714   -1.679704
     54          8           0        3.378918    1.188947   -3.146217
     55          6           0       -5.097736    1.194370    1.216889
     56          6           0       -6.192173    0.596495    1.831245
     57          6           0       -5.262467    2.202499    0.283042
     58          6           0       -7.465286    1.019874    1.501451
     59          1           0       -6.048219   -0.191348    2.563062
     60          6           0       -6.544663    2.621453   -0.033854
     61          1           0       -4.413204    2.655295   -0.210168
     62          6           0       -7.641407    2.035194    0.573272
     63          1           0       -8.322963    0.555213    1.973466
     64          1           0       -6.681038    3.411181   -0.763005
     65          1           0       -8.641471    2.367980    0.320424
     66          6           0       -5.096048   -1.201203   -1.216698
     67          6           0       -6.191353   -0.604210   -1.830364
     68          6           0       -5.259371   -2.209740   -0.283045
     69          6           0       -7.463907   -1.028853   -1.500046
     70          1           0       -6.048500    0.183970   -2.562034
     71          6           0       -6.541019   -2.629942    0.034412
     72          1           0       -4.409435   -2.661950    0.209545
     73          6           0       -7.638614   -2.044529   -0.571993
     74          1           0       -8.322251   -0.564861   -1.971508
     75          1           0       -6.676300   -3.419983    0.763430
     76          1           0       -8.638244   -2.378267   -0.318680
     77          6           0        5.097689   -1.193532    1.217581
     78          6           0        6.192007   -0.595184    1.831692
     79          6           0        5.262609   -2.202013    0.284148
     80          6           0        7.465209   -1.018338    1.501974
     81          1           0        6.047889    0.192947    2.563170
     82          6           0        6.544896   -2.620758   -0.032655
     83          1           0        4.413426   -2.655211   -0.208832
     84          6           0        7.641526   -2.033954    0.574148
     85          1           0        8.322792   -0.553287    1.973773
     86          1           0        6.681438   -3.410706   -0.761538
     87          1           0        8.641659   -2.366570    0.321350
     88          6           0        5.095942    1.200325   -1.217459
     89          6           0        6.191116    0.602926   -1.830971
     90          6           0        5.259477    2.209074   -0.284079
     91          6           0        7.463769    1.027281   -1.500688
     92          1           0        6.048081   -0.185422   -2.562426
     93          6           0        6.541229    2.628968    0.033372
     94          1           0        4.409635    2.661635    0.208353
     95          6           0        7.638697    2.043083   -0.572808
     96          1           0        8.322009    0.562960   -1.972013
     97          1           0        6.676694    3.419093    0.762263
     98          1           0        8.638404    2.376577   -0.319479
 ---------------------------------------------------------------------

 SCF Done:  E(RM06) =  -4527.55032721     A.U. after   22 cycles

 Excitation energies and oscillator strengths:

 Excited State   1:      Singlet-A      2.3532 eV  526.87 nm  f=0.4703  <S**2>=0.000
     252 -> 253        0.70411
 This state for optimization and/or second-order correction.
 Total Energy, E(TD-HF/TD-KS) =  -4527.46384828
 Copying the excited state density for this state as the 1-particle RhoCI density.

 Excited State   2:      Singlet-A      3.0638 eV  404.68 nm  f=0.0075  <S**2>=0.000
     240 -> 253        0.15453
     243 -> 253        0.44027
     245 -> 253       -0.33164
     251 -> 253        0.39290

 Excited State   3:      Singlet-A      3.1109 eV  398.54 nm  f=0.0334  <S**2>=0.000
     248 -> 253        0.20061
     249 -> 253        0.66983

 Excited State   4:      Singlet-A      3.1167 eV  397.80 nm  f=0.0001  <S**2>=0.000
     248 -> 253        0.67352
     249 -> 253       -0.20200

 Excited State   5:      Singlet-A      3.1414 eV  394.68 nm  f=0.0002  <S**2>=0.000
     250 -> 253        0.70385

 Excited State   6:      Singlet-A      3.1584 eV  392.55 nm  f=0.0001  <S**2>=0.000
     240 -> 253       -0.12887
     243 -> 253       -0.27271
     245 -> 253        0.24501
     251 -> 253        0.58357

 Excited State   7:      Singlet-A      3.3573 eV  369.30 nm  f=0.1206  <S**2>=0.000
     241 -> 253       -0.45010
     247 -> 253        0.49169
     252 -> 256        0.15151

 Excited State   8:      Singlet-A      3.3742 eV  367.45 nm  f=0.0014  <S**2>=0.000
     240 -> 253        0.27093
     242 -> 253        0.41571
     245 -> 253        0.11866
     246 -> 253        0.46404

 Excited State   9:      Singlet-A      3.3857 eV  366.20 nm  f=0.0037  <S**2>=0.000
     236 -> 253       -0.12247
     240 -> 253        0.55950
     242 -> 253       -0.11929
     245 -> 253        0.22244
     246 -> 253       -0.29399

 Excited State  10:      Singlet-A      3.3918 eV  365.54 nm  f=0.0006  <S**2>=0.000
     238 -> 254       -0.14741
     239 -> 253        0.66919

 Excited State  11:      Singlet-A      3.3940 eV  365.30 nm  f=0.0002  <S**2>=0.000
     238 -> 253        0.53948
     239 -> 254       -0.16462
     241 -> 253        0.33154
     247 -> 253        0.24050

 Excited State  12:      Singlet-A      3.4256 eV  361.94 nm  f=0.0046  <S**2>=0.000
     244 -> 253        0.70262

 Excited State  13:      Singlet-A      3.4383 eV  360.60 nm  f=0.0024  <S**2>=0.000
     240 -> 253       -0.14416
     243 -> 253        0.44758
     245 -> 253        0.50027

 Excited State  14:      Singlet-A      3.4485 eV  359.53 nm  f=0.0002  <S**2>=0.000
     240 -> 253       -0.12212
     242 -> 253        0.51707
     246 -> 253       -0.42795
     252 -> 254       -0.12734

 Excited State  15:      Singlet-A      3.4565 eV  358.70 nm  f=0.0256  <S**2>=0.000
     238 -> 253       -0.38541
     241 -> 253        0.34743
     247 -> 253        0.43797
     252 -> 256       -0.12847

 Excited State  16:      Singlet-A      3.7127 eV  333.95 nm  f=0.0000  <S**2>=0.000
     234 -> 253        0.13501
     242 -> 253        0.15769
     252 -> 254        0.66179

 Excited State  17:      Singlet-A      3.8127 eV  325.19 nm  f=0.0430  <S**2>=0.000
     235 -> 253       -0.10237
     237 -> 253        0.63876
     238 -> 253       -0.10715
     241 -> 253        0.13843
     252 -> 256        0.17081

 Excited State  18:      Singlet-A      3.8331 eV  323.46 nm  f=0.0115  <S**2>=0.000
     234 -> 254       -0.15500
     235 -> 253        0.66496

 Excited State  19:      Singlet-A      3.8644 eV  320.84 nm  f=0.0000  <S**2>=0.000
     234 -> 253        0.64288
     235 -> 254       -0.15524
     236 -> 253       -0.10489
     252 -> 254       -0.14007

 Excited State  20:      Singlet-A      3.8682 eV  320.52 nm  f=0.0003  <S**2>=0.000
     234 -> 253        0.12712
     236 -> 253        0.49518
     240 -> 253        0.11585
     252 -> 255        0.45464

 Excited State  21:      Singlet-A      3.9921 eV  310.58 nm  f=0.0497  <S**2>=0.000
     232 -> 253       -0.10507
     236 -> 253       -0.44129
     240 -> 253       -0.10424
     252 -> 255        0.49302
     252 -> 257       -0.14624

 Excited State  22:      Singlet-A      4.0114 eV  309.08 nm  f=0.0092  <S**2>=0.000
     233 -> 253        0.69080

 Excited State  23:      Singlet-A      4.2336 eV  292.86 nm  f=0.0014  <S**2>=0.000
     232 -> 253       -0.40635
     252 -> 257        0.54586

 Excited State  24:      Singlet-A      4.2647 eV  290.72 nm  f=0.6548  <S**2>=0.000
     237 -> 253       -0.21865
     241 -> 253        0.14507
     243 -> 254       -0.20996
     245 -> 254        0.13945
     252 -> 256        0.58855

 Excited State  25:      Singlet-A      4.2884 eV  289.12 nm  f=0.0484  <S**2>=0.000
     232 -> 253        0.55420
     236 -> 253       -0.11187
     252 -> 255        0.10877
     252 -> 257        0.36985

 Excited State  26:      Singlet-A      4.2993 eV  288.38 nm  f=0.0002  <S**2>=0.000
     231 -> 253        0.68841

 Excited State  27:      Singlet-A      4.3545 eV  284.73 nm  f=0.0052  <S**2>=0.000
     230 -> 253        0.68112

 Excited State  28:      Singlet-A      4.5962 eV  269.75 nm  f=0.0001  <S**2>=0.000
     248 -> 254        0.62384
     249 -> 254       -0.28495

 Excited State  29:      Singlet-A      4.5988 eV  269.60 nm  f=0.0004  <S**2>=0.000
     248 -> 254        0.28646
     249 -> 254        0.63003

 Excited State  30:      Singlet-A      4.6064 eV  269.16 nm  f=0.1358  <S**2>=0.000
     228 -> 253       -0.11876
     243 -> 254        0.10550
     251 -> 254        0.66558
     252 -> 256        0.12416

 The electronic state is 1-A.
 Alpha  occ. eigenvalues --  -89.23633 -89.23633 -89.23632 -89.23632 -19.21505
 Alpha  occ. eigenvalues --  -19.21505 -19.21504 -19.21504 -19.21130 -19.21130
 Alpha  occ. eigenvalues --  -19.21129 -19.21129 -19.20467 -19.20467 -19.20430
 Alpha  occ. eigenvalues --  -19.20430 -14.45005 -14.45004 -10.37150 -10.37150
 Alpha  occ. eigenvalues --  -10.36948 -10.36948 -10.31360 -10.31359 -10.31324
 Alpha  occ. eigenvalues --  -10.31322 -10.30267 -10.30267 -10.30263 -10.30262
 Alpha  occ. eigenvalues --  -10.29507 -10.29506 -10.29228 -10.29227 -10.28370
 Alpha  occ. eigenvalues --  -10.28370 -10.28369 -10.28368 -10.28188 -10.28187
 Alpha  occ. eigenvalues --  -10.28157 -10.28156 -10.27811 -10.27810 -10.27809
 Alpha  occ. eigenvalues --  -10.27808 -10.26488 -10.26488 -10.25974 -10.25974
 Alpha  occ. eigenvalues --  -10.25973 -10.25973 -10.25927 -10.25927 -10.25926
 Alpha  occ. eigenvalues --  -10.25926 -10.25143 -10.25143 -10.25142 -10.25141
 Alpha  occ. eigenvalues --  -10.25032 -10.25032 -10.25031 -10.25031 -10.24947
 Alpha  occ. eigenvalues --  -10.24947 -10.24946 -10.24946  -8.22259  -8.22259
 Alpha  occ. eigenvalues --   -8.22258  -8.22258  -6.13872  -6.13872  -6.13870
 Alpha  occ. eigenvalues --   -6.13870  -6.13785  -6.13785  -6.13784  -6.13784
 Alpha  occ. eigenvalues --   -6.13764  -6.13764  -6.13763  -6.13763  -1.15422
 Alpha  occ. eigenvalues --   -1.15420  -1.15283  -1.15283  -1.10237  -1.10236
 Alpha  occ. eigenvalues --   -1.08616  -1.08616  -1.04864  -1.04863  -1.04795
 Alpha  occ. eigenvalues --   -1.04795  -0.97649  -0.97553  -0.96185  -0.93537
 Alpha  occ. eigenvalues --   -0.90444  -0.89424  -0.89352  -0.89337  -0.89146
 Alpha  occ. eigenvalues --   -0.88500  -0.87973  -0.83519  -0.82753  -0.81782
 Alpha  occ. eigenvalues --   -0.81154  -0.80187  -0.79979  -0.79145  -0.78834
 Alpha  occ. eigenvalues --   -0.78108  -0.77577  -0.77567  -0.77524  -0.77508
 Alpha  occ. eigenvalues --   -0.75323  -0.74562  -0.73625  -0.71446  -0.70952
 Alpha  occ. eigenvalues --   -0.70459  -0.70124  -0.69449  -0.68118  -0.67485
 Alpha  occ. eigenvalues --   -0.66447  -0.65847  -0.65722  -0.63668  -0.63653
 Alpha  occ. eigenvalues --   -0.63516  -0.63248  -0.63237  -0.62259  -0.61911
 Alpha  occ. eigenvalues --   -0.61536  -0.60559  -0.59738  -0.58390  -0.58185
 Alpha  occ. eigenvalues --   -0.57104  -0.56501  -0.56495  -0.56191  -0.55588
 Alpha  occ. eigenvalues --   -0.55104  -0.54886  -0.52780  -0.52753  -0.52618
 Alpha  occ. eigenvalues --   -0.51794  -0.51386  -0.51335  -0.51155  -0.50944
 Alpha  occ. eigenvalues --   -0.50536  -0.50269  -0.50259  -0.49905  -0.49577
 Alpha  occ. eigenvalues --   -0.49503  -0.49358  -0.48767  -0.48689  -0.48670
 Alpha  occ. eigenvalues --   -0.48413  -0.48297  -0.48257  -0.48108  -0.47914
 Alpha  occ. eigenvalues --   -0.47641  -0.47178  -0.46625  -0.46572  -0.46531
 Alpha  occ. eigenvalues --   -0.46414  -0.46304  -0.45968  -0.45873  -0.45769
 Alpha  occ. eigenvalues --   -0.45706  -0.45295  -0.44782  -0.44664  -0.44621
 Alpha  occ. eigenvalues --   -0.44603  -0.44088  -0.43907  -0.43712  -0.43126
 Alpha  occ. eigenvalues --   -0.42540  -0.42320  -0.41931  -0.41161  -0.40808
 Alpha  occ. eigenvalues --   -0.40795  -0.40557  -0.40347  -0.40308  -0.39934
 Alpha  occ. eigenvalues --   -0.39859  -0.39663  -0.39605  -0.39404  -0.39171
 Alpha  occ. eigenvalues --   -0.38955  -0.38306  -0.37312  -0.37168  -0.37034
 Alpha  occ. eigenvalues --   -0.37021  -0.36744  -0.36641  -0.36599  -0.36542
 Alpha  occ. eigenvalues --   -0.36413  -0.36399  -0.36373  -0.35962  -0.35521
 Alpha  occ. eigenvalues --   -0.35443  -0.34401  -0.34188  -0.34133  -0.33158
 Alpha  occ. eigenvalues --   -0.32905  -0.32804  -0.32121  -0.31691  -0.31615
 Alpha  occ. eigenvalues --   -0.31010  -0.30652  -0.29893  -0.29838  -0.29744
 Alpha  occ. eigenvalues --   -0.29711  -0.29394  -0.29214  -0.28912  -0.28820
 Alpha  occ. eigenvalues --   -0.28643  -0.28624  -0.27641  -0.27638  -0.27621
 Alpha  occ. eigenvalues --   -0.27596  -0.25196
 Alpha virt. eigenvalues --   -0.13930  -0.08547  -0.07408  -0.06426  -0.05896
 Alpha virt. eigenvalues --   -0.04322  -0.04100  -0.03643  -0.03352  -0.03213
 Alpha virt. eigenvalues --   -0.01975  -0.01851  -0.01681  -0.01668  -0.01651

 Mulliken charges:
               1
     1  C   -0.126218
     2  C    0.137461
     3  C    0.030356
     4  C   -0.149091
     5  C    0.053123
     6  C   -0.265675
     7  C    0.135868
     8  C    0.061004
     9  H    0.208641
    10  C   -0.263909
    11  C   -0.126587
    12  H    0.209506
    13  C    0.135800
    14  C    0.030360
    15  C   -0.126631
    16  C    0.137561
    17  C   -0.149087
    18  C   -0.263803
    19  C   -0.126201
    20  C    0.053131
    21  C    0.060979
    22  H    0.209500
    23  C   -0.265719
    24  H    0.208620
    25  C    0.521186
    26  O   -0.459148
    27  C    0.515916
    28  O   -0.466695
    29  N   -0.246707
    30  C    0.521200
    31  O   -0.459149
    32  C    0.515912
    33  O   -0.466697
    34  N   -0.246707
    35  C   -0.204315
    36  H    0.132902
    37  H    0.139466
    38  H    0.133347
    39  C   -0.204316
    40  H    0.132901
    41  H    0.139466
    42  H    0.133348
    43  S    0.867560
    44  S    0.867472
    45  S    0.867567
    46  S    0.867485
    47  O   -0.473767
    48  O   -0.472148
    49  O   -0.472158
    50  O   -0.473723
    51  O   -0.473716
    52  O   -0.472158
    53  O   -0.473764
    54  O   -0.472151
    55  C    0.088830
    56  C   -0.225648
    57  C   -0.126465
    58  C   -0.164611
    59  H    0.164681
    60  C   -0.161206
    61  H    0.203602
    62  C   -0.092072
    63  H    0.142903
    64  H    0.129975
    65  H    0.133170
    66  C    0.088191
    67  C   -0.225775
    68  C   -0.125939
    69  C   -0.164706
    70  H    0.164693
    71  C   -0.161139
    72  H    0.203767
    73  C   -0.091977
    74  H    0.142908
    75  H    0.129956
    76  H    0.133179
    77  C    0.088920
    78  C   -0.225664
    79  C   -0.126546
    80  C   -0.164613
    81  H    0.164695
    82  C   -0.161213
    83  H    0.203625
    84  C   -0.092127
    85  H    0.142917
    86  H    0.129973
    87  H    0.133183
    88  C    0.088228
    89  C   -0.225772
    90  C   -0.125922
    91  C   -0.164675
    92  H    0.164693
    93  C   -0.161194
    94  H    0.203775
    95  C   -0.092061
    96  H    0.142917
    97  H    0.129953
    98  H    0.133195
 Sum of Mulliken charges =  -0.00000

 Dipole moment (field-independent basis, Debye):
    X=              0.0009    Y=             -0.0005    Z=              0.0063  Tot=              0.0064
 Quadrupole moment (field-independent basis, Debye-Ang):
   XX=           -278.4076   YY=           -410.1504   ZZ=           -464.8959
   XY=              0.3045   XZ=              0.0016   YZ=             -0.0080

 Normal termination of Gaussian 09 at Sun Jul  3 16:16:28 2022.
