 Gaussian 09, Revision E.01,
 Gaussian 09:  ES64L-G09RevE.01 30-Nov-2015

 ----------------------------------------------------------------------
 #p m062x/def2TZVP int=ultrafine scrf=(SMD,solvent=dichloromethane) td=
 (NStates=30)
 ----------------------------------------------------------------------

 -----
 Title
 -----
 Symbolic Z-matrix:
 Charge =  0 Multiplicity = 1

                         Standard orientation:
 ---------------------------------------------------------------------
 Center     Atomic      Atomic             Coordinates (Angstroms)
 Number     Number       Type             X           Y           Z
 ---------------------------------------------------------------------
      1          6           0        2.238896   -1.419177    0.849782
      2          6           0        1.225508   -0.704840    0.225539
      3          6           0        0.001075   -1.403217   -0.000338
      4          6           0        0.002351   -2.811217   -0.001230
      5          6           0        1.106333   -3.511061    0.513211
      6          6           0        2.157000   -2.811131    1.034819
      7          6           0       -1.224370   -0.706585   -0.225189
      8          6           0       -1.099976   -3.513971   -0.516040
      9          1           0        2.943909   -3.341428    1.556556
     10          6           0       -2.151660   -2.814093   -1.036217
     11          6           0       -2.236344   -1.422538   -0.849766
     12          1           0       -2.937831   -3.344967   -1.558344
     13          6           0        1.224369    0.706623   -0.225264
     14          6           0       -0.001068    1.403255   -0.000340
     15          6           0        2.236309    1.422613   -0.849871
     16          6           0       -1.225489    0.704876    0.225591
     17          6           0       -0.002350    2.811259   -0.001180
     18          6           0        2.151638    2.814179   -1.036203
     19          6           0       -2.238865    1.419193    0.849867
     20          6           0       -1.106337    3.511088    0.513286
     21          6           0        1.099970    3.514034   -0.515964
     22          1           0        2.937799    3.345083   -1.558314
     23          6           0       -2.156995    2.811148    1.034895
     24          1           0       -2.943900    3.341427    1.556653
     25          6           0        1.098869   -4.992908    0.551574
     26          8           0        2.009148   -5.629249    1.032378
     27          6           0       -1.097757   -4.998093   -0.560587
     28          8           0       -2.015592   -5.618091   -1.046793
     29          7           0        0.003198   -5.638418   -0.004048
     30          6           0       -1.098898    4.992935    0.551657
     31          8           0       -2.009200    5.629258    1.032438
     32          6           0        1.097784    4.998160   -0.560390
     33          8           0        2.015511    5.618172   -1.046782
     34          7           0       -0.003221    5.638463   -0.003930
     35          6           0        0.041475   -7.099339    0.014416
     36          1           0        0.919082   -7.446755   -0.527545
     37          1           0       -0.860404   -7.470618   -0.457164
     38          1           0        0.099138   -7.448969    1.043525
     39          6           0       -0.041554    7.099384    0.014482
     40          1           0       -0.919144    7.446751   -0.527538
     41          1           0        0.860339    7.470680   -0.457061
     42          1           0       -0.099284    7.449045    1.043577
     43         16           0        3.571493    0.663984   -1.760806
     44         16           0        3.572399   -0.658444    1.761377
     45         16           0       -3.571476   -0.663773   -1.760651
     46         16           0       -3.572268    0.658418    1.761565
     47          8           0       -3.497544    0.765232   -1.606823
     48          8           0       -3.444542   -1.197613   -3.093471
     49          8           0       -3.445778    1.193276    3.094022
     50          8           0       -3.495934   -0.770529    1.608438
     51          8           0        3.496183    0.770508    1.608242
     52          8           0        3.445974   -1.193256    3.093860
     53          8           0        3.497580   -0.765059   -1.607309
     54          8           0        3.444698    1.198156   -3.093506
     55          6           0       -5.126096    1.233318    1.126933
     56          6           0       -6.235370    0.618361    1.701555
     57          6           0       -5.260624    2.262500    0.208517
     58          6           0       -7.501904    1.054781    1.350365
     59          1           0       -6.109626   -0.188096    2.413932
     60          6           0       -6.538036    2.688824   -0.133630
     61          1           0       -4.399511    2.718319   -0.257353
     62          6           0       -7.652947    2.092063    0.436909
     63          1           0       -8.370731    0.580971    1.788608
     64          1           0       -6.655102    3.489957   -0.851682
     65          1           0       -8.644639    2.430833    0.165071
     66          6           0       -5.124169   -1.241580   -1.125795
     67          6           0       -6.234650   -0.628747   -1.700366
     68          6           0       -5.256736   -2.270799   -0.207116
     69          6           0       -7.500351   -1.067384   -1.348940
     70          1           0       -6.110469    0.177765   -2.412957
     71          6           0       -6.533336   -2.699376    0.135253
     72          1           0       -4.394768   -2.724949    0.258792
     73          6           0       -7.649400   -2.104759   -0.435268
     74          1           0       -8.370088   -0.595223   -1.787161
     75          1           0       -6.648868   -3.500577    0.853479
     76          1           0       -8.640442   -2.445258   -0.163218
     77          6           0        5.126144   -1.233498    1.126659
     78          6           0        6.235514   -0.618951    1.701536
     79          6           0        5.260518   -2.262442    0.207950
     80          6           0        7.501978   -1.055577    1.350348
     81          1           0        6.109900    0.187315    2.414155
     82          6           0        6.537862   -2.688976   -0.134190
     83          1           0        4.399345   -2.717935   -0.258122
     84          6           0        7.652861   -2.092650    0.436629
     85          1           0        8.370876   -0.582092    1.788803
     86          1           0        6.654807   -3.489948   -0.852442
     87          1           0        8.644497   -2.431590    0.164801
     88          6           0        5.124106    1.241651   -1.125655
     89          6           0        6.234650    0.628691   -1.699961
     90          6           0        5.256553    2.270971   -0.207079
     91          6           0        7.500310    1.067334   -1.348386
     92          1           0        6.110547   -0.177905   -2.412469
     93          6           0        6.533111    2.699528    0.135469
     94          1           0        4.394517    2.725234    0.258600
     95          6           0        7.649246    2.104807   -0.434806
     96          1           0        8.370103    0.595100   -1.786419
     97          1           0        6.648551    3.500803    0.853625
     98          1           0        8.640256    2.445303   -0.162635
 ---------------------------------------------------------------------

 SCF Done:  E(RM062X) =  -4528.35952676     A.U. after   19 cycles

 Excitation energies and oscillator strengths:

 Excited State   1:      Singlet-A      2.7181 eV  456.14 nm  f=0.5521  <S**2>=0.000
     252 -> 253        0.70120
 This state for optimization and/or second-order correction.
 Total Energy, E(TD-HF/TD-KS) =  -4528.25963690
 Copying the excited state density for this state as the 1-particle RhoCI density.

 Excited State   2:      Singlet-A      3.5002 eV  354.22 nm  f=0.0088  <S**2>=0.000
     240 -> 253       -0.18070
     241 -> 254        0.10813
     243 -> 253        0.45452
     245 -> 253       -0.43591
     249 -> 253        0.13706
     252 -> 255        0.13040

 Excited State   3:      Singlet-A      3.7656 eV  329.26 nm  f=0.2165  <S**2>=0.000
     239 -> 253        0.11535
     241 -> 253        0.56200
     243 -> 254        0.11377
     247 -> 253        0.18588
     250 -> 253       -0.17393
     252 -> 256        0.23337

 Excited State   4:      Singlet-A      3.9394 eV  314.73 nm  f=0.0105  <S**2>=0.000
     238 -> 253       -0.19777
     240 -> 253        0.56327
     242 -> 253        0.22021
     243 -> 253        0.15274
     252 -> 257       -0.14673

 Excited State   5:      Singlet-A      3.9615 eV  312.97 nm  f=0.0011  <S**2>=0.000
     240 -> 253       -0.22706
     242 -> 253        0.52574
     251 -> 253        0.35017
     252 -> 254        0.14901

 Excited State   6:      Singlet-A      4.0846 eV  303.54 nm  f=0.0037  <S**2>=0.000
     241 -> 253        0.15237
     250 -> 253        0.67523

 Excited State   7:      Singlet-A      4.0973 eV  302.60 nm  f=0.0000  <S**2>=0.000
     242 -> 253       -0.30015
     246 -> 253        0.12984
     251 -> 253        0.58597
     252 -> 254       -0.18765

 Excited State   8:      Singlet-A      4.1731 eV  297.10 nm  f=0.0001  <S**2>=0.000
     235 -> 254        0.10538
     236 -> 253        0.53727
     236 -> 260        0.11580
     236 -> 262        0.14175
     237 -> 254       -0.28951
     237 -> 268        0.11451

 Excited State   9:      Singlet-A      4.1770 eV  296.83 nm  f=0.0000  <S**2>=0.000
     235 -> 253       -0.14727
     236 -> 254       -0.30598
     236 -> 268        0.12222
     237 -> 253        0.51951
     237 -> 260        0.10912
     237 -> 262        0.13356

 Excited State  10:      Singlet-A      4.2154 eV  294.12 nm  f=0.0001  <S**2>=0.000
     248 -> 253        0.69809

 Excited State  11:      Singlet-A      4.2164 eV  294.06 nm  f=0.0007  <S**2>=0.000
     245 -> 253        0.13667
     249 -> 253        0.67857

 Excited State  12:      Singlet-A      4.2570 eV  291.25 nm  f=0.0000  <S**2>=0.000
     233 -> 253        0.13151
     242 -> 253       -0.20833
     252 -> 254        0.62050

 Excited State  13:      Singlet-A      4.3863 eV  282.67 nm  f=0.0186  <S**2>=0.000
     241 -> 253       -0.17981
     247 -> 253        0.66692

 Excited State  14:      Singlet-A      4.3877 eV  282.57 nm  f=0.0001  <S**2>=0.000
     242 -> 253        0.15716
     246 -> 253        0.67238

 Excited State  15:      Singlet-A      4.3982 eV  281.90 nm  f=0.0079  <S**2>=0.000
     243 -> 253        0.36113
     245 -> 253        0.49174
     252 -> 255        0.31280

 Excited State  16:      Singlet-A      4.4076 eV  281.29 nm  f=0.0085  <S**2>=0.000
     244 -> 253        0.69032

 Excited State  17:      Singlet-A      4.4439 eV  279.00 nm  f=0.0365  <S**2>=0.000
     238 -> 253       -0.12006
     243 -> 253       -0.30258
     245 -> 253       -0.15490
     252 -> 255        0.57886

 Excited State  18:      Singlet-A      4.4624 eV  277.84 nm  f=0.0165  <S**2>=0.000
     230 -> 253       -0.21819
     231 -> 254       -0.20314
     233 -> 254       -0.18188
     234 -> 253        0.51576
     236 -> 255        0.10990
     236 -> 257        0.11036
     237 -> 267       -0.12558

 Excited State  19:      Singlet-A      4.5197 eV  274.32 nm  f=0.0102  <S**2>=0.000
     238 -> 254       -0.12427
     239 -> 253        0.52689
     240 -> 254       -0.16532
     241 -> 253       -0.23151
     252 -> 256        0.28461

 Excited State  20:      Singlet-A      4.5308 eV  273.65 nm  f=0.0000  <S**2>=0.000
     230 -> 254        0.15130
     231 -> 253        0.33343
     233 -> 253        0.39382
     234 -> 254       -0.22371
     236 -> 267       -0.13995
     237 -> 255        0.11240
     237 -> 257        0.11211
     252 -> 254       -0.17297

 Excited State  21:      Singlet-A      4.6414 eV  267.13 nm  f=0.0070  <S**2>=0.000
     238 -> 253        0.40396
     239 -> 254       -0.14020
     240 -> 253        0.23592
     242 -> 256       -0.12311
     252 -> 255        0.10969
     252 -> 257        0.45994

 Excited State  22:      Singlet-A      4.6951 eV  264.07 nm  f=0.0023  <S**2>=0.000
     235 -> 253        0.61279
     237 -> 253        0.21377
     252 -> 256        0.11526

 Excited State  23:      Singlet-A      4.7611 eV  260.41 nm  f=0.0568  <S**2>=0.000
     232 -> 253        0.12244
     238 -> 253        0.47350
     252 -> 257       -0.44810

 Excited State  24:      Singlet-A      4.8351 eV  256.42 nm  f=1.7246  <S**2>=0.000
     239 -> 253       -0.37664
     241 -> 253       -0.20098
     252 -> 256        0.52298

 Excited State  25:      Singlet-A      5.0733 eV  244.38 nm  f=0.0497  <S**2>=0.000
     223 -> 253        0.10768
     232 -> 253        0.63185
     235 -> 254        0.10631
     236 -> 253       -0.12171

 Excited State  26:      Singlet-A      5.1132 eV  242.48 nm  f=0.0367  <S**2>=0.000
     220 -> 253       -0.14816
     228 -> 253        0.22313
     230 -> 253        0.39424
     231 -> 254        0.12600
     232 -> 255       -0.10889
     234 -> 253        0.36181
     242 -> 254        0.12598

 Excited State  27:      Singlet-A      5.1246 eV  241.94 nm  f=0.0000  <S**2>=0.000
     231 -> 253       -0.41485
     233 -> 253        0.48722
     235 -> 255        0.15117

 Excited State  28:      Singlet-A      5.3471 eV  231.87 nm  f=0.0722  <S**2>=0.000
     240 -> 255        0.23007
     240 -> 257       -0.10106
     242 -> 254        0.25230
     243 -> 255       -0.29000
     245 -> 255        0.30748
     252 -> 260        0.17823
     252 -> 262        0.18511

 Excited State  29:      Singlet-A      5.3735 eV  230.73 nm  f=0.0010  <S**2>=0.000
     243 -> 255        0.15773
     244 -> 266        0.13132
     245 -> 255       -0.10207
     245 -> 265        0.11248
     246 -> 258       -0.16156
     246 -> 264        0.12758
     247 -> 259        0.17231
     247 -> 263       -0.11086
     248 -> 260       -0.18592
     248 -> 262        0.14634
     249 -> 261       -0.23420
     250 -> 256       -0.11471
     250 -> 259        0.23134
     250 -> 263        0.15001
     251 -> 258        0.25618
     251 -> 264        0.14706

 Excited State  30:      Singlet-A      5.4096 eV  229.19 nm  f=0.1857  <S**2>=0.000
     228 -> 253        0.32480
     230 -> 253       -0.29341
     242 -> 254        0.37453
     243 -> 255        0.13310
     245 -> 255       -0.13277
     252 -> 260        0.10136
     252 -> 262        0.11134

 The electronic state is 1-A.
 Alpha  occ. eigenvalues --  -90.10426 -90.10426 -90.10425 -90.10425 -19.63361
 Alpha  occ. eigenvalues --  -19.63361 -19.63359 -19.63359 -19.62918 -19.62918
 Alpha  occ. eigenvalues --  -19.62916 -19.62916 -19.62763 -19.62763 -19.62754
 Alpha  occ. eigenvalues --  -19.62754 -14.81424 -14.81423 -10.67930 -10.67930
 Alpha  occ. eigenvalues --  -10.67713 -10.67713 -10.61916 -10.61915 -10.61870
 Alpha  occ. eigenvalues --  -10.61868 -10.60973 -10.60973 -10.60968 -10.60968
 Alpha  occ. eigenvalues --  -10.60066 -10.60065 -10.59688 -10.59688 -10.58849
 Alpha  occ. eigenvalues --  -10.58849 -10.58848 -10.58847 -10.58751 -10.58751
 Alpha  occ. eigenvalues --  -10.58735 -10.58735 -10.58356 -10.58356 -10.58356
 Alpha  occ. eigenvalues --  -10.58355 -10.56615 -10.56615 -10.56248 -10.56248
 Alpha  occ. eigenvalues --  -10.56247 -10.56247 -10.56245 -10.56245 -10.56244
 Alpha  occ. eigenvalues --  -10.56244 -10.55337 -10.55337 -10.55336 -10.55336
 Alpha  occ. eigenvalues --  -10.55236 -10.55236 -10.55236 -10.55235 -10.55181
 Alpha  occ. eigenvalues --  -10.55181 -10.55180 -10.55180  -8.43557  -8.43557
 Alpha  occ. eigenvalues --   -8.43556  -8.43556  -6.35697  -6.35697  -6.35696
 Alpha  occ. eigenvalues --   -6.35696  -6.35627  -6.35626  -6.35625  -6.35625
 Alpha  occ. eigenvalues --   -6.35603  -6.35603  -6.35602  -6.35602  -1.25235
 Alpha  occ. eigenvalues --   -1.25233  -1.25013  -1.25013  -1.21028  -1.21028
 Alpha  occ. eigenvalues --   -1.19193  -1.19193  -1.14143  -1.14142  -1.14025
 Alpha  occ. eigenvalues --   -1.14025  -1.07207  -1.07104  -1.05682  -1.02980
 Alpha  occ. eigenvalues --   -0.99655  -0.98650  -0.98569  -0.98492  -0.98265
 Alpha  occ. eigenvalues --   -0.97593  -0.96916  -0.92162  -0.91301  -0.90429
 Alpha  occ. eigenvalues --   -0.89706  -0.88597  -0.88412  -0.87625  -0.87287
 Alpha  occ. eigenvalues --   -0.86519  -0.86131  -0.86066  -0.86062  -0.85961
 Alpha  occ. eigenvalues --   -0.83651  -0.82409  -0.82068  -0.79177  -0.78512
 Alpha  occ. eigenvalues --   -0.78124  -0.77922  -0.77393  -0.75609  -0.74926
 Alpha  occ. eigenvalues --   -0.73923  -0.73182  -0.73004  -0.70957  -0.70890
 Alpha  occ. eigenvalues --   -0.70783  -0.70482  -0.70405  -0.69283  -0.68957
 Alpha  occ. eigenvalues --   -0.68465  -0.67463  -0.66446  -0.65108  -0.64906
 Alpha  occ. eigenvalues --   -0.63636  -0.63099  -0.62955  -0.62796  -0.62216
 Alpha  occ. eigenvalues --   -0.61805  -0.61329  -0.59301  -0.59298  -0.59127
 Alpha  occ. eigenvalues --   -0.58157  -0.58019  -0.57893  -0.57563  -0.57296
 Alpha  occ. eigenvalues --   -0.57260  -0.56837  -0.56830  -0.56696  -0.56216
 Alpha  occ. eigenvalues --   -0.55708  -0.55491  -0.55235  -0.55095  -0.55032
 Alpha  occ. eigenvalues --   -0.54709  -0.54321  -0.54236  -0.53729  -0.53625
 Alpha  occ. eigenvalues --   -0.53601  -0.53069  -0.52977  -0.52695  -0.52485
 Alpha  occ. eigenvalues --   -0.52437  -0.52409  -0.51863  -0.51830  -0.51714
 Alpha  occ. eigenvalues --   -0.51276  -0.51152  -0.50572  -0.50354  -0.50346
 Alpha  occ. eigenvalues --   -0.50183  -0.49965  -0.49733  -0.49639  -0.49046
 Alpha  occ. eigenvalues --   -0.48755  -0.48544  -0.47648  -0.46721  -0.46548
 Alpha  occ. eigenvalues --   -0.46415  -0.45838  -0.45795  -0.45783  -0.45449
 Alpha  occ. eigenvalues --   -0.45331  -0.45109  -0.45033  -0.44839  -0.44496
 Alpha  occ. eigenvalues --   -0.44460  -0.43986  -0.42855  -0.42762  -0.42445
 Alpha  occ. eigenvalues --   -0.42217  -0.42210  -0.42130  -0.41997  -0.41767
 Alpha  occ. eigenvalues --   -0.41550  -0.41496  -0.41488  -0.41363  -0.41183
 Alpha  occ. eigenvalues --   -0.40694  -0.39976  -0.39691  -0.39656  -0.38406
 Alpha  occ. eigenvalues --   -0.38290  -0.37677  -0.37292  -0.37126  -0.36878
 Alpha  occ. eigenvalues --   -0.36220  -0.36204  -0.35512  -0.35054  -0.34121
 Alpha  occ. eigenvalues --   -0.33901  -0.33658  -0.33429  -0.33224  -0.33071
 Alpha  occ. eigenvalues --   -0.32653  -0.32609  -0.31965  -0.31932  -0.31645
 Alpha  occ. eigenvalues --   -0.31637  -0.28679
 Alpha virt. eigenvalues --   -0.12107  -0.06103  -0.05044  -0.04001  -0.03378
 Alpha virt. eigenvalues --   -0.01629  -0.01399  -0.00897  -0.00625  -0.00193
 Alpha virt. eigenvalues --    0.00673   0.00695   0.01297   0.01330   0.01380

 Mulliken charges:
               1
     1  C   -0.148446
     2  C    0.144865
     3  C    0.054116
     4  C    0.147770
     5  C    0.043890
     6  C   -0.283623
     7  C    0.144278
     8  C    0.037482
     9  H    0.252758
    10  C   -0.279722
    11  C   -0.147961
    12  H    0.252875
    13  C    0.144323
    14  C    0.054092
    15  C   -0.147978
    16  C    0.144856
    17  C    0.147775
    18  C   -0.279747
    19  C   -0.148406
    20  C    0.043891
    21  C    0.037480
    22  H    0.252894
    23  C   -0.283653
    24  H    0.252782
    25  C    0.249214
    26  O   -0.369396
    27  C    0.243528
    28  O   -0.375036
    29  N   -0.134895
    30  C    0.249204
    31  O   -0.369396
    32  C    0.243529
    33  O   -0.375034
    34  N   -0.134894
    35  C   -0.360719
    36  H    0.179914
    37  H    0.184902
    38  H    0.180510
    39  C   -0.360718
    40  H    0.179914
    41  H    0.184902
    42  H    0.180509
    43  S    0.870094
    44  S    0.870052
    45  S    0.870093
    46  S    0.870049
    47  O   -0.509216
    48  O   -0.498494
    49  O   -0.498503
    50  O   -0.509208
    51  O   -0.509191
    52  O   -0.498510
    53  O   -0.509238
    54  O   -0.498491
    55  C    0.067661
    56  C   -0.298860
    57  C   -0.152089
    58  C   -0.145510
    59  H    0.205290
    60  C   -0.162611
    61  H    0.225842
    62  C   -0.169894
    63  H    0.191042
    64  H    0.184642
    65  H    0.183916
    66  C    0.067453
    67  C   -0.298964
    68  C   -0.151842
    69  C   -0.145552
    70  H    0.205256
    71  C   -0.162497
    72  H    0.225969
    73  C   -0.169861
    74  H    0.191030
    75  H    0.184646
    76  H    0.183914
    77  C    0.067744
    78  C   -0.298959
    79  C   -0.152091
    80  C   -0.145493
    81  H    0.205279
    82  C   -0.162612
    83  H    0.225831
    84  C   -0.169883
    85  H    0.191036
    86  H    0.184644
    87  H    0.183916
    88  C    0.067331
    89  C   -0.298894
    90  C   -0.151783
    91  C   -0.145590
    92  H    0.205275
    93  C   -0.162528
    94  H    0.225981
    95  C   -0.169836
    96  H    0.191031
    97  H    0.184644
    98  H    0.183910
 Sum of Mulliken charges =  -0.00000

 Dipole moment (field-independent basis, Debye):
    X=             -0.0016    Y=             -0.0016    Z=              0.0259  Tot=              0.0260
 Quadrupole moment (field-independent basis, Debye-Ang):
   XX=           -273.8439   YY=           -403.0036   ZZ=           -470.9703
   XY=              0.0205   XZ=              0.0074   YZ=              0.0046

 Normal termination of Gaussian 09 at Sun Jul  3 23:59:21 2022.
