                         Program Version 5.0.2 -  RELEASE  -
|  1> %maxcore 20000
|  2> %pal
|  3>  nprocs= 4
|  4> end
|  5> ! RI-B2GP-PLYP   def2-TZVP def2/J def2-TZVP/C RIJCOSX CPCM TightSCF
|  6> %TDDFT
|  7>    NROOTS   30
|  8>    dcorr 4
|  9>    TDA      FALSE
| 10> END
| 11>
| 12> %CPCM
| 13>    SMD          TRUE
| 14>    SMDsolvent   "DICHLOROMETHANE"
| 15> END
| 16>
| 17>
| 18> * xyz 0 1
| 19> C                   2.25498900   -1.41242200    0.83088600
| 20> C                   1.22611500   -0.69583000    0.21135600
| 21> C                   0.00493300   -1.39792800   -0.00562900
| 22> C                   0.01042000   -2.81251500   -0.00659100
| 23> C                   1.12129500   -3.50904100    0.49256700
| 24> C                   2.17569300   -2.79665900    1.00688800
| 25> C                  -1.22133800   -0.70463000   -0.22082200
| 26> C                  -1.09477100   -3.51816200   -0.50590000
| 27> H                   2.96257300   -3.32666300    1.52829200
| 28> C                  -2.15492100   -2.81201700   -1.01771800
| 29> C                  -2.24538800   -1.42879600   -0.83973100
| 30> H                  -2.93782600   -3.34711400   -1.53962200
| 31> C                   1.22134000    0.70485900   -0.22081400
| 32> C                  -0.00493400    1.39815700   -0.00563500
| 33> C                   2.24539800    1.42902200   -0.83971600
| 34> C                  -1.22611800    0.69606200    0.21134400
| 35> C                  -0.01042000    2.81274600   -0.00660000
| 36> C                   2.15494600    2.81224700   -1.01768100
| 37> C                  -2.25499800    1.41265500    0.83086800
| 38> C                  -1.12130800    3.50927300    0.49253300
| 39> C                   1.09478900    3.51839200   -0.50587800
| 40> H                   2.93785100    3.34734000   -1.53958700
| 41> C                  -2.17571000    2.79689600    1.00684900
| 42> H                  -2.96258000    3.32690100    1.52826500
| 43> C                   1.12759000   -4.97842900    0.53013600
| 44> O                   2.04941900   -5.62115000    0.99625400
| 45> C                  -1.09771900   -4.98966800   -0.54948300
| 46> O                  -2.02439300   -5.62127600   -1.01959000
| 47> N                   0.02016100   -5.62649100   -0.01042800
| 48> C                  -1.12758100    4.97866000    0.53014300
| 49> O                  -2.04937800    5.62138200    0.99632400
| 50> C                   1.09772300    4.98989500   -0.54949400
| 51> O                   2.02439400    5.62150300   -1.01960700
| 52> N                  -0.02016900    5.62671900   -0.01046200
| 53> C                   0.05875300   -7.08120700    0.00462200
| 54> H                   0.93046300   -7.43603900   -0.54064000
| 55> H                  -0.84583600   -7.45113700   -0.46211400
| 56> H                   0.12270800   -7.44276900    1.02872300
| 57> C                  -0.05876300    7.08143700    0.00456800
| 58> H                  -0.93068900    7.43623500   -0.54036600
| 59> H                   0.84564600    7.45136100   -0.46252200
| 60> H                  -0.12232200    7.44304300    1.02868000
| 61> S                   3.57178500    0.67502400   -1.76927100
| 62> S                   3.57170700   -0.64788600    1.76482300
| 63> S                  -3.57184100   -0.67481800   -1.76919200
| 64> S                  -3.57163700    0.64809900    1.76491400
| 65> O                  -3.50346600    0.75725100   -1.63144600
| 66> O                  -3.43718700   -1.23408600   -3.09309800
| 67> O                  -3.42871100    1.19738700    3.09213100
| 68> O                  -3.50108900   -0.78278700    1.61644500
| 69> O                   3.50137700    0.78298600    1.61611400
| 70> O                   3.42871900   -1.19691300    3.09214100
| 71> O                   3.50319700   -0.75705700   -1.63176500
| 72> O                   3.43720800    1.23454900   -3.09307700
| 73> C                  -5.13413300    1.22191400    1.14923300
| 74> C                  -6.23966500    0.60898000    1.73510100
| 75> C                  -5.28958100    2.25418700    0.23580100
| 76> C                  -7.51011300    1.04479900    1.40353600
| 77> H                  -6.10364100   -0.19802900    2.44463300
| 78> C                  -6.56999900    2.67894300   -0.08861500
| 79> H                  -4.43467800    2.71571800   -0.23605800
| 80> C                  -7.67625300    2.08132800    0.49458800
| 81> H                  -8.37165500    0.56950400    1.85453100
| 82> H                  -6.69689900    3.48200900   -0.80284000
| 83> H                  -8.67184300    2.41976500    0.23745800
| 84> C                  -5.12970600   -1.24439500   -1.13843000
| 85> C                  -6.23862800   -0.61295700   -1.69725600
| 86> C                  -5.27988200   -2.29194200   -0.24166200
| 87> C                  -7.50748600   -1.04688700   -1.35697200
| 88> H                  -6.10615800    0.20757700   -2.39169900
| 89> C                  -6.55852200   -2.71390400    0.09269500
| 90> H                  -4.42193700   -2.76687300    0.21117100
| 91> C                  -7.66845100   -2.09884800   -0.46506800
| 92> H                  -8.37178400   -0.55767200   -1.78735000
| 93> H                  -6.68129400   -3.52827000    0.79471800
| 94> H                  -8.66279100   -2.43531500   -0.20060000
| 95> C                   5.13408300   -1.22211700    1.14920400
| 96> C                   6.23975600   -0.60974300    1.73539600
| 97> C                   5.28929300   -2.25413500    0.23544200
| 98> C                   7.51009700   -1.04586100    1.40381800
| 99> H                   6.10392700    0.19706700    2.44519500
|100> C                   6.56960900   -2.67921600   -0.08895800
|101> H                   4.43429000   -2.71520700   -0.23668300
|102> C                   7.67599600   -2.08215300    0.49455500
|103> H                   8.37174600   -0.57098800    1.85505300
|104> H                   6.69632200   -3.48209600   -0.80342600
|105> H                   8.67150300   -2.42083700    0.23742600
|106> C                   5.12975200    1.24420000   -1.13842000
|107> C                   6.23854400    0.61224000   -1.69690600
|108> C                   5.28013400    2.29198500   -0.24196800
|109> C                   7.50749300    1.04589300   -1.35660000
|110> H                   6.10590000   -0.20848900   -2.39108400
|111> C                   6.55885700    2.71365200    0.09243200
|112> H                   4.42227100    2.76732600    0.21059300
|113> C                   7.66866600    2.09807900   -0.46500200
|114> H                   8.37169600    0.55628000   -1.78671600
|115> H                   6.68179200    3.52819500    0.79422100
|116> H                   8.66307700    2.43431900   -0.20050800
|117> *
|118>
|119>
|120>                          ****END OF INPUT****

CARTESIAN COORDINATES (ANGSTROEM)
---------------------------------
  C      2.254989   -1.412422    0.830886
  C      1.226115   -0.695830    0.211356
  C      0.004933   -1.397928   -0.005629
  C      0.010420   -2.812515   -0.006591
  C      1.121295   -3.509041    0.492567
  C      2.175693   -2.796659    1.006888
  C     -1.221338   -0.704630   -0.220822
  C     -1.094771   -3.518162   -0.505900
  H      2.962573   -3.326663    1.528292
  C     -2.154921   -2.812017   -1.017718
  C     -2.245388   -1.428796   -0.839731
  H     -2.937826   -3.347114   -1.539622
  C      1.221340    0.704859   -0.220814
  C     -0.004934    1.398157   -0.005635
  C      2.245398    1.429022   -0.839716
  C     -1.226118    0.696062    0.211344
  C     -0.010420    2.812746   -0.006600
  C      2.154946    2.812247   -1.017681
  C     -2.254998    1.412655    0.830868
  C     -1.121308    3.509273    0.492533
  C      1.094789    3.518392   -0.505878
  H      2.937851    3.347340   -1.539587
  C     -2.175710    2.796896    1.006849
  H     -2.962580    3.326901    1.528265
  C      1.127590   -4.978429    0.530136
  O      2.049419   -5.621150    0.996254
  C     -1.097719   -4.989668   -0.549483
  O     -2.024393   -5.621276   -1.019590
  N      0.020161   -5.626491   -0.010428
  C     -1.127581    4.978660    0.530143
  O     -2.049378    5.621382    0.996324
  C      1.097723    4.989895   -0.549494
  O      2.024394    5.621503   -1.019607
  N     -0.020169    5.626719   -0.010462
  C      0.058753   -7.081207    0.004622
  H      0.930463   -7.436039   -0.540640
  H     -0.845836   -7.451137   -0.462114
  H      0.122708   -7.442769    1.028723
  C     -0.058763    7.081437    0.004568
  H     -0.930689    7.436235   -0.540366
  H      0.845646    7.451361   -0.462522
  H     -0.122322    7.443043    1.028680
  S      3.571785    0.675024   -1.769271
  S      3.571707   -0.647886    1.764823
  S     -3.571841   -0.674818   -1.769192
  S     -3.571637    0.648099    1.764914
  O     -3.503466    0.757251   -1.631446
  O     -3.437187   -1.234086   -3.093098
  O     -3.428711    1.197387    3.092131
  O     -3.501089   -0.782787    1.616445
  O      3.501377    0.782986    1.616114
  O      3.428719   -1.196913    3.092141
  O      3.503197   -0.757057   -1.631765
  O      3.437208    1.234549   -3.093077
  C     -5.134133    1.221914    1.149233
  C     -6.239665    0.608980    1.735101
  C     -5.289581    2.254187    0.235801
  C     -7.510113    1.044799    1.403536
  H     -6.103641   -0.198029    2.444633
  C     -6.569999    2.678943   -0.088615
  H     -4.434678    2.715718   -0.236058
  C     -7.676253    2.081328    0.494588
  H     -8.371655    0.569504    1.854531
  H     -6.696899    3.482009   -0.802840
  H     -8.671843    2.419765    0.237458
  C     -5.129706   -1.244395   -1.138430
  C     -6.238628   -0.612957   -1.697256
  C     -5.279882   -2.291942   -0.241662
  C     -7.507486   -1.046887   -1.356972
  H     -6.106158    0.207577   -2.391699
  C     -6.558522   -2.713904    0.092695
  H     -4.421937   -2.766873    0.211171
  C     -7.668451   -2.098848   -0.465068
  H     -8.371784   -0.557672   -1.787350
  H     -6.681294   -3.528270    0.794718
  H     -8.662791   -2.435315   -0.200600
  C      5.134083   -1.222117    1.149204
  C      6.239756   -0.609743    1.735396
  C      5.289293   -2.254135    0.235442
  C      7.510097   -1.045861    1.403818
  H      6.103927    0.197067    2.445195
  C      6.569609   -2.679216   -0.088958
  H      4.434290   -2.715207   -0.236683
  C      7.675996   -2.082153    0.494555
  H      8.371746   -0.570988    1.855053
  H      6.696322   -3.482096   -0.803426
  H      8.671503   -2.420837    0.237426
  C      5.129752    1.244200   -1.138420
  C      6.238544    0.612240   -1.696906
  C      5.280134    2.291985   -0.241968
  C      7.507493    1.045893   -1.356600
  H      6.105900   -0.208489   -2.391084
  C      6.558857    2.713652    0.092432
  H      4.422271    2.767326    0.210593
  C      7.668666    2.098079   -0.465002
  H      8.371696    0.556280   -1.786716
  H      6.681792    3.528195    0.794221
  H      8.663077    2.434319   -0.200508

 Total Charge           Charge          ....    0
 Multiplicity           Mult            ....    1
 Number of Electrons    NEL             ....  504
 Basis Dimension        Dim             .... 2312

ORBITAL ENERGIES
----------------

  NO   OCC          E(Eh)            E(eV)
   0   2.0000     -90.832860     -2471.6878
   1   2.0000     -90.832859     -2471.6878
   2   2.0000     -90.832782     -2471.6857
   3   2.0000     -90.832780     -2471.6856
   4   2.0000     -19.943818      -542.6989
   5   2.0000     -19.943817      -542.6988
   6   2.0000     -19.943779      -542.6978
   7   2.0000     -19.943778      -542.6978
   8   2.0000     -19.939090      -542.5702
   9   2.0000     -19.939088      -542.5702
  10   2.0000     -19.939040      -542.5689
  11   2.0000     -19.939039      -542.5688
  12   2.0000     -19.935799      -542.4807
  13   2.0000     -19.935799      -542.4807
  14   2.0000     -19.935730      -542.4788
  15   2.0000     -19.935729      -542.4788
  16   2.0000     -15.089895      -410.6169
  17   2.0000     -15.089895      -410.6169
  18   2.0000     -10.922650      -297.2204
  19   2.0000     -10.922650      -297.2204
  20   2.0000     -10.920365      -297.1582
  21   2.0000     -10.920365      -297.1582
  22   2.0000     -10.860197      -295.5210
  23   2.0000     -10.860192      -295.5208
  24   2.0000     -10.859585      -295.5043
  25   2.0000     -10.859570      -295.5039
  26   2.0000     -10.847068      -295.1637
  27   2.0000     -10.847067      -295.1637
  28   2.0000     -10.847040      -295.1630
  29   2.0000     -10.847039      -295.1629
  30   2.0000     -10.837309      -294.8982
  31   2.0000     -10.837304      -294.8980
  32   2.0000     -10.836246      -294.8693
  33   2.0000     -10.836245      -294.8692
  34   2.0000     -10.827090      -294.6201
  35   2.0000     -10.827088      -294.6200
  36   2.0000     -10.826939      -294.6160
  37   2.0000     -10.826937      -294.6159
  38   2.0000     -10.821835      -294.4771
  39   2.0000     -10.821834      -294.4771
  40   2.0000     -10.821620      -294.4712
  41   2.0000     -10.821619      -294.4712
  42   2.0000     -10.818537      -294.3874
  43   2.0000     -10.818534      -294.3873
  44   2.0000     -10.818340      -294.3820
  45   2.0000     -10.818336      -294.3819
  46   2.0000     -10.799050      -293.8571
  47   2.0000     -10.799049      -293.8571
  48   2.0000     -10.798229      -293.8348
  49   2.0000     -10.798228      -293.8347
  50   2.0000     -10.798160      -293.8329
  51   2.0000     -10.798158      -293.8328
  52   2.0000     -10.798071      -293.8305
  53   2.0000     -10.798068      -293.8304
  54   2.0000     -10.797886      -293.8254
  55   2.0000     -10.797882      -293.8253
  56   2.0000     -10.789222      -293.5897
  57   2.0000     -10.789221      -293.5896
  58   2.0000     -10.789137      -293.5873
  59   2.0000     -10.789135      -293.5873
  60   2.0000     -10.786273      -293.5094
  61   2.0000     -10.786271      -293.5094
  62   2.0000     -10.786130      -293.5055
  63   2.0000     -10.786127      -293.5054
  64   2.0000     -10.785871      -293.4985
  65   2.0000     -10.785870      -293.4984
  66   2.0000     -10.785786      -293.4962
  67   2.0000     -10.785784      -293.4961
  68   2.0000      -8.701124      -236.7696
  69   2.0000      -8.701123      -236.7696
  70   2.0000      -8.701045      -236.7675
  71   2.0000      -8.701044      -236.7674
  72   2.0000      -6.508611      -177.1083
  73   2.0000      -6.508609      -177.1083
  74   2.0000      -6.508519      -177.1058
  75   2.0000      -6.508518      -177.1058
  76   2.0000      -6.507354      -177.0741
  77   2.0000      -6.507353      -177.0741
  78   2.0000      -6.507287      -177.0723
  79   2.0000      -6.507286      -177.0722
  80   2.0000      -6.506965      -177.0635
  81   2.0000      -6.506963      -177.0635
  82   2.0000      -6.506886      -177.0614
  83   2.0000      -6.506884      -177.0613
  84   2.0000      -1.326661       -36.1003
  85   2.0000      -1.326635       -36.0996
  86   2.0000      -1.324433       -36.0396
  87   2.0000      -1.324431       -36.0396
  88   2.0000      -1.280819       -34.8529
  89   2.0000      -1.280817       -34.8528
  90   2.0000      -1.260841       -34.3092
  91   2.0000      -1.260840       -34.3092
  92   2.0000      -1.213554       -33.0225
  93   2.0000      -1.213540       -33.0221
  94   2.0000      -1.212542       -32.9950
  95   2.0000      -1.212535       -32.9948
  96   2.0000      -1.140862       -31.0444
  97   2.0000      -1.138927       -30.9918
  98   2.0000      -1.127761       -30.6879
  99   2.0000      -1.097961       -29.8770
 100   2.0000      -1.064341       -28.9622
 101   2.0000      -1.053127       -28.6570
 102   2.0000      -1.052324       -28.6352
 103   2.0000      -1.051543       -28.6139
 104   2.0000      -1.049421       -28.5562
 105   2.0000      -1.041911       -28.3519
 106   2.0000      -1.035996       -28.1909
 107   2.0000      -0.983869       -26.7724
 108   2.0000      -0.975334       -26.5402
 109   2.0000      -0.967176       -26.3182
 110   2.0000      -0.957603       -26.0577
 111   2.0000      -0.945345       -25.7241
 112   2.0000      -0.943459       -25.6728
 113   2.0000      -0.935948       -25.4685
 114   2.0000      -0.932568       -25.3765
 115   2.0000      -0.924032       -25.1442
 116   2.0000      -0.920034       -25.0354
 117   2.0000      -0.919506       -25.0210
 118   2.0000      -0.919389       -25.0179
 119   2.0000      -0.918520       -24.9942
 120   2.0000      -0.887456       -24.1489
 121   2.0000      -0.881066       -23.9750
 122   2.0000      -0.870237       -23.6803
 123   2.0000      -0.842326       -22.9209
 124   2.0000      -0.833765       -22.6879
 125   2.0000      -0.830917       -22.6104
 126   2.0000      -0.827908       -22.5285
 127   2.0000      -0.822216       -22.3736
 128   2.0000      -0.804915       -21.9028
 129   2.0000      -0.796976       -21.6868
 130   2.0000      -0.784252       -21.3406
 131   2.0000      -0.776984       -21.1428
 132   2.0000      -0.776027       -21.1168
 133   2.0000      -0.754682       -20.5359
 134   2.0000      -0.754450       -20.5296
 135   2.0000      -0.752674       -20.4813
 136   2.0000      -0.750147       -20.4125
 137   2.0000      -0.749937       -20.4068
 138   2.0000      -0.734289       -19.9810
 139   2.0000      -0.731712       -19.9109
 140   2.0000      -0.727889       -19.8069
 141   2.0000      -0.717075       -19.5126
 142   2.0000      -0.704778       -19.1780
 143   2.0000      -0.687537       -18.7088
 144   2.0000      -0.687242       -18.7008
 145   2.0000      -0.673717       -18.3328
 146   2.0000      -0.669485       -18.2176
 147   2.0000      -0.665550       -18.1105
 148   2.0000      -0.663715       -18.0606
 149   2.0000      -0.656196       -17.8560
 150   2.0000      -0.651298       -17.7227
 151   2.0000      -0.647861       -17.6292
 152   2.0000      -0.625940       -17.0327
 153   2.0000      -0.625124       -17.0105
 154   2.0000      -0.624483       -16.9930
 155   2.0000      -0.614072       -16.7097
 156   2.0000      -0.607262       -16.5244
 157   2.0000      -0.607019       -16.5178
 158   2.0000      -0.604705       -16.4549
 159   2.0000      -0.600249       -16.3336
 160   2.0000      -0.600064       -16.3286
 161   2.0000      -0.599383       -16.3100
 162   2.0000      -0.599293       -16.3076
 163   2.0000      -0.597166       -16.2497
 164   2.0000      -0.592386       -16.1196
 165   2.0000      -0.589048       -16.0288
 166   2.0000      -0.586809       -15.9679
 167   2.0000      -0.580826       -15.8051
 168   2.0000      -0.580811       -15.8047
 169   2.0000      -0.576696       -15.6927
 170   2.0000      -0.576650       -15.6914
 171   2.0000      -0.575903       -15.6711
 172   2.0000      -0.572763       -15.5857
 173   2.0000      -0.570410       -15.5216
 174   2.0000      -0.570000       -15.5105
 175   2.0000      -0.569892       -15.5075
 176   2.0000      -0.563488       -15.3333
 177   2.0000      -0.563236       -15.3264
 178   2.0000      -0.559674       -15.2295
 179   2.0000      -0.555740       -15.1225
 180   2.0000      -0.555360       -15.1121
 181   2.0000      -0.554919       -15.1001
 182   2.0000      -0.549370       -14.9491
 183   2.0000      -0.547856       -14.9079
 184   2.0000      -0.546962       -14.8836
 185   2.0000      -0.544550       -14.8179
 186   2.0000      -0.534035       -14.5318
 187   2.0000      -0.533509       -14.5175
 188   2.0000      -0.533053       -14.5051
 189   2.0000      -0.532799       -14.4982
 190   2.0000      -0.532336       -14.4856
 191   2.0000      -0.525059       -14.2876
 192   2.0000      -0.519046       -14.1240
 193   2.0000      -0.508797       -13.8451
 194   2.0000      -0.505255       -13.7487
 195   2.0000      -0.503466       -13.7000
 196   2.0000      -0.498843       -13.5742
 197   2.0000      -0.495118       -13.4728
 198   2.0000      -0.491972       -13.3873
 199   2.0000      -0.488730       -13.2990
 200   2.0000      -0.486227       -13.2309
 201   2.0000      -0.485715       -13.2170
 202   2.0000      -0.484601       -13.1867
 203   2.0000      -0.481228       -13.0949
 204   2.0000      -0.479764       -13.0550
 205   2.0000      -0.478633       -13.0243
 206   2.0000      -0.478340       -13.0163
 207   2.0000      -0.477538       -12.9945
 208   2.0000      -0.464554       -12.6412
 209   2.0000      -0.463717       -12.6184
 210   2.0000      -0.459976       -12.5166
 211   2.0000      -0.459757       -12.5106
 212   2.0000      -0.449716       -12.2374
 213   2.0000      -0.448406       -12.2018
 214   2.0000      -0.448046       -12.1920
 215   2.0000      -0.447947       -12.1893
 216   2.0000      -0.444409       -12.0930
 217   2.0000      -0.443928       -12.0799
 218   2.0000      -0.443633       -12.0719
 219   2.0000      -0.443330       -12.0636
 220   2.0000      -0.441030       -12.0010
 221   2.0000      -0.438886       -11.9427
 222   2.0000      -0.438003       -11.9187
 223   2.0000      -0.434627       -11.8268
 224   2.0000      -0.429942       -11.6993
 225   2.0000      -0.421703       -11.4751
 226   2.0000      -0.420525       -11.4431
 227   2.0000      -0.411033       -11.1848
 228   2.0000      -0.410659       -11.1746
 229   2.0000      -0.407320       -11.0837
 230   2.0000      -0.406084       -11.0501
 231   2.0000      -0.399459       -10.8698
 232   2.0000      -0.396225       -10.7818
 233   2.0000      -0.393926       -10.7193
 234   2.0000      -0.391475       -10.6526
 235   2.0000      -0.383714       -10.4414
 236   2.0000      -0.383669       -10.4402
 237   2.0000      -0.365669        -9.9503
 238   2.0000      -0.362608        -9.8671
 239   2.0000      -0.345712        -9.4073
 240   2.0000      -0.338220        -9.2034
 241   2.0000      -0.334057        -9.0901
 242   2.0000      -0.333642        -9.0789
 243   2.0000      -0.333493        -9.0748
 244   2.0000      -0.329652        -8.9703
 245   2.0000      -0.324458        -8.8289
 246   2.0000      -0.323858        -8.8126
 247   2.0000      -0.316510        -8.6127
 248   2.0000      -0.316196        -8.6041
 249   2.0000      -0.313980        -8.5438
 250   2.0000      -0.313900        -8.5416
 251   2.0000      -0.280841        -7.6421
 252   0.0000      -0.093266        -2.5379
 253   0.0000      -0.022039        -0.5997
 254   0.0000      -0.012787        -0.3479
 255   0.0000       0.000277         0.0075
 256   0.0000       0.006088         0.1657

MULLIKEN ATOMIC CHARGES
-----------------------
   0 C :   -0.078437
   1 C :    0.218287
   2 C :   -0.011785
   3 C :    0.166110
   4 C :    0.081645
   5 C :   -0.332798
   6 C :    0.217467
   7 C :    0.079125
   8 H :    0.212183
   9 C :   -0.328693
  10 C :   -0.080411
  11 H :    0.213333
  12 C :    0.218184
  13 C :   -0.011998
  14 C :   -0.078425
  15 C :    0.220847
  16 C :    0.164795
  17 C :   -0.329539
  18 C :   -0.078061
  19 C :    0.081773
  20 C :    0.078336
  21 H :    0.213200
  22 C :   -0.333278
  23 H :    0.212179
  24 C :    0.291750
  25 O :   -0.459497
  26 C :    0.284722
  27 O :   -0.464075
  28 N :   -0.113871
  29 C :    0.292726
  30 O :   -0.459495
  31 C :    0.285925
  32 O :   -0.463996
  33 N :   -0.114112
  34 C :   -0.278963
  35 H :    0.147781
  36 H :    0.170503
  37 H :    0.147530
  38 C :   -0.278920
  39 H :    0.147784
  40 H :    0.170506
  41 H :    0.147526
  42 S :    0.995643
  43 S :    0.994813
  44 S :    0.995321
  45 S :    0.994870
  46 O :   -0.589579
  47 O :   -0.572267
  48 O :   -0.572410
  49 O :   -0.588517
  50 O :   -0.588477
  51 O :   -0.572390
  52 O :   -0.589657
  53 O :   -0.572258
  54 C :    0.061172
  55 C :   -0.235080
  56 C :   -0.077744
  57 C :   -0.163301
  58 H :    0.166207
  59 C :   -0.193277
  60 H :    0.193770
  61 C :   -0.119467
  62 H :    0.162436
  63 H :    0.163809
  64 H :    0.165467
  65 C :    0.054635
  66 C :   -0.226758
  67 C :   -0.077891
  68 C :   -0.163983
  69 H :    0.166800
  70 C :   -0.194021
  71 H :    0.194066
  72 C :   -0.119911
  73 H :    0.162196
  74 H :    0.164052
  75 H :    0.165326
  76 C :    0.061141
  77 C :   -0.235194
  78 C :   -0.077568
  79 C :   -0.163244
  80 H :    0.166219
  81 C :   -0.193374
  82 H :    0.193762
  83 C :   -0.119509
  84 H :    0.162455
  85 H :    0.163800
  86 H :    0.165465
  87 C :    0.055018
  88 C :   -0.226493
  89 C :   -0.078411
  90 C :   -0.163946
  91 H :    0.166815
  92 C :   -0.194033
  93 H :    0.194034
  94 C :   -0.119975
  95 H :    0.162191
  96 H :    0.164055
  97 H :    0.165332
Sum of atomic charges:   -0.0000000

LOEWDIN ATOMIC CHARGES
----------------------
   0 C :   -0.196571
   1 C :    0.000131
   2 C :    0.020641
   3 C :    0.007164
   4 C :   -0.059826
   5 C :   -0.032261
   6 C :    0.000083
   7 C :   -0.059039
   8 H :    0.176553
   9 C :   -0.032662
  10 C :   -0.196331
  11 H :    0.176397
  12 C :    0.000082
  13 C :    0.020638
  14 C :   -0.196324
  15 C :    0.000133
  16 C :    0.007163
  17 C :   -0.032669
  18 C :   -0.196567
  19 C :   -0.059826
  20 C :   -0.059039
  21 H :    0.176395
  22 C :   -0.032267
  23 H :    0.176550
  24 C :   -0.297021
  25 O :    0.055534
  26 C :   -0.296573
  27 O :    0.049766
  28 N :    0.231190
  29 C :   -0.297018
  30 O :    0.055533
  31 C :   -0.296574
  32 O :    0.049770
  33 N :    0.231191
  34 C :   -0.237867
  35 H :    0.123903
  36 H :    0.129123
  37 H :    0.123734
  38 C :   -0.237868
  39 H :    0.123905
  40 H :    0.129122
  41 H :    0.123732
  42 S :    0.855759
  43 S :    0.855631
  44 S :    0.855755
  45 S :    0.855633
  46 O :   -0.295403
  47 O :   -0.321710
  48 O :   -0.321617
  49 O :   -0.294890
  50 O :   -0.294879
  51 O :   -0.321616
  52 O :   -0.295414
  53 O :   -0.321712
  54 C :   -0.268104
  55 C :   -0.112685
  56 C :   -0.114813
  57 C :   -0.125929
  58 H :    0.159562
  59 C :   -0.129685
  60 H :    0.159675
  61 C :   -0.114659
  62 H :    0.155098
  63 H :    0.155273
  64 H :    0.154741
  65 C :   -0.268520
  66 C :   -0.112484
  67 C :   -0.114815
  68 C :   -0.125942
  69 H :    0.159520
  70 C :   -0.129962
  71 H :    0.159703
  72 C :   -0.114816
  73 H :    0.155048
  74 H :    0.155240
  75 H :    0.154720
  76 C :   -0.268096
  77 C :   -0.112689
  78 C :   -0.114813
  79 C :   -0.125929
  80 H :    0.159563
  81 C :   -0.129681
  82 H :    0.159675
  83 C :   -0.114656
  84 H :    0.155099
  85 H :    0.155274
  86 H :    0.154742
  87 C :   -0.268530
  88 C :   -0.112478
  89 C :   -0.114815
  90 C :   -0.125942
  91 H :    0.159520
  92 C :   -0.129967
  93 H :    0.159702
  94 C :   -0.114820
  95 H :    0.155048
  96 H :    0.155240
  97 H :    0.154720

  Mayer bond orders larger than 0.100000
B(  0-C ,  1-C ) :   1.2045 B(  0-C ,  5-C ) :   1.2442 B(  0-C , 12-C ) :  -0.1343
B(  0-C , 43-S ) :   0.9644 B(  1-C ,  2-C ) :   1.1573 B(  1-C , 12-C ) :   0.8265
B(  1-C , 14-C ) :  -0.1321 B(  2-C ,  3-C ) :   1.2966 B(  2-C ,  6-C ) :   1.1568
B(  3-C ,  4-C ) :   1.2786 B(  3-C ,  7-C ) :   1.2914 B(  4-C ,  5-C ) :   1.3955
B(  4-C , 24-C ) :   0.9668 B(  4-C , 25-O ) :  -0.1420 B(  5-C ,  8-H ) :   0.9691
B(  6-C , 10-C ) :   1.2060 B(  6-C , 15-C ) :   0.8272 B(  6-C , 18-C ) :  -0.1332
B(  7-C ,  9-C ) :   1.3951 B(  7-C , 26-C ) :   0.9598 B(  7-C , 27-O ) :  -0.1475
B(  9-C , 10-C ) :   1.2430 B(  9-C , 11-H ) :   0.9675 B( 10-C , 15-C ) :  -0.1330
B( 10-C , 44-S ) :   0.9637 B( 12-C , 13-C ) :   1.1576 B( 12-C , 14-C ) :   1.2063
B( 13-C , 15-C ) :   1.1568 B( 13-C , 16-C ) :   1.2955 B( 14-C , 17-C ) :   1.2433
B( 14-C , 42-S ) :   0.9631 B( 15-C , 18-C ) :   1.2039 B( 16-C , 19-C ) :   1.2788
B( 16-C , 20-C ) :   1.2908 B( 17-C , 20-C ) :   1.3947 B( 17-C , 21-H ) :   0.9681
B( 18-C , 22-C ) :   1.2440 B( 18-C , 45-S ) :   0.9640 B( 19-C , 22-C ) :   1.3951
B( 19-C , 29-C ) :   0.9669 B( 19-C , 30-O ) :  -0.1422 B( 20-C , 31-C ) :   0.9603
B( 20-C , 32-O ) :  -0.1470 B( 22-C , 23-H ) :   0.9693 B( 24-C , 25-O ) :   2.0096
B( 24-C , 28-N ) :   1.1786 B( 26-C , 27-O ) :   2.0056 B( 26-C , 28-N ) :   1.1946
B( 28-N , 34-C ) :   0.8634 B( 29-C , 30-O ) :   2.0095 B( 29-C , 33-N ) :   1.1783
B( 31-C , 32-O ) :   2.0048 B( 31-C , 33-N ) :   1.1944 B( 33-N , 38-C ) :   0.8635
B( 34-C , 35-H ) :   0.9730 B( 34-C , 36-H ) :   0.9644 B( 34-C , 37-H ) :   0.9730
B( 38-C , 39-H ) :   0.9730 B( 38-C , 40-H ) :   0.9644 B( 38-C , 41-H ) :   0.9730
B( 42-S , 52-O ) :   1.7390 B( 42-S , 53-O ) :   1.7933 B( 42-S , 87-C ) :   0.9666
B( 43-S , 50-O ) :   1.7401 B( 43-S , 51-O ) :   1.7932 B( 43-S , 76-C ) :   0.9675
B( 44-S , 46-O ) :   1.7390 B( 44-S , 47-O ) :   1.7934 B( 44-S , 65-C ) :   0.9669
B( 45-S , 48-O ) :   1.7931 B( 45-S , 49-O ) :   1.7401 B( 45-S , 54-C ) :   0.9674
B( 54-C , 55-C ) :   1.3081 B( 54-C , 56-C ) :   1.3291 B( 55-C , 57-C ) :   1.4328
B( 55-C , 58-H ) :   0.9717 B( 56-C , 59-C ) :   1.4035 B( 56-C , 60-H ) :   0.9484
B( 57-C , 61-C ) :   1.3811 B( 57-C , 62-H ) :   0.9856 B( 59-C , 61-C ) :   1.4046
B( 59-C , 63-H ) :   0.9853 B( 61-C , 64-H ) :   0.9783 B( 65-C , 66-C ) :   1.3111
B( 65-C , 67-C ) :   1.3315 B( 66-C , 68-C ) :   1.4320 B( 66-C , 69-H ) :   0.9699
B( 67-C , 70-C ) :   1.4048 B( 67-C , 71-H ) :   0.9470 B( 68-C , 72-C ) :   1.3826
B( 68-C , 73-H ) :   0.9852 B( 70-C , 72-C ) :   1.4051 B( 70-C , 74-H ) :   0.9853
B( 72-C , 75-H ) :   0.9784 B( 76-C , 77-C ) :   1.3081 B( 76-C , 78-C ) :   1.3290
B( 77-C , 79-C ) :   1.4328 B( 77-C , 80-H ) :   0.9717 B( 78-C , 81-C ) :   1.4037
B( 78-C , 82-H ) :   0.9483 B( 79-C , 83-C ) :   1.3811 B( 79-C , 84-H ) :   0.9856
B( 81-C , 83-C ) :   1.4046 B( 81-C , 85-H ) :   0.9853 B( 83-C , 86-H ) :   0.9783
B( 87-C , 88-C ) :   1.3110 B( 87-C , 89-C ) :   1.3314 B( 88-C , 90-C ) :   1.4321
B( 88-C , 91-H ) :   0.9699 B( 89-C , 92-C ) :   1.4049 B( 89-C , 93-H ) :   0.9472
B( 90-C , 94-C ) :   1.3826 B( 90-C , 95-H ) :   0.9852 B( 92-C , 94-C ) :   1.4050
B( 92-C , 96-H ) :   0.9853 B( 94-C , 97-H ) :   0.9784

MP2 TOTAL ENERGY:    -4526.017908076 Eh

-----------------------------------------------------------------------------
         ABSORPTION SPECTRUM VIA TRANSITION ELECTRIC DIPOLE MOMENTS
-----------------------------------------------------------------------------
State   Energy    Wavelength  fosc         T2        TX        TY        TZ
        (cm-1)      (nm)                 (au**2)    (au)      (au)      (au)
-----------------------------------------------------------------------------
   1   19348.2    516.8   0.609025841  10.36267  -0.01142   3.21909   0.00001
   2   24930.8    401.1   0.008102313   0.10699  -0.00011   0.00002   0.32710
   3   26568.8    376.4   0.285880218   3.54232   1.88209   0.00772  -0.00010
   4   29167.6    342.8   0.000022874   0.00026  -0.00016   0.00005  -0.01607
   5   28691.1    348.5   0.034361023   0.39427  -0.00013  -0.00000  -0.62791
   6   26878.7    372.0   0.000001509   0.00002  -0.00076   0.00014  -0.00423
   7   26809.0    373.0   0.009299789   0.11420   0.33791  -0.00386  -0.00002
   8   27929.6    358.0   0.000642136   0.00757   0.00879   0.08655  -0.00010
   9   27981.6    357.4   0.001087339   0.01279  -0.00021  -0.00006  -0.11311
  10   28635.1    349.2   0.000005460   0.00006   0.00000   0.00003  -0.00792
  11   31378.2    318.7   0.056603194   0.59387   0.00000  -0.00002  -0.77063
  12   29008.6    344.7   0.032233553   0.36581   0.60478  -0.00749   0.00022
  13   28979.5    345.1   0.000007917   0.00009  -0.00494  -0.00016   0.00809
  14   29559.3    338.3   0.002945610   0.03281  -0.00036   0.00004   0.18112
  15   29582.6    338.0   0.005836663   0.06495  -0.25465   0.01042  -0.00057
  16   28718.0    348.2   0.005707897   0.06543  -0.12611  -0.22255  -0.00089
  17   28804.3    347.2   0.001093160   0.01249   0.00329   0.00167  -0.11172
  18   33259.7    300.7   0.595327647   5.89269  -2.42747   0.00770  -0.00037
  19   33556.1    298.0   0.012736087   0.12495  -0.00150   0.00002   0.35348
  20   33111.0    302.0   0.019926771   0.19813   0.29901   0.32973  -0.00028
  21   33470.8    298.8   0.000099996   0.00098   0.00286  -0.00012  -0.03123
  22   33579.6    297.8   1.194578795  11.71155   3.42221   0.00575   0.00002
  23   31277.4    319.7   0.062382291   0.65661  -0.00013   0.00012   0.81031
  24   34176.3    292.6   0.072740632   0.70069   0.83694   0.01504   0.00015
  25   40817.2    245.0   0.021712190   0.17512   0.00598   0.41843  -0.00038
  26   40819.2    245.0   0.035652533   0.28754   0.00004  -0.00030  -0.53623
  27   41070.6    243.5   0.000014003   0.00011  -0.00146   0.00015  -0.01049
  28   41053.5    243.6   0.008527290   0.06838   0.26130  -0.01009   0.00010
  29   39130.3    255.6   0.227764589   1.91623  -0.05258   1.38328  -0.00002
  30   39703.4    251.9   0.079019225   0.65521   0.01680  -0.80928  -0.00001

FINAL SINGLE POINT ENERGY     -4521.048430347930

DIPOLE MOMENT
-------------
                                X             Y             Z
Electronic contribution:      0.00010       0.00363      -0.22840
Nuclear contribution   :     -0.00016      -0.00468       0.26689
                        -----------------------------------------
Total Dipole Moment    :     -0.00006      -0.00105       0.03849
                        -----------------------------------------
Magnitude (a.u.)       :      0.03850
Magnitude (Debye)      :      0.09786

Rotational constants in cm-1:     0.001689     0.000890     0.000662
Rotational constants in MHz :    50.636708    26.686424    19.835733

                             ****ORCA TERMINATED NORMALLY****
TOTAL RUN TIME: 7 days 7 hours 37 minutes 24 seconds 525 msec
