 Gaussian 09, Revision E.01,
 Gaussian 09:  ES64L-G09RevE.01 30-Nov-2015

 ----------------------------------------------------------------------
 #p wb97xd/def2TZVP int=ultrafine scrf=(SMD,solvent=dichloromethane) td
 =(NStates=30)
 ----------------------------------------------------------------------

 -----
 Title
 -----
 Symbolic Z-matrix:
 Charge =  0 Multiplicity = 1

                         Standard orientation:
 ---------------------------------------------------------------------
 Center     Atomic      Atomic             Coordinates (Angstroms)
 Number     Number       Type             X           Y           Z
 ---------------------------------------------------------------------
      1          6           0       -2.217716    1.402438    0.892578
      2          6           0       -1.218217    0.700836    0.237209
      3          6           0       -0.000605    1.400044   -0.000641
      4          6           0       -0.001392    2.803309   -0.001412
      5          6           0       -1.095685    3.499485    0.533142
      6          6           0       -2.129921    2.793880    1.075589
      7          6           0        1.217582    0.701717   -0.237461
      8          6           0        1.091901    3.501467   -0.536086
      9          1           0       -2.905285    3.322510    1.613499
     10          6           0        2.126791    2.795360   -1.077147
     11          6           0        2.216274    1.404227   -0.893024
     12          1           0        2.901925    3.324048   -1.615212
     13          6           0       -1.217579   -0.701711   -0.237470
     14          6           0        0.000608   -1.400033   -0.000602
     15          6           0       -2.216265   -1.404260   -0.893001
     16          6           0        1.218211   -0.700817    0.237254
     17          6           0        0.001385   -2.803297   -0.001297
     18          6           0       -2.126780   -2.795398   -1.077067
     19          6           0        2.217682   -1.402384    0.892703
     20          6           0        1.095653   -3.499445    0.533341
     21          6           0       -1.091897   -3.501483   -0.535965
     22          1           0       -2.901902   -3.324106   -1.615130
     23          6           0        2.129869   -2.793817    1.075797
     24          1           0        2.905200   -3.322424    1.613777
     25          6           0       -1.089734    4.979071    0.568479
     26          8           0       -1.992980    5.617091    1.062007
     27          6           0        1.091499    4.982937   -0.576747
     28          8           0        2.002965    5.605524   -1.073688
     29          7           0       -0.002209    5.623513   -0.005025
     30          6           0        1.089689   -4.979030    0.568772
     31          8           0        1.992898   -5.617025    1.062405
     32          6           0       -1.091494   -4.982952   -0.576549
     33          8           0       -2.002960   -5.605565   -1.073457
     34          7           0        0.002180   -5.623501   -0.004734
     35          6           0       -0.034614    7.081884    0.010058
     36          1           0       -0.920527    7.436466   -0.514296
     37          1           0        0.857804    7.448523   -0.484249
     38          1           0       -0.062925    7.440837    1.037765
     39          6           0        0.034565   -7.081870    0.010467
     40          1           0        0.920495   -7.436505   -0.513818
     41          1           0       -0.857835   -7.448536   -0.483853
     42          1           0        0.062821   -7.440745    1.038203
     43         16           0       -3.523639   -0.634901   -1.836909
     44         16           0       -3.523611    0.631698    1.837425
     45         16           0        3.523672    0.634849   -1.836893
     46         16           0        3.523555   -0.631633    1.837552
     47          8           0        3.434763   -0.791090   -1.696972
     48          8           0        3.381930    1.185165   -3.158414
     49          8           0        3.381769   -1.182797    3.158713
     50          8           0        3.432758    0.794248    1.698186
     51          8           0       -3.432825   -0.794179    1.698021
     52          8           0       -3.381784    1.182846    3.158589
     53          8           0       -3.434810    0.791040   -1.696979
     54          8           0       -3.381864   -1.185175   -3.158442
     55          6           0        5.088518   -1.187286    1.213820
     56          6           0        6.194917   -0.570570    1.789037
     57          6           0        5.235891   -2.215508    0.297399
     58          6           0        7.462716   -1.003188    1.445504
     59          1           0        6.068645    0.237785    2.497941
     60          6           0        6.513406   -2.638524   -0.038706
     61          1           0        4.382068   -2.677339   -0.174017
     62          6           0        7.622615   -2.039951    0.535988
     63          1           0        8.327467   -0.524928    1.886755
     64          1           0        6.634960   -3.438791   -0.757163
     65          1           0        8.616960   -2.375197    0.269105
     66          6           0        5.087450    1.193058   -1.212407
     67          6           0        6.195153    0.578296   -1.787204
     68          6           0        5.232694    2.221274   -0.295629
     69          6           0        7.462076    1.012839   -1.442858
     70          1           0        6.070583   -0.230033   -2.496442
     71          6           0        6.509346    2.646237    0.041280
     72          1           0        4.377892    2.681633    0.175445
     73          6           0        7.619824    2.049587   -0.532957
     74          1           0        8.327831    0.536062   -1.883751
     75          1           0        6.629226    3.446527    0.759997
     76          1           0        8.613486    2.386357   -0.265444
     77          6           0       -5.088591    1.187375    1.213747
     78          6           0       -6.195002    0.570733    1.789015
     79          6           0       -5.235936    2.215627    0.297356
     80          6           0       -7.462787    1.003427    1.445532
     81          1           0       -6.068744   -0.237661    2.497877
     82          6           0       -6.513441    2.638679   -0.038740
     83          1           0       -4.382107    2.677407   -0.174097
     84          6           0       -7.622663    2.040173    0.535997
     85          1           0       -8.327547    0.525214    1.886816
     86          1           0       -6.634975    3.438939   -0.757212
     87          1           0       -8.617000    2.375459    0.269135
     88          6           0       -5.087364   -1.193214   -1.212394
     89          6           0       -6.195140   -0.578547   -1.787165
     90          6           0       -5.232491   -2.221381   -0.295543
     91          6           0       -7.462013   -1.013142   -1.442714
     92          1           0       -6.070663    0.229724   -2.496488
     93          6           0       -6.509103   -2.646408    0.041456
     94          1           0       -4.377626   -2.681709    0.175439
     95          6           0       -7.619641   -2.049859   -0.532750
     96          1           0       -8.327823   -0.536457   -1.883601
     97          1           0       -6.628898   -3.446677    0.760209
     98          1           0       -8.613268   -2.386665   -0.265148
 ---------------------------------------------------------------------

 SCF Done:  E(RwB97XD) =  -4528.56107550     A.U. after   18 cycles

 Excitation energies and oscillator strengths:

 Excited State   1:      Singlet-A      2.7800 eV  445.98 nm  f=0.5699  <S**2>=0.000
     252 -> 253        0.69455
 This state for optimization and/or second-order correction.
 Total Energy, E(TD-HF/TD-KS) =  -4528.45891121
 Copying the excited state density for this state as the 1-particle RhoCI density.

 Excited State   2:      Singlet-A      3.4905 eV  355.21 nm  f=0.0099  <S**2>=0.000
     240 -> 253        0.15594
     241 -> 254       -0.11963
     243 -> 253       -0.42430
     245 -> 253        0.46281
     249 -> 253       -0.12300
     252 -> 255       -0.13291

 Excited State   3:      Singlet-A      3.7647 eV  329.34 nm  f=0.2230  <S**2>=0.000
     237 -> 253        0.15250
     241 -> 253        0.53817
     243 -> 254        0.12238
     245 -> 254       -0.10499
     247 -> 253        0.19463
     251 -> 253       -0.14463
     252 -> 256       -0.23547

 Excited State   4:      Singlet-A      3.9575 eV  313.29 nm  f=0.0010  <S**2>=0.000
     242 -> 253        0.57722
     246 -> 253        0.14262
     250 -> 253        0.14713
     252 -> 254       -0.29427

 Excited State   5:      Singlet-A      3.9804 eV  311.49 nm  f=0.0175  <S**2>=0.000
     236 -> 253        0.26727
     240 -> 253        0.56110
     241 -> 254        0.11417
     243 -> 253        0.10438
     252 -> 257       -0.16263

 Excited State   6:      Singlet-A      4.1588 eV  298.13 nm  f=0.0001  <S**2>=0.000
     237 -> 254        0.14617
     238 -> 254       -0.29645
     239 -> 253        0.55284
     239 -> 260       -0.12580
     239 -> 262       -0.11735

 Excited State   7:      Singlet-A      4.1631 eV  297.82 nm  f=0.0000  <S**2>=0.000
     237 -> 253       -0.24798
     238 -> 253        0.49017
     238 -> 260       -0.11204
     238 -> 262       -0.10445
     239 -> 254       -0.33516
     239 -> 268       -0.10038

 Excited State   8:      Singlet-A      4.3992 eV  281.83 nm  f=0.0000  <S**2>=0.000
     234 -> 253       -0.24498
     235 -> 254       -0.13761
     242 -> 253        0.20759
     250 -> 253        0.23593
     252 -> 254        0.51956

 Excited State   9:      Singlet-A      4.4985 eV  275.61 nm  f=0.0495  <S**2>=0.000
     237 -> 253        0.10263
     250 -> 255       -0.12618
     251 -> 253        0.64158
     252 -> 256       -0.12933

 Excited State  10:      Singlet-A      4.5100 eV  274.91 nm  f=0.0168  <S**2>=0.000
     231 -> 254        0.10414
     234 -> 254        0.28279
     235 -> 253        0.54748
     238 -> 265        0.10478
     239 -> 255        0.10202
     239 -> 257        0.12467

 Excited State  11:      Singlet-A      4.5103 eV  274.89 nm  f=0.0000  <S**2>=0.000
     234 -> 253        0.19355
     235 -> 254        0.11465
     242 -> 253       -0.15307
     246 -> 253       -0.14895
     250 -> 253        0.58910
     251 -> 255       -0.11327

 Excited State  12:      Singlet-A      4.5290 eV  273.76 nm  f=0.0542  <S**2>=0.000
     236 -> 253        0.11419
     242 -> 256        0.11392
     245 -> 253        0.15545
     252 -> 255        0.63800

 Excited State  13:      Singlet-A      4.5916 eV  270.02 nm  f=0.0000  <S**2>=0.000
     231 -> 253        0.12967
     234 -> 253        0.42115
     235 -> 254        0.24392
     238 -> 257       -0.10172
     239 -> 265       -0.10522
     242 -> 253        0.16861
     250 -> 253       -0.14817
     252 -> 254        0.30602

 Excited State  14:      Singlet-A      4.6071 eV  269.11 nm  f=0.0078  <S**2>=0.000
     225 -> 253       -0.10649
     236 -> 254        0.11920
     237 -> 253        0.38263
     238 -> 253        0.23113
     240 -> 254       -0.23912
     241 -> 253       -0.28657
     242 -> 255       -0.10995
     251 -> 253       -0.12467
     252 -> 256       -0.25792

 Excited State  15:      Singlet-A      4.6449 eV  266.93 nm  f=0.0035  <S**2>=0.000
     243 -> 253        0.13795
     245 -> 253        0.28919
     248 -> 255       -0.10415
     249 -> 253        0.59959

 Excited State  16:      Singlet-A      4.6457 eV  266.88 nm  f=0.0010  <S**2>=0.000
     244 -> 253        0.30880
     248 -> 253        0.60841
     249 -> 255       -0.10080

 Excited State  17:      Singlet-A      4.7356 eV  261.82 nm  f=0.0031  <S**2>=0.000
     236 -> 253       -0.21538
     243 -> 253        0.43480
     244 -> 255       -0.10708
     245 -> 253        0.32149
     249 -> 253       -0.27613

 Excited State  18:      Singlet-A      4.7385 eV  261.65 nm  f=0.0174  <S**2>=0.000
     244 -> 253        0.58558
     248 -> 253       -0.32159

 Excited State  19:      Singlet-A      4.7569 eV  260.64 nm  f=0.0059  <S**2>=0.000
     236 -> 253       -0.29022
     237 -> 254       -0.13527
     240 -> 253        0.26563
     242 -> 256       -0.13804
     243 -> 253       -0.12445
     245 -> 253       -0.17093
     249 -> 253        0.12248
     252 -> 255        0.14493
     252 -> 257        0.43279

 Excited State  20:      Singlet-A      4.8061 eV  257.97 nm  f=0.0760  <S**2>=0.000
     225 -> 253        0.12579
     233 -> 253        0.59353
     247 -> 253       -0.18518
     252 -> 256       -0.19352

 Excited State  21:      Singlet-A      4.8970 eV  253.19 nm  f=0.0716  <S**2>=0.000
     232 -> 253        0.15012
     236 -> 253        0.44128
     237 -> 254        0.11276
     242 -> 256       -0.11485
     243 -> 253        0.13275
     252 -> 257        0.42712

 Excited State  22:      Singlet-A      4.9058 eV  252.73 nm  f=0.6988  <S**2>=0.000
     233 -> 253        0.22409
     237 -> 253        0.15255
     238 -> 253        0.10045
     247 -> 253        0.53601
     252 -> 256        0.26370

 Excited State  23:      Singlet-A      4.9136 eV  252.33 nm  f=0.0001  <S**2>=0.000
     242 -> 253       -0.19464
     246 -> 253        0.63869
     247 -> 255       -0.11413
     250 -> 253        0.10891

 Excited State  24:      Singlet-A      4.9519 eV  250.38 nm  f=1.2141  <S**2>=0.000
     237 -> 253        0.32862
     238 -> 253        0.11939
     240 -> 254       -0.10767
     241 -> 253        0.24264
     247 -> 253       -0.32016
     252 -> 256        0.40224

 Excited State  25:      Singlet-A      5.1613 eV  240.22 nm  f=0.0553  <S**2>=0.000
     219 -> 253        0.10577
     224 -> 253        0.12815
     228 -> 253       -0.27891
     230 -> 253        0.44835
     232 -> 255       -0.11046
     234 -> 254        0.10116
     235 -> 253       -0.17358
     242 -> 254        0.19452

 Excited State  26:      Singlet-A      5.1733 eV  239.66 nm  f=0.0560  <S**2>=0.000
     223 -> 253        0.12247
     230 -> 255       -0.11729
     232 -> 253        0.61450
     233 -> 254       -0.10584
     243 -> 253       -0.11290

 Excited State  27:      Singlet-A      5.2067 eV  238.12 nm  f=0.0000  <S**2>=0.000
     221 -> 253       -0.12001
     231 -> 253        0.57535
     233 -> 255        0.16774
     234 -> 253       -0.22459

 Excited State  28:      Singlet-A      5.3261 eV  232.78 nm  f=0.0181  <S**2>=0.000
     243 -> 266       -0.10051
     244 -> 267        0.14604
     245 -> 266       -0.11257
     246 -> 258       -0.17155
     246 -> 264       -0.11214
     247 -> 259        0.18895
     248 -> 260        0.18284
     248 -> 262       -0.18574
     249 -> 261       -0.25694
     250 -> 258       -0.24873
     250 -> 264        0.15978
     251 -> 256        0.11105
     251 -> 259        0.22094
     251 -> 263       -0.15148

 Excited State  29:      Singlet-A      5.3289 eV  232.66 nm  f=0.0188  <S**2>=0.000
     244 -> 266       -0.15132
     245 -> 267        0.11089
     246 -> 259        0.17547
     246 -> 263        0.10205
     247 -> 258       -0.19883
     248 -> 261       -0.26769
     249 -> 260        0.18868
     249 -> 262       -0.19092
     250 -> 256        0.10629
     250 -> 259        0.22608
     250 -> 263       -0.14951
     251 -> 258       -0.23439
     251 -> 264        0.16848

 Excited State  30:      Singlet-A      5.3476 eV  231.85 nm  f=0.1048  <S**2>=0.000
     228 -> 253       -0.11472
     236 -> 255        0.11885
     236 -> 257       -0.10029
     240 -> 255        0.20004
     240 -> 257       -0.11148
     242 -> 254       -0.16681
     243 -> 255       -0.33683
     245 -> 255        0.36108
     252 -> 260       -0.16721
     252 -> 262       -0.14441

 The electronic state is 1-A.
 Alpha  occ. eigenvalues --  -89.22176 -89.22176 -89.22176 -89.22176 -19.25493
 Alpha  occ. eigenvalues --  -19.25493 -19.25493 -19.25493 -19.25102 -19.25102
 Alpha  occ. eigenvalues --  -19.25101 -19.25101 -19.24629 -19.24629 -19.24602
 Alpha  occ. eigenvalues --  -19.24602 -14.50102 -14.50102 -10.42212 -10.42212
 Alpha  occ. eigenvalues --  -10.41997 -10.41997 -10.36466 -10.36465 -10.36435
 Alpha  occ. eigenvalues --  -10.36434 -10.35415 -10.35415 -10.35410 -10.35410
 Alpha  occ. eigenvalues --  -10.34434 -10.34434 -10.34156 -10.34156 -10.33298
 Alpha  occ. eigenvalues --  -10.33298 -10.33298 -10.33297 -10.33177 -10.33177
 Alpha  occ. eigenvalues --  -10.33150 -10.33150 -10.32863 -10.32862 -10.32862
 Alpha  occ. eigenvalues --  -10.32861 -10.31111 -10.31111 -10.30746 -10.30746
 Alpha  occ. eigenvalues --  -10.30745 -10.30745 -10.30721 -10.30721 -10.30721
 Alpha  occ. eigenvalues --  -10.30721 -10.29869 -10.29869 -10.29868 -10.29868
 Alpha  occ. eigenvalues --  -10.29757 -10.29757 -10.29757 -10.29757 -10.29692
 Alpha  occ. eigenvalues --  -10.29692 -10.29692 -10.29692  -8.22733  -8.22733
 Alpha  occ. eigenvalues --   -8.22733  -8.22732  -6.17532  -6.17532  -6.17531
 Alpha  occ. eigenvalues --   -6.17531  -6.17451  -6.17451  -6.17450  -6.17450
 Alpha  occ. eigenvalues --   -6.17427  -6.17427  -6.17427  -6.17427  -1.23262
 Alpha  occ. eigenvalues --   -1.23259  -1.23107  -1.23107  -1.18762  -1.18762
 Alpha  occ. eigenvalues --   -1.16800  -1.16800  -1.12221  -1.12219  -1.12146
 Alpha  occ. eigenvalues --   -1.12145  -1.06320  -1.06120  -1.05295  -1.02708
 Alpha  occ. eigenvalues --   -0.99540  -0.98442  -0.98369  -0.98321  -0.98090
 Alpha  occ. eigenvalues --   -0.97533  -0.96952  -0.92379  -0.91574  -0.90656
 Alpha  occ. eigenvalues --   -0.89991  -0.88857  -0.88726  -0.87968  -0.87657
 Alpha  occ. eigenvalues --   -0.86929  -0.86429  -0.86409  -0.86358  -0.86351
 Alpha  occ. eigenvalues --   -0.84162  -0.83035  -0.82567  -0.79901  -0.79338
 Alpha  occ. eigenvalues --   -0.78810  -0.78541  -0.78063  -0.76546  -0.75910
 Alpha  occ. eigenvalues --   -0.74854  -0.74257  -0.74142  -0.72060  -0.72049
 Alpha  occ. eigenvalues --   -0.71887  -0.71570  -0.71494  -0.70448  -0.70108
 Alpha  occ. eigenvalues --   -0.69701  -0.68701  -0.67831  -0.66423  -0.66278
 Alpha  occ. eigenvalues --   -0.65149  -0.64545  -0.64275  -0.64159  -0.63448
 Alpha  occ. eigenvalues --   -0.62944  -0.62722  -0.60525  -0.60505  -0.60282
 Alpha  occ. eigenvalues --   -0.59546  -0.59236  -0.59053  -0.58846  -0.58749
 Alpha  occ. eigenvalues --   -0.58327  -0.58115  -0.58099  -0.57620  -0.57305
 Alpha  occ. eigenvalues --   -0.57089  -0.57056  -0.56285  -0.56233  -0.56194
 Alpha  occ. eigenvalues --   -0.55754  -0.55727  -0.55713  -0.55507  -0.55309
 Alpha  occ. eigenvalues --   -0.55112  -0.54604  -0.54210  -0.54188  -0.54137
 Alpha  occ. eigenvalues --   -0.54093  -0.54054  -0.53569  -0.53493  -0.53396
 Alpha  occ. eigenvalues --   -0.53116  -0.52898  -0.52385  -0.52171  -0.52139
 Alpha  occ. eigenvalues --   -0.52080  -0.51527  -0.51311  -0.51049  -0.50413
 Alpha  occ. eigenvalues --   -0.50387  -0.50217  -0.49377  -0.48543  -0.48199
 Alpha  occ. eigenvalues --   -0.48165  -0.47648  -0.47627  -0.47590  -0.47190
 Alpha  occ. eigenvalues --   -0.47160  -0.46846  -0.46789  -0.46686  -0.46366
 Alpha  occ. eigenvalues --   -0.46227  -0.45365  -0.44393  -0.44249  -0.44151
 Alpha  occ. eigenvalues --   -0.44120  -0.43693  -0.43610  -0.43511  -0.43464
 Alpha  occ. eigenvalues --   -0.43359  -0.43336  -0.43297  -0.42998  -0.42446
 Alpha  occ. eigenvalues --   -0.42373  -0.41164  -0.40959  -0.40929  -0.39938
 Alpha  occ. eigenvalues --   -0.39652  -0.39472  -0.38758  -0.38592  -0.38486
 Alpha  occ. eigenvalues --   -0.37432  -0.36930  -0.36797  -0.36789  -0.36140
 Alpha  occ. eigenvalues --   -0.35985  -0.35678  -0.35557  -0.35363  -0.35172
 Alpha  occ. eigenvalues --   -0.35090  -0.35039  -0.34046  -0.34008  -0.33853
 Alpha  occ. eigenvalues --   -0.33851  -0.30827
 Alpha virt. eigenvalues --   -0.08741  -0.02743  -0.01526  -0.00545   0.00302
 Alpha virt. eigenvalues --    0.01876   0.02181   0.02600   0.02891   0.03173
 Alpha virt. eigenvalues --    0.04426   0.04488   0.04840   0.04925   0.04951

 Mulliken charges:
               1
     1  C   -0.089024
     2  C    0.218108
     3  C   -0.025237
     4  C    0.077509
     5  C    0.089539
     6  C   -0.350712
     7  C    0.216094
     8  C    0.088679
     9  H    0.217193
    10  C   -0.348575
    11  C   -0.088546
    12  H    0.217734
    13  C    0.216131
    14  C   -0.025255
    15  C   -0.088532
    16  C    0.218120
    17  C    0.077517
    18  C   -0.348627
    19  C   -0.089021
    20  C    0.089555
    21  C    0.088683
    22  H    0.217749
    23  C   -0.350700
    24  H    0.217181
    25  C    0.274989
    26  O   -0.397239
    27  C    0.267838
    28  O   -0.404919
    29  N   -0.082658
    30  C    0.274992
    31  O   -0.397241
    32  C    0.267834
    33  O   -0.404919
    34  N   -0.082659
    35  C   -0.301805
    36  H    0.158988
    37  H    0.170121
    38  H    0.159566
    39  C   -0.301805
    40  H    0.158988
    41  H    0.170121
    42  H    0.159567
    43  S    0.833927
    44  S    0.833925
    45  S    0.833937
    46  S    0.833921
    47  O   -0.500592
    48  O   -0.487526
    49  O   -0.487532
    50  O   -0.500602
    51  O   -0.500604
    52  O   -0.487528
    53  O   -0.500587
    54  O   -0.487528
    55  C    0.109263
    56  C   -0.261509
    57  C   -0.127575
    58  C   -0.152290
    59  H    0.172426
    60  C   -0.182287
    61  H    0.205791
    62  C   -0.129835
    63  H    0.162635
    64  H    0.161550
    65  H    0.162156
    66  C    0.108924
    67  C   -0.261567
    68  C   -0.127221
    69  C   -0.152353
    70  H    0.172396
    71  C   -0.182298
    72  H    0.205952
    73  C   -0.129763
    74  H    0.162634
    75  H    0.161548
    76  H    0.162154
    77  C    0.109316
    78  C   -0.261528
    79  C   -0.127637
    80  C   -0.152289
    81  H    0.172430
    82  C   -0.182256
    83  H    0.205807
    84  C   -0.129854
    85  H    0.162637
    86  H    0.161552
    87  H    0.162157
    88  C    0.108876
    89  C   -0.261543
    90  C   -0.127153
    91  C   -0.152384
    92  H    0.172392
    93  C   -0.182334
    94  H    0.205954
    95  C   -0.129742
    96  H    0.162635
    97  H    0.161547
    98  H    0.162155
 Sum of Mulliken charges =  -0.00000

 Dipole moment (field-independent basis, Debye):
    X=              0.0002    Y=             -0.0001    Z=             -0.0012  Tot=              0.0013
 Quadrupole moment (field-independent basis, Debye-Ang):
   XX=           -273.0150   YY=           -405.5867   ZZ=           -467.8407
   XY=              0.1671   XZ=             -0.0021   YZ=              0.0003

 Normal termination of Gaussian 09 at Sun Jul  3 22:10:45 2022.
