                         Program Version 5.0.2 -  RELEASE  -
|  1> %maxcore 20000
|  2> %pal
|  3>  nprocs= 4
|  4> end
|  5> ! RI-B2GP-PLYP   def2-TZVP def2/J def2-TZVP/C RIJCOSX CPCM TightSCF
|  6> %TDDFT
|  7>    NROOTS   30
|  8>    dcorr 4
|  9>    TDA      FALSE
| 10> END
| 11>
| 12> %CPCM
| 13>    SMD          TRUE
| 14>    SMDsolvent   "N,N-DIMETHYLFORMAMIDE"
| 15> END
| 16>
| 17>
| 18> * xyz 0 1
| 19> C                   3.63600900    1.46135700   -0.48497900
| 20> C                   2.42199800    2.10480900   -0.58704200
| 21> C                   1.21541900    1.39841000   -0.48825100
| 22> C                   1.25532400    0.01315500   -0.27345100
| 23> C                   2.49561800   -0.60140300   -0.17340600
| 24> C                   3.70874000    0.08194000   -0.27400300
| 25> C                  -0.00148400   -0.83321800   -0.14305200
| 26> C                  -1.25709700    0.01329300   -0.28369300
| 27> C                  -1.21570600    1.39971200   -0.49030500
| 28> C                  -2.42146500    2.10797700   -0.58632500
| 29> H                  -2.40194600    3.17579100   -0.75501500
| 30> C                  -3.63626100    1.46577500   -0.48433800
| 31> C                  -3.71023100    0.08446200   -0.28764900
| 32> C                  -2.49804500   -0.60124100   -0.19268900
| 33> H                   2.40373700    3.17493100   -0.74044500
| 34> H                   2.51643700   -1.67496200   -0.02785900
| 35> H                  -4.54268800    2.04951500   -0.58533000
| 36> N                   0.00030100    2.07078300   -0.59764200
| 37> C                   0.00131900    3.49106300   -0.77235200
| 38> C                  -0.00077100    4.32843200    0.37129700
| 39> C                   0.00479200    4.02025700   -2.03590700
| 40> C                  -0.00364800    3.82261200    1.68942600
| 41> C                   0.00050900    5.74180900    0.17219200
| 42> C                   0.00608800    5.41236200   -2.22344500
| 43> H                   0.00647600    3.35158900   -2.88789300
| 44> C                  -0.00534300    4.67360800    2.76285800
| 45> H                  -0.00434500    2.75023300    1.84373800
| 46> C                  -0.00139600    6.58691200    1.30349400
| 47> C                   0.00391600    6.25331800   -1.14346000
| 48> H                   0.00878600    5.81327200   -3.22878200
| 49> C                  -0.00427000    6.06680100    2.56972000
| 50> H                  -0.00743800    4.27320600    3.76879400
| 51> H                  -0.00041500    7.65917100    1.14666100
| 52> H                   0.00488900    7.32803500   -1.28144300
| 53> H                  -0.00561900    6.72647300    3.42821100
| 54> H                  -2.51967900   -1.66957700   -0.01292900
| 55> H                   4.54248500    2.05023100   -0.54769600
| 56> C                   0.00041400   -1.91883800   -1.22946600
| 57> H                   0.00514100   -1.47804200   -2.22681500
| 58> H                   0.87703200   -2.56030800   -1.14007700
| 59> H                  -0.88070700   -2.55512200   -1.14631200
| 60> C                  -0.00505600   -1.51013300    1.23635600
| 61> H                   0.87536100   -2.14029900    1.36359700
| 62> H                  -0.00855000   -0.76922700    2.03698000
| 63> H                  -0.88361800   -2.14365800    1.35874400
| 64> C                   4.99622300   -0.61513300   -0.15878400
| 65> C                   5.12061800   -1.81533400    0.55075900
| 66> C                   6.15731400   -0.10665800   -0.75284500
| 67> C                   6.33356000   -2.46754400    0.65993700
| 68> H                   4.25311400   -2.24109700    1.03991800
| 69> C                   7.36972600   -0.76023100   -0.64523100
| 70> H                   6.10827700    0.81363400   -1.32176500
| 71> C                   7.49237300   -1.95876900    0.06486100
| 72> H                   6.37902200   -3.40011200    1.20913700
| 73> H                   8.24394800   -0.32251900   -1.11171900
| 74> C                   8.78420000   -2.65393100    0.18251400
| 75> C                   9.07794900   -3.44917900    1.29583200
| 76> C                   9.75987900   -2.54184700   -0.81413500
| 77> C                  10.29363900   -4.10328900    1.40754900
| 78> H                   8.35222100   -3.53907100    2.09481600
| 79> C                  10.97536700   -3.19651900   -0.70245900
| 80> H                   9.55468500   -1.95128900   -1.69857500
| 81> C                  11.24996400   -3.98098900    0.40916200
| 82> H                  10.49829400   -4.70586000    2.28397400
| 83> H                  11.70972900   -3.09909200   -1.49261200
| 84> H                  12.20023400   -4.49240600    0.49639800
| 85> C                  -4.99813800   -0.61356900   -0.18563200
| 86> C                  -5.13037100   -1.96265200   -0.53456200
| 87> C                  -6.15048600    0.04193900    0.26367600
| 88> C                  -6.34314300   -2.61744300   -0.43965100
| 89> H                  -4.26952500   -2.50786200   -0.90194900
| 90> C                  -7.36247100   -0.61417800    0.36146100
| 91> H                  -6.09367700    1.08344200    0.55593700
| 92> C                  -7.49280100   -1.96200500    0.01218400
| 93> H                  -6.39615600   -3.66509000   -0.70991700
| 94> H                  -8.23060800   -0.06453300    0.70464100
| 95> C                  -8.78344100   -2.66127700    0.11644100
| 96> C                  -9.09611700   -3.73103200   -0.72957600
| 97> C                  -9.73782300   -2.27980800    1.06579800
| 98> C                 -10.30994100   -4.39067100   -0.63010000
| 99> H                  -8.38674800   -4.03638100   -1.48900600
|100> C                 -10.95112800   -2.94041900    1.16593100
|101> H                  -9.51685600   -1.46852300    1.74861500
|102> C                 -11.24463600   -3.99985500    0.31861000
|103> H                 -10.52986900   -5.21060100   -1.30272800
|104> H                 -11.66861800   -2.63023800    1.91563600
|105> H                 -12.19304000   -4.51615700    0.39695800
|106> *
|107>
|108>
|109>                          ****END OF INPUT****

CARTESIAN COORDINATES (ANGSTROEM)
---------------------------------
  C      3.636009    1.461357   -0.484979
  C      2.421998    2.104809   -0.587042
  C      1.215419    1.398410   -0.488251
  C      1.255324    0.013155   -0.273451
  C      2.495618   -0.601403   -0.173406
  C      3.708740    0.081940   -0.274003
  C     -0.001484   -0.833218   -0.143052
  C     -1.257097    0.013293   -0.283693
  C     -1.215706    1.399712   -0.490305
  C     -2.421465    2.107977   -0.586325
  H     -2.401946    3.175791   -0.755015
  C     -3.636261    1.465775   -0.484338
  C     -3.710231    0.084462   -0.287649
  C     -2.498045   -0.601241   -0.192689
  H      2.403737    3.174931   -0.740445
  H      2.516437   -1.674962   -0.027859
  H     -4.542688    2.049515   -0.585330
  N      0.000301    2.070783   -0.597642
  C      0.001319    3.491063   -0.772352
  C     -0.000771    4.328432    0.371297
  C      0.004792    4.020257   -2.035907
  C     -0.003648    3.822612    1.689426
  C      0.000509    5.741809    0.172192
  C      0.006088    5.412362   -2.223445
  H      0.006476    3.351589   -2.887893
  C     -0.005343    4.673608    2.762858
  H     -0.004345    2.750233    1.843738
  C     -0.001396    6.586912    1.303494
  C      0.003916    6.253318   -1.143460
  H      0.008786    5.813272   -3.228782
  C     -0.004270    6.066801    2.569720
  H     -0.007438    4.273206    3.768794
  H     -0.000415    7.659171    1.146661
  H      0.004889    7.328035   -1.281443
  H     -0.005619    6.726473    3.428211
  H     -2.519679   -1.669577   -0.012929
  H      4.542485    2.050231   -0.547696
  C      0.000414   -1.918838   -1.229466
  H      0.005141   -1.478042   -2.226815
  H      0.877032   -2.560308   -1.140077
  H     -0.880707   -2.555122   -1.146312
  C     -0.005056   -1.510133    1.236356
  H      0.875361   -2.140299    1.363597
  H     -0.008550   -0.769227    2.036980
  H     -0.883618   -2.143658    1.358744
  C      4.996223   -0.615133   -0.158784
  C      5.120618   -1.815334    0.550759
  C      6.157314   -0.106658   -0.752845
  C      6.333560   -2.467544    0.659937
  H      4.253114   -2.241097    1.039918
  C      7.369726   -0.760231   -0.645231
  H      6.108277    0.813634   -1.321765
  C      7.492373   -1.958769    0.064861
  H      6.379022   -3.400112    1.209137
  H      8.243948   -0.322519   -1.111719
  C      8.784200   -2.653931    0.182514
  C      9.077949   -3.449179    1.295832
  C      9.759879   -2.541847   -0.814135
  C     10.293639   -4.103289    1.407549
  H      8.352221   -3.539071    2.094816
  C     10.975367   -3.196519   -0.702459
  H      9.554685   -1.951289   -1.698575
  C     11.249964   -3.980989    0.409162
  H     10.498294   -4.705860    2.283974
  H     11.709729   -3.099092   -1.492612
  H     12.200234   -4.492406    0.496398
  C     -4.998138   -0.613569   -0.185632
  C     -5.130371   -1.962652   -0.534562
  C     -6.150486    0.041939    0.263676
  C     -6.343143   -2.617443   -0.439651
  H     -4.269525   -2.507862   -0.901949
  C     -7.362471   -0.614178    0.361461
  H     -6.093677    1.083442    0.555937
  C     -7.492801   -1.962005    0.012184
  H     -6.396156   -3.665090   -0.709917
  H     -8.230608   -0.064533    0.704641
  C     -8.783441   -2.661277    0.116441
  C     -9.096117   -3.731032   -0.729576
  C     -9.737823   -2.279808    1.065798
  C    -10.309941   -4.390671   -0.630100
  H     -8.386748   -4.036381   -1.489006
  C    -10.951128   -2.940419    1.165931
  H     -9.516856   -1.468523    1.748615
  C    -11.244636   -3.999855    0.318610
  H    -10.529869   -5.210601   -1.302728
  H    -11.668618   -2.630238    1.915636
  H    -12.193040   -4.516157    0.396958

 Total Charge           Charge          ....    0
 Multiplicity           Mult            ....    1
 Number of Electrons    NEL             ....  338
 Basis Dimension        Dim             .... 1772

ORBITAL ENERGIES
----------------

  NO   OCC          E(Eh)            E(eV)
   0   2.0000     -15.058351      -409.7586
   1   2.0000     -10.825001      -294.5632
   2   2.0000     -10.824953      -294.5619
   3   2.0000     -10.818705      -294.3919
   4   2.0000     -10.792989      -293.6922
   5   2.0000     -10.791242      -293.6446
   6   2.0000     -10.790319      -293.6195
   7   2.0000     -10.788668      -293.5746
   8   2.0000     -10.788660      -293.5744
   9   2.0000     -10.787714      -293.5486
  10   2.0000     -10.787634      -293.5464
  11   2.0000     -10.786156      -293.5062
  12   2.0000     -10.786090      -293.5044
  13   2.0000     -10.780962      -293.3649
  14   2.0000     -10.780680      -293.3572
  15   2.0000     -10.779383      -293.3219
  16   2.0000     -10.779353      -293.3211
  17   2.0000     -10.778990      -293.3112
  18   2.0000     -10.778923      -293.3094
  19   2.0000     -10.778745      -293.3046
  20   2.0000     -10.778670      -293.3025
  21   2.0000     -10.778645      -293.3018
  22   2.0000     -10.777784      -293.2784
  23   2.0000     -10.776865      -293.2534
  24   2.0000     -10.775198      -293.2080
  25   2.0000     -10.775141      -293.2065
  26   2.0000     -10.775042      -293.2038
  27   2.0000     -10.774989      -293.2024
  28   2.0000     -10.774972      -293.2019
  29   2.0000     -10.774905      -293.2001
  30   2.0000     -10.774819      -293.1977
  31   2.0000     -10.774760      -293.1961
  32   2.0000     -10.774127      -293.1789
  33   2.0000     -10.774081      -293.1777
  34   2.0000     -10.774051      -293.1768
  35   2.0000     -10.773980      -293.1749
  36   2.0000     -10.773933      -293.1736
  37   2.0000     -10.773910      -293.1730
  38   2.0000     -10.773315      -293.1568
  39   2.0000     -10.773251      -293.1551
  40   2.0000     -10.773107      -293.1511
  41   2.0000     -10.773098      -293.1509
  42   2.0000     -10.773029      -293.1490
  43   2.0000     -10.773024      -293.1489
  44   2.0000     -10.772655      -293.1388
  45   2.0000     -10.772603      -293.1374
  46   2.0000     -10.769679      -293.0579
  47   2.0000     -10.769587      -293.0553
  48   2.0000     -10.751245      -292.5562
  49   2.0000     -10.751129      -292.5531
  50   2.0000      -1.165115       -31.7044
  51   2.0000      -1.057797       -28.7841
  52   2.0000      -1.050746       -28.5923
  53   2.0000      -1.048823       -28.5399
  54   2.0000      -1.036768       -28.2119
  55   2.0000      -1.034231       -28.1429
  56   2.0000      -1.019391       -27.7390
  57   2.0000      -1.017587       -27.6899
  58   2.0000      -0.992973       -27.0202
  59   2.0000      -0.982695       -26.7405
  60   2.0000      -0.955396       -25.9976
  61   2.0000      -0.944627       -25.7046
  62   2.0000      -0.934964       -25.4417
  63   2.0000      -0.914971       -24.8976
  64   2.0000      -0.909267       -24.7424
  65   2.0000      -0.907814       -24.7029
  66   2.0000      -0.903385       -24.5824
  67   2.0000      -0.902282       -24.5523
  68   2.0000      -0.898872       -24.4595
  69   2.0000      -0.896452       -24.3937
  70   2.0000      -0.895726       -24.3739
  71   2.0000      -0.882720       -24.0200
  72   2.0000      -0.869144       -23.6506
  73   2.0000      -0.864843       -23.5336
  74   2.0000      -0.841763       -22.9055
  75   2.0000      -0.824515       -22.4362
  76   2.0000      -0.784611       -21.3504
  77   2.0000      -0.780793       -21.2464
  78   2.0000      -0.763099       -20.7650
  79   2.0000      -0.756117       -20.5750
  80   2.0000      -0.755642       -20.5621
  81   2.0000      -0.751333       -20.4448
  82   2.0000      -0.746508       -20.3135
  83   2.0000      -0.736512       -20.0415
  84   2.0000      -0.734198       -19.9785
  85   2.0000      -0.727754       -19.8032
  86   2.0000      -0.714865       -19.4525
  87   2.0000      -0.705614       -19.2007
  88   2.0000      -0.705335       -19.1931
  89   2.0000      -0.696286       -18.9469
  90   2.0000      -0.690910       -18.8006
  91   2.0000      -0.660281       -17.9672
  92   2.0000      -0.657452       -17.8902
  93   2.0000      -0.643365       -17.5069
  94   2.0000      -0.638847       -17.3839
  95   2.0000      -0.637282       -17.3413
  96   2.0000      -0.630972       -17.1696
  97   2.0000      -0.610554       -16.6140
  98   2.0000      -0.604880       -16.4596
  99   2.0000      -0.602235       -16.3876
 100   2.0000      -0.592268       -16.1164
 101   2.0000      -0.582560       -15.8522
 102   2.0000      -0.577765       -15.7218
 103   2.0000      -0.576646       -15.6913
 104   2.0000      -0.568772       -15.4771
 105   2.0000      -0.558608       -15.2005
 106   2.0000      -0.556703       -15.1487
 107   2.0000      -0.554727       -15.0949
 108   2.0000      -0.542462       -14.7611
 109   2.0000      -0.541588       -14.7374
 110   2.0000      -0.539275       -14.6744
 111   2.0000      -0.537456       -14.6249
 112   2.0000      -0.532493       -14.4899
 113   2.0000      -0.532059       -14.4781
 114   2.0000      -0.531272       -14.4566
 115   2.0000      -0.529258       -14.4019
 116   2.0000      -0.526940       -14.3388
 117   2.0000      -0.522167       -14.2089
 118   2.0000      -0.520525       -14.1642
 119   2.0000      -0.518824       -14.1179
 120   2.0000      -0.517201       -14.0738
 121   2.0000      -0.513508       -13.9733
 122   2.0000      -0.512024       -13.9329
 123   2.0000      -0.506507       -13.7828
 124   2.0000      -0.506275       -13.7765
 125   2.0000      -0.498436       -13.5631
 126   2.0000      -0.490108       -13.3365
 127   2.0000      -0.484985       -13.1971
 128   2.0000      -0.481686       -13.1073
 129   2.0000      -0.480222       -13.0675
 130   2.0000      -0.478620       -13.0239
 131   2.0000      -0.472392       -12.8544
 132   2.0000      -0.471958       -12.8426
 133   2.0000      -0.470853       -12.8126
 134   2.0000      -0.465862       -12.6768
 135   2.0000      -0.454953       -12.3799
 136   2.0000      -0.453308       -12.3351
 137   2.0000      -0.448957       -12.2167
 138   2.0000      -0.448671       -12.2090
 139   2.0000      -0.444473       -12.0947
 140   2.0000      -0.437892       -11.9157
 141   2.0000      -0.433993       -11.8095
 142   2.0000      -0.433057       -11.7841
 143   2.0000      -0.431932       -11.7535
 144   2.0000      -0.426403       -11.6030
 145   2.0000      -0.426342       -11.6013
 146   2.0000      -0.424364       -11.5475
 147   2.0000      -0.421428       -11.4676
 148   2.0000      -0.413473       -11.2512
 149   2.0000      -0.412949       -11.2369
 150   2.0000      -0.408731       -11.1221
 151   2.0000      -0.404075       -10.9954
 152   2.0000      -0.399157       -10.8616
 153   2.0000      -0.391394       -10.6504
 154   2.0000      -0.357552        -9.7295
 155   2.0000      -0.351478        -9.5642
 156   2.0000      -0.339865        -9.2482
 157   2.0000      -0.312026        -8.4907
 158   2.0000      -0.311311        -8.4712
 159   2.0000      -0.310890        -8.4597
 160   2.0000      -0.308414        -8.3924
 161   2.0000      -0.308322        -8.3899
 162   2.0000      -0.305206        -8.3051
 163   2.0000      -0.300387        -8.1739
 164   2.0000      -0.297634        -8.0990
 165   2.0000      -0.280371        -7.6293
 166   2.0000      -0.268486        -7.3059
 167   2.0000      -0.255764        -6.9597
 168   2.0000      -0.222745        -6.0612
 169   0.0000       0.010829         0.2947
 170   0.0000       0.014990         0.4079
 171   0.0000       0.020734         0.5642
 172   0.0000       0.041621         1.1326
 173   0.0000       0.046244         1.2584

MULLIKEN ATOMIC CHARGES
-----------------------
   0 C :   -0.241363
   1 C :   -0.292257
   2 C :    0.218894
   3 C :   -0.123573
   4 C :   -0.305076
   5 C :    0.148111
   6 C :    0.269337
   7 C :   -0.130276
   8 C :    0.220677
   9 C :   -0.290105
  10 H :    0.166463
  11 C :   -0.242612
  12 C :    0.143446
  13 C :   -0.302932
  14 H :    0.167139
  15 H :    0.173670
  16 H :    0.159090
  17 N :    0.072216
  18 C :    0.196340
  19 C :    0.037248
  20 C :   -0.186331
  21 C :   -0.335820
  22 C :    0.079996
  23 C :   -0.128425
  24 H :    0.161386
  25 C :   -0.110533
  26 H :    0.175901
  27 C :   -0.196797
  28 C :   -0.255455
  29 H :    0.162484
  30 C :   -0.170092
  31 H :    0.163358
  32 H :    0.162567
  33 H :    0.161846
  34 H :    0.162530
  35 H :    0.174051
  36 H :    0.157802
  37 C :   -0.421898
  38 H :    0.128627
  39 H :    0.131577
  40 H :    0.132984
  41 C :   -0.421428
  42 H :    0.133638
  43 H :    0.129402
  44 H :    0.131930
  45 C :    0.091566
  46 C :   -0.241632
  47 C :   -0.232157
  48 C :   -0.238945
  49 H :    0.164196
  50 C :   -0.237216
  51 H :    0.159004
  52 C :    0.220692
  53 H :    0.158678
  54 H :    0.158894
  55 C :    0.102445
  56 C :   -0.249199
  57 C :   -0.252255
  58 C :   -0.170609
  59 H :    0.161092
  60 C :   -0.168108
  61 H :    0.162028
  62 C :   -0.155300
  63 H :    0.160209
  64 H :    0.159741
  65 H :    0.162061
  66 C :    0.099126
  67 C :   -0.247080
  68 C :   -0.230472
  69 C :   -0.240588
  70 H :    0.166237
  71 C :   -0.241087
  72 H :    0.158099
  73 C :    0.221917
  74 H :    0.158509
  75 H :    0.159911
  76 C :    0.103147
  77 C :   -0.251001
  78 C :   -0.252672
  79 C :   -0.169120
  80 H :    0.162098
  81 C :   -0.167874
  82 H :    0.161363
  83 C :   -0.156321
  84 H :    0.160239
  85 H :    0.160122
  86 H :    0.162523
Sum of atomic charges:    0.0000000

LOEWDIN ATOMIC CHARGES
----------------------
   0 C :   -0.105964
   1 C :   -0.124034
   2 C :   -0.122943
   3 C :   -0.067041
   4 C :   -0.059587
   5 C :   -0.127774
   6 C :   -0.231107
   7 C :   -0.066955
   8 C :   -0.122942
   9 C :   -0.123877
  10 H :    0.161395
  11 C :   -0.106262
  12 C :   -0.128035
  13 C :   -0.059770
  14 H :    0.161382
  15 H :    0.161128
  16 H :    0.156357
  17 N :    0.282219
  18 C :   -0.134494
  19 C :   -0.070130
  20 C :   -0.092934
  21 C :   -0.099133
  22 C :   -0.097623
  23 C :   -0.139363
  24 H :    0.160642
  25 C :   -0.139175
  26 H :    0.159928
  27 C :   -0.101835
  28 C :   -0.096218
  29 H :    0.153696
  30 C :   -0.143209
  31 H :    0.152606
  32 H :    0.156605
  33 H :    0.157476
  34 H :    0.152113
  35 H :    0.161214
  36 H :    0.156343
  37 C :   -0.230361
  38 H :    0.122814
  39 H :    0.122865
  40 H :    0.123086
  41 C :   -0.230354
  42 H :    0.123085
  43 H :    0.122974
  44 H :    0.122862
  45 C :   -0.108814
  46 C :   -0.106532
  47 C :   -0.106243
  48 C :   -0.104443
  49 H :    0.155619
  50 C :   -0.104355
  51 H :    0.155622
  52 C :   -0.112580
  53 H :    0.156071
  54 H :    0.156142
  55 C :   -0.110080
  56 C :   -0.106817
  57 C :   -0.106668
  58 C :   -0.147075
  59 H :    0.155027
  60 C :   -0.146997
  61 H :    0.155153
  62 C :   -0.150048
  63 H :    0.151209
  64 H :    0.151167
  65 H :    0.149745
  66 C :   -0.109066
  67 C :   -0.106650
  68 C :   -0.106403
  69 C :   -0.104331
  70 H :    0.155779
  71 C :   -0.104262
  72 H :    0.155520
  73 C :   -0.112514
  74 H :    0.156136
  75 H :    0.156209
  76 C :   -0.110102
  77 C :   -0.106791
  78 C :   -0.106668
  79 C :   -0.147012
  80 H :    0.155156
  81 C :   -0.146987
  82 H :    0.155168
  83 C :   -0.150161
  84 H :    0.151225
  85 H :    0.151203
  86 H :    0.149774

  Mayer bond orders larger than 0.100000
B(  0-C ,  1-C ) :   1.4646 B(  0-C ,  5-C ) :   1.3390 B(  0-C , 36-H ) :   0.9739
B(  1-C ,  2-C ) :   1.3427 B(  1-C , 14-H ) :   0.9861 B(  2-C ,  3-C ) :   1.2566
B(  2-C , 17-N ) :   1.1128 B(  3-C ,  4-C ) :   1.3832 B(  3-C ,  6-C ) :   0.9817
B(  4-C ,  5-C ) :   1.4151 B(  4-C , 15-H ) :   0.9479 B(  5-C , 45-C ) :   0.9202
B(  6-C ,  7-C ) :   0.9779 B(  6-C , 37-C ) :   0.8815 B(  6-C , 41-C ) :   0.8754
B(  7-C ,  8-C ) :   1.2589 B(  7-C , 13-C ) :   1.3780 B(  8-C ,  9-C ) :   1.3415
B(  8-C , 17-N ) :   1.1125 B(  9-C , 10-H ) :   0.9871 B(  9-C , 11-C ) :   1.4645
B( 11-C , 12-C ) :   1.3391 B( 11-C , 16-H ) :   0.9724 B( 12-C , 13-C ) :   1.4164
B( 12-C , 66-C ) :   0.9206 B( 13-C , 35-H ) :   0.9484 B( 17-N , 18-C ) :   0.7052
B( 18-C , 19-C ) :   1.1562 B( 18-C , 20-C ) :   1.6483 B( 18-C , 21-C ) :  -0.1071
B( 18-C , 22-C ) :  -0.1160 B( 19-C , 21-C ) :   1.2711 B( 19-C , 22-C ) :   1.2899
B( 20-C , 23-C ) :   1.2390 B( 20-C , 24-H ) :   0.9865 B( 21-C , 25-C ) :   1.5646
B( 21-C , 26-H ) :   0.9688 B( 22-C , 27-C ) :   1.2594 B( 22-C , 28-C ) :   1.2299
B( 23-C , 28-C ) :   1.5084 B( 23-C , 29-H ) :   0.9909 B( 25-C , 30-C ) :   1.2364
B( 25-C , 31-H ) :   0.9838 B( 27-C , 30-C ) :   1.5364 B( 27-C , 32-H ) :   0.9828
B( 28-C , 33-H ) :   0.9906 B( 30-C , 34-H ) :   0.9839 B( 37-C , 38-H ) :   0.9867
B( 37-C , 39-H ) :   0.9779 B( 37-C , 40-H ) :   0.9782 B( 41-C , 42-H ) :   0.9776
B( 41-C , 43-H ) :   0.9864 B( 41-C , 44-H ) :   0.9769 B( 45-C , 46-C ) :   1.3749
B( 45-C , 47-C ) :   1.3754 B( 46-C , 48-C ) :   1.4674 B( 46-C , 49-H ) :   0.9673
B( 47-C , 50-C ) :   1.4643 B( 47-C , 51-H ) :   0.9737 B( 48-C , 52-C ) :   1.3620
B( 48-C , 53-H ) :   0.9756 B( 50-C , 52-C ) :   1.3607 B( 50-C , 54-H ) :   0.9762
B( 52-C , 55-C ) :   0.9076 B( 55-C , 56-C ) :   1.3794 B( 55-C , 57-C ) :   1.3817
B( 56-C , 58-C ) :   1.4548 B( 56-C , 59-H ) :   0.9690 B( 57-C , 60-C ) :   1.4544
B( 57-C , 61-H ) :   0.9683 B( 58-C , 62-C ) :   1.4011 B( 58-C , 63-H ) :   0.9804
B( 60-C , 62-C ) :   1.4000 B( 60-C , 64-H ) :   0.9811 B( 62-C , 65-H ) :   0.9766
B( 66-C , 67-C ) :   1.3716 B( 66-C , 68-C ) :   1.3697 B( 67-C , 69-C ) :   1.4688
B( 67-C , 70-H ) :   0.9671 B( 68-C , 71-C ) :   1.4661 B( 68-C , 72-H ) :   0.9739
B( 69-C , 73-C ) :   1.3620 B( 69-C , 74-H ) :   0.9758 B( 71-C , 73-C ) :   1.3618
B( 71-C , 75-H ) :   0.9755 B( 73-C , 76-C ) :   0.9097 B( 76-C , 77-C ) :   1.3823
B( 76-C , 78-C ) :   1.3798 B( 77-C , 79-C ) :   1.4540 B( 77-C , 80-H ) :   0.9680
B( 78-C , 81-C ) :   1.4523 B( 78-C , 82-H ) :   0.9700 B( 79-C , 83-C ) :   1.4003
B( 79-C , 84-H ) :   0.9806 B( 81-C , 83-C ) :   1.4014 B( 81-C , 85-H ) :   0.9805
B( 83-C , 86-H ) :   0.9763

MP2 TOTAL ENERGY:    -1942.911997130 Eh

-----------------------------------------------------------------------------
         ABSORPTION SPECTRUM VIA TRANSITION ELECTRIC DIPOLE MOMENTS
-----------------------------------------------------------------------------
State   Energy    Wavelength  fosc         T2        TX        TY        TZ
        (cm-1)      (nm)                 (au**2)    (au)      (au)      (au)
-----------------------------------------------------------------------------
   1   28196.1    354.7   1.890303104  22.07079  -4.69781   0.02917  -0.02229
   2   32518.5    307.5   0.611319271   6.18889   0.04016   2.47706  -0.22678
   3   27278.5    366.6   0.001188975   0.01435  -0.03948  -0.11285   0.00742
   4   32903.8    303.9   0.213709654   2.13823  -0.03526  -1.45604   0.13009
   5   35852.9    278.9   0.003058230   0.02808  -0.01098   0.16714   0.00490
   6   32948.3    303.5   0.122941987   1.22841  -1.10629   0.03814  -0.05541
   7   34905.2    286.5   0.000267065   0.00252  -0.01720  -0.02081  -0.04231
   8   37776.3    264.7   0.240550486   2.09634  -1.44778  -0.01632   0.00059
   9   36432.1    274.5   0.016661691   0.15056   0.00883  -0.38443   0.05190
  10   36336.8    275.2   0.000087146   0.00079  -0.01496   0.00323   0.02357
  11   39006.6    256.4   0.005954409   0.05025   0.00134   0.09037   0.20515
  12   39084.5    255.9   0.000044908   0.00038   0.00288  -0.00742   0.01775
  13   39350.6    254.1   0.001122132   0.00939  -0.00098   0.06822   0.06879
  14   36168.0    276.5   0.001839152   0.01674  -0.12853   0.00275  -0.01461
  15   40300.5    248.1   0.000589025   0.00481  -0.00669  -0.01021  -0.06828
  16   43480.3    230.0   1.034156123   7.83013  -0.01834   0.84085   2.66885
  17   42934.9    232.9   0.070542478   0.54090   0.39686   0.14315   0.60242
  18   42777.4    233.8   0.009565667   0.07362  -0.06008  -0.26376   0.02086
  19   40480.2    247.0   0.091276547   0.74232   0.85784  -0.03409  -0.07259
  20   45817.9    218.3   0.015056793   0.10819   0.24048  -0.06370  -0.21516
  21   41180.6    242.8   0.170055441   1.35948  -0.02065   0.44429   1.07780
  22   43449.1    230.2   0.140252947   1.06269  -0.00095  -1.01005  -0.20615
  23   44436.4    225.0   0.203109057   1.50476  -1.19192  -0.03707  -0.28760
  24   48761.3    205.1   0.073471345   0.49604  -0.01985  -0.55432   0.43403
  25   42606.3    234.7   0.045559442   0.35203   0.22381   0.36567   0.41015
  26   45955.6    217.6   0.180762116   1.29492  -0.37265   0.56175  -0.91678
  27   47619.2    210.0   0.613857182   4.24386   0.32881  -1.98836   0.42681
  28   46620.3    214.5   1.452980405  10.26030   3.16197   0.23185  -0.45660
  29   45677.8    218.9   0.668933895   4.82118   0.32138  -2.16928  -0.11003
  30   45527.9    219.6   0.313128592   2.26423  -0.13153  -0.43651   1.43401

FINAL SINGLE POINT ENERGY     -1939.528979126415

DIPOLE MOMENT
-------------
                                X             Y             Z
Electronic contribution:      0.00177      13.14566      -2.77452
Nuclear contribution   :     -0.00023     -12.48099       2.75842
                        -----------------------------------------
Total Dipole Moment    :      0.00154       0.66467      -0.01610
                        -----------------------------------------
Magnitude (a.u.)       :      0.66486
Magnitude (Debye)      :      1.68995

Rotational constants in cm-1:     0.002521     0.000716     0.000583
Rotational constants in MHz :    75.585985    21.461045    17.478918

                             ****ORCA TERMINATED NORMALLY****
TOTAL RUN TIME: 5 days 17 hours 20 minutes 31 seconds 986 msec
