                         Program Version 5.0.2 -  RELEASE  -
|  1> %maxcore 3200
|  2> %pal
|  3>  nprocs= 8
|  4> end
|  5> ! RI-B2PLYP D3BJ def2-TZVP def2/J def2-TZVP/C RIJCOSX CPCM TightSCF
|  6> %TDDFT DCORR 4
|  7>    NROOTS   30
|  8>
|  9>    TDA      FALSE
| 10> END
| 11>
| 12> %CPCM
| 13>    SMD          TRUE
| 14>    SMDsolvent   "N,N-DIMETHYLFORMAMIDE"
| 15> END
| 16>
| 17>
| 18> * xyz 0 1
| 19> C                   3.63600900    1.46135700   -0.48497900
| 20> C                   2.42199800    2.10480900   -0.58704200
| 21> C                   1.21541900    1.39841000   -0.48825100
| 22> C                   1.25532400    0.01315500   -0.27345100
| 23> C                   2.49561800   -0.60140300   -0.17340600
| 24> C                   3.70874000    0.08194000   -0.27400300
| 25> C                  -0.00148400   -0.83321800   -0.14305200
| 26> C                  -1.25709700    0.01329300   -0.28369300
| 27> C                  -1.21570600    1.39971200   -0.49030500
| 28> C                  -2.42146500    2.10797700   -0.58632500
| 29> H                  -2.40194600    3.17579100   -0.75501500
| 30> C                  -3.63626100    1.46577500   -0.48433800
| 31> C                  -3.71023100    0.08446200   -0.28764900
| 32> C                  -2.49804500   -0.60124100   -0.19268900
| 33> H                   2.40373700    3.17493100   -0.74044500
| 34> H                   2.51643700   -1.67496200   -0.02785900
| 35> H                  -4.54268800    2.04951500   -0.58533000
| 36> N                   0.00030100    2.07078300   -0.59764200
| 37> C                   0.00131900    3.49106300   -0.77235200
| 38> C                  -0.00077100    4.32843200    0.37129700
| 39> C                   0.00479200    4.02025700   -2.03590700
| 40> C                  -0.00364800    3.82261200    1.68942600
| 41> C                   0.00050900    5.74180900    0.17219200
| 42> C                   0.00608800    5.41236200   -2.22344500
| 43> H                   0.00647600    3.35158900   -2.88789300
| 44> C                  -0.00534300    4.67360800    2.76285800
| 45> H                  -0.00434500    2.75023300    1.84373800
| 46> C                  -0.00139600    6.58691200    1.30349400
| 47> C                   0.00391600    6.25331800   -1.14346000
| 48> H                   0.00878600    5.81327200   -3.22878200
| 49> C                  -0.00427000    6.06680100    2.56972000
| 50> H                  -0.00743800    4.27320600    3.76879400
| 51> H                  -0.00041500    7.65917100    1.14666100
| 52> H                   0.00488900    7.32803500   -1.28144300
| 53> H                  -0.00561900    6.72647300    3.42821100
| 54> H                  -2.51967900   -1.66957700   -0.01292900
| 55> H                   4.54248500    2.05023100   -0.54769600
| 56> C                   0.00041400   -1.91883800   -1.22946600
| 57> H                   0.00514100   -1.47804200   -2.22681500
| 58> H                   0.87703200   -2.56030800   -1.14007700
| 59> H                  -0.88070700   -2.55512200   -1.14631200
| 60> C                  -0.00505600   -1.51013300    1.23635600
| 61> H                   0.87536100   -2.14029900    1.36359700
| 62> H                  -0.00855000   -0.76922700    2.03698000
| 63> H                  -0.88361800   -2.14365800    1.35874400
| 64> C                   4.99622300   -0.61513300   -0.15878400
| 65> C                   5.12061800   -1.81533400    0.55075900
| 66> C                   6.15731400   -0.10665800   -0.75284500
| 67> C                   6.33356000   -2.46754400    0.65993700
| 68> H                   4.25311400   -2.24109700    1.03991800
| 69> C                   7.36972600   -0.76023100   -0.64523100
| 70> H                   6.10827700    0.81363400   -1.32176500
| 71> C                   7.49237300   -1.95876900    0.06486100
| 72> H                   6.37902200   -3.40011200    1.20913700
| 73> H                   8.24394800   -0.32251900   -1.11171900
| 74> C                   8.78420000   -2.65393100    0.18251400
| 75> C                   9.07794900   -3.44917900    1.29583200
| 76> C                   9.75987900   -2.54184700   -0.81413500
| 77> C                  10.29363900   -4.10328900    1.40754900
| 78> H                   8.35222100   -3.53907100    2.09481600
| 79> C                  10.97536700   -3.19651900   -0.70245900
| 80> H                   9.55468500   -1.95128900   -1.69857500
| 81> C                  11.24996400   -3.98098900    0.40916200
| 82> H                  10.49829400   -4.70586000    2.28397400
| 83> H                  11.70972900   -3.09909200   -1.49261200
| 84> H                  12.20023400   -4.49240600    0.49639800
| 85> C                  -4.99813800   -0.61356900   -0.18563200
| 86> C                  -5.13037100   -1.96265200   -0.53456200
| 87> C                  -6.15048600    0.04193900    0.26367600
| 88> C                  -6.34314300   -2.61744300   -0.43965100
| 89> H                  -4.26952500   -2.50786200   -0.90194900
| 90> C                  -7.36247100   -0.61417800    0.36146100
| 91> H                  -6.09367700    1.08344200    0.55593700
| 92> C                  -7.49280100   -1.96200500    0.01218400
| 93> H                  -6.39615600   -3.66509000   -0.70991700
| 94> H                  -8.23060800   -0.06453300    0.70464100
| 95> C                  -8.78344100   -2.66127700    0.11644100
| 96> C                  -9.09611700   -3.73103200   -0.72957600
| 97> C                  -9.73782300   -2.27980800    1.06579800
| 98> C                 -10.30994100   -4.39067100   -0.63010000
| 99> H                  -8.38674800   -4.03638100   -1.48900600
|100> C                 -10.95112800   -2.94041900    1.16593100
|101> H                  -9.51685600   -1.46852300    1.74861500
|102> C                 -11.24463600   -3.99985500    0.31861000
|103> H                 -10.52986900   -5.21060100   -1.30272800
|104> H                 -11.66861800   -2.63023800    1.91563600
|105> H                 -12.19304000   -4.51615700    0.39695800
|106> *
|107>
|108>
|109>                          ****END OF INPUT****

CARTESIAN COORDINATES (ANGSTROEM)
---------------------------------
  C      3.636009    1.461357   -0.484979
  C      2.421998    2.104809   -0.587042
  C      1.215419    1.398410   -0.488251
  C      1.255324    0.013155   -0.273451
  C      2.495618   -0.601403   -0.173406
  C      3.708740    0.081940   -0.274003
  C     -0.001484   -0.833218   -0.143052
  C     -1.257097    0.013293   -0.283693
  C     -1.215706    1.399712   -0.490305
  C     -2.421465    2.107977   -0.586325
  H     -2.401946    3.175791   -0.755015
  C     -3.636261    1.465775   -0.484338
  C     -3.710231    0.084462   -0.287649
  C     -2.498045   -0.601241   -0.192689
  H      2.403737    3.174931   -0.740445
  H      2.516437   -1.674962   -0.027859
  H     -4.542688    2.049515   -0.585330
  N      0.000301    2.070783   -0.597642
  C      0.001319    3.491063   -0.772352
  C     -0.000771    4.328432    0.371297
  C      0.004792    4.020257   -2.035907
  C     -0.003648    3.822612    1.689426
  C      0.000509    5.741809    0.172192
  C      0.006088    5.412362   -2.223445
  H      0.006476    3.351589   -2.887893
  C     -0.005343    4.673608    2.762858
  H     -0.004345    2.750233    1.843738
  C     -0.001396    6.586912    1.303494
  C      0.003916    6.253318   -1.143460
  H      0.008786    5.813272   -3.228782
  C     -0.004270    6.066801    2.569720
  H     -0.007438    4.273206    3.768794
  H     -0.000415    7.659171    1.146661
  H      0.004889    7.328035   -1.281443
  H     -0.005619    6.726473    3.428211
  H     -2.519679   -1.669577   -0.012929
  H      4.542485    2.050231   -0.547696
  C      0.000414   -1.918838   -1.229466
  H      0.005141   -1.478042   -2.226815
  H      0.877032   -2.560308   -1.140077
  H     -0.880707   -2.555122   -1.146312
  C     -0.005056   -1.510133    1.236356
  H      0.875361   -2.140299    1.363597
  H     -0.008550   -0.769227    2.036980
  H     -0.883618   -2.143658    1.358744
  C      4.996223   -0.615133   -0.158784
  C      5.120618   -1.815334    0.550759
  C      6.157314   -0.106658   -0.752845
  C      6.333560   -2.467544    0.659937
  H      4.253114   -2.241097    1.039918
  C      7.369726   -0.760231   -0.645231
  H      6.108277    0.813634   -1.321765
  C      7.492373   -1.958769    0.064861
  H      6.379022   -3.400112    1.209137
  H      8.243948   -0.322519   -1.111719
  C      8.784200   -2.653931    0.182514
  C      9.077949   -3.449179    1.295832
  C      9.759879   -2.541847   -0.814135
  C     10.293639   -4.103289    1.407549
  H      8.352221   -3.539071    2.094816
  C     10.975367   -3.196519   -0.702459
  H      9.554685   -1.951289   -1.698575
  C     11.249964   -3.980989    0.409162
  H     10.498294   -4.705860    2.283974
  H     11.709729   -3.099092   -1.492612
  H     12.200234   -4.492406    0.496398
  C     -4.998138   -0.613569   -0.185632
  C     -5.130371   -1.962652   -0.534562
  C     -6.150486    0.041939    0.263676
  C     -6.343143   -2.617443   -0.439651
  H     -4.269525   -2.507862   -0.901949
  C     -7.362471   -0.614178    0.361461
  H     -6.093677    1.083442    0.555937
  C     -7.492801   -1.962005    0.012184
  H     -6.396156   -3.665090   -0.709917
  H     -8.230608   -0.064533    0.704641
  C     -8.783441   -2.661277    0.116441
  C     -9.096117   -3.731032   -0.729576
  C     -9.737823   -2.279808    1.065798
  C    -10.309941   -4.390671   -0.630100
  H     -8.386748   -4.036381   -1.489006
  C    -10.951128   -2.940419    1.165931
  H     -9.516856   -1.468523    1.748615
  C    -11.244636   -3.999855    0.318610
  H    -10.529869   -5.210601   -1.302728
  H    -11.668618   -2.630238    1.915636
  H    -12.193040   -4.516157    0.396958

 Total Charge           Charge          ....    0
 Multiplicity           Mult            ....    1
 Number of Electrons    NEL             ....  338
 Basis Dimension        Dim             .... 1772

ORBITAL ENERGIES
----------------

  NO   OCC          E(Eh)            E(eV)
   0   2.0000     -14.871293      -404.6685
   1   2.0000     -10.663469      -290.1677
   2   2.0000     -10.663422      -290.1665
   3   2.0000     -10.658164      -290.0234
   4   2.0000     -10.633085      -289.3409
   5   2.0000     -10.630882      -289.2810
   6   2.0000     -10.630012      -289.2573
   7   2.0000     -10.628034      -289.2035
   8   2.0000     -10.628027      -289.2033
   9   2.0000     -10.626946      -289.1739
  10   2.0000     -10.626866      -289.1717
  11   2.0000     -10.625536      -289.1355
  12   2.0000     -10.625469      -289.1337
  13   2.0000     -10.620595      -289.0011
  14   2.0000     -10.620305      -288.9932
  15   2.0000     -10.619240      -288.9642
  16   2.0000     -10.619212      -288.9635
  17   2.0000     -10.618769      -288.9514
  18   2.0000     -10.618498      -288.9440
  19   2.0000     -10.618351      -288.9400
  20   2.0000     -10.618258      -288.9375
  21   2.0000     -10.618233      -288.9368
  22   2.0000     -10.617489      -288.9166
  23   2.0000     -10.616609      -288.8926
  24   2.0000     -10.614716      -288.8411
  25   2.0000     -10.614660      -288.8396
  26   2.0000     -10.614581      -288.8374
  27   2.0000     -10.614528      -288.8360
  28   2.0000     -10.614381      -288.8320
  29   2.0000     -10.614321      -288.8304
  30   2.0000     -10.614229      -288.8279
  31   2.0000     -10.614178      -288.8265
  32   2.0000     -10.613732      -288.8143
  33   2.0000     -10.613686      -288.8131
  34   2.0000     -10.613613      -288.8111
  35   2.0000     -10.613566      -288.8098
  36   2.0000     -10.613180      -288.7993
  37   2.0000     -10.613039      -288.7955
  38   2.0000     -10.612855      -288.7905
  39   2.0000     -10.612794      -288.7888
  40   2.0000     -10.612785      -288.7886
  41   2.0000     -10.612714      -288.7866
  42   2.0000     -10.612648      -288.7848
  43   2.0000     -10.612576      -288.7829
  44   2.0000     -10.611773      -288.7610
  45   2.0000     -10.611719      -288.7596
  46   2.0000     -10.609516      -288.6996
  47   2.0000     -10.609426      -288.6972
  48   2.0000     -10.591703      -288.2149
  49   2.0000     -10.591590      -288.2118
  50   2.0000      -1.114922       -30.3386
  51   2.0000      -1.010006       -27.4837
  52   2.0000      -1.002796       -27.2875
  53   2.0000      -1.001009       -27.2388
  54   2.0000      -0.989373       -26.9222
  55   2.0000      -0.987065       -26.8594
  56   2.0000      -0.972743       -26.4697
  57   2.0000      -0.970888       -26.4192
  58   2.0000      -0.947403       -25.7801
  59   2.0000      -0.937329       -25.5060
  60   2.0000      -0.910859       -24.7857
  61   2.0000      -0.900504       -24.5040
  62   2.0000      -0.891282       -24.2530
  63   2.0000      -0.871922       -23.7262
  64   2.0000      -0.866131       -23.5686
  65   2.0000      -0.864725       -23.5304
  66   2.0000      -0.860403       -23.4128
  67   2.0000      -0.859700       -23.3936
  68   2.0000      -0.856033       -23.2938
  69   2.0000      -0.853607       -23.2278
  70   2.0000      -0.853196       -23.2166
  71   2.0000      -0.840900       -22.8820
  72   2.0000      -0.827434       -22.5156
  73   2.0000      -0.823411       -22.4062
  74   2.0000      -0.801216       -21.8022
  75   2.0000      -0.784947       -21.3595
  76   2.0000      -0.747393       -20.3376
  77   2.0000      -0.743545       -20.2329
  78   2.0000      -0.726353       -19.7651
  79   2.0000      -0.719411       -19.5762
  80   2.0000      -0.719214       -19.5708
  81   2.0000      -0.715074       -19.4582
  82   2.0000      -0.710303       -19.3283
  83   2.0000      -0.700635       -19.0652
  84   2.0000      -0.699043       -19.0219
  85   2.0000      -0.692121       -18.8336
  86   2.0000      -0.679575       -18.4922
  87   2.0000      -0.670909       -18.2564
  88   2.0000      -0.670353       -18.2412
  89   2.0000      -0.662078       -18.0161
  90   2.0000      -0.657130       -17.8814
  91   2.0000      -0.627579       -17.0773
  92   2.0000      -0.626497       -17.0478
  93   2.0000      -0.612582       -16.6692
  94   2.0000      -0.608271       -16.5519
  95   2.0000      -0.606523       -16.5043
  96   2.0000      -0.599440       -16.3116
  97   2.0000      -0.580296       -15.7907
  98   2.0000      -0.574824       -15.6418
  99   2.0000      -0.572267       -15.5722
 100   2.0000      -0.562607       -15.3093
 101   2.0000      -0.552442       -15.0327
 102   2.0000      -0.547860       -14.9080
 103   2.0000      -0.547180       -14.8895
 104   2.0000      -0.539648       -14.6846
 105   2.0000      -0.529910       -14.4196
 106   2.0000      -0.528350       -14.3771
 107   2.0000      -0.526333       -14.3223
 108   2.0000      -0.514371       -13.9967
 109   2.0000      -0.513208       -13.9651
 110   2.0000      -0.510800       -13.8996
 111   2.0000      -0.509493       -13.8640
 112   2.0000      -0.504429       -13.7262
 113   2.0000      -0.504260       -13.7216
 114   2.0000      -0.503667       -13.7055
 115   2.0000      -0.501449       -13.6451
 116   2.0000      -0.499346       -13.5879
 117   2.0000      -0.494628       -13.4595
 118   2.0000      -0.493068       -13.4170
 119   2.0000      -0.491992       -13.3878
 120   2.0000      -0.489983       -13.3331
 121   2.0000      -0.486281       -13.2324
 122   2.0000      -0.485179       -13.2024
 123   2.0000      -0.479476       -13.0472
 124   2.0000      -0.479240       -13.0408
 125   2.0000      -0.471644       -12.8341
 126   2.0000      -0.463472       -12.6117
 127   2.0000      -0.460194       -12.5225
 128   2.0000      -0.457770       -12.4565
 129   2.0000      -0.454607       -12.3705
 130   2.0000      -0.453072       -12.3287
 131   2.0000      -0.447934       -12.1889
 132   2.0000      -0.447677       -12.1819
 133   2.0000      -0.445450       -12.1213
 134   2.0000      -0.440308       -11.9814
 135   2.0000      -0.429976       -11.7003
 136   2.0000      -0.429505       -11.6874
 137   2.0000      -0.425789       -11.5863
 138   2.0000      -0.423442       -11.5224
 139   2.0000      -0.419507       -11.4154
 140   2.0000      -0.414672       -11.2838
 141   2.0000      -0.409898       -11.1539
 142   2.0000      -0.408624       -11.1192
 143   2.0000      -0.407182       -11.0800
 144   2.0000      -0.401808       -10.9338
 145   2.0000      -0.401730       -10.9316
 146   2.0000      -0.400307       -10.8929
 147   2.0000      -0.397787       -10.8243
 148   2.0000      -0.389220       -10.5912
 149   2.0000      -0.388808       -10.5800
 150   2.0000      -0.387994       -10.5578
 151   2.0000      -0.382367       -10.4047
 152   2.0000      -0.376138       -10.2352
 153   2.0000      -0.368393       -10.0245
 154   2.0000      -0.340277        -9.2594
 155   2.0000      -0.334356        -9.0983
 156   2.0000      -0.322983        -8.7888
 157   2.0000      -0.296935        -8.0800
 158   2.0000      -0.296257        -8.0616
 159   2.0000      -0.295921        -8.0524
 160   2.0000      -0.293456        -7.9853
 161   2.0000      -0.293358        -7.9827
 162   2.0000      -0.290129        -7.8948
 163   2.0000      -0.285078        -7.7574
 164   2.0000      -0.284101        -7.7308
 165   2.0000      -0.266150        -7.2423
 166   2.0000      -0.255666        -6.9570
 167   2.0000      -0.243464        -6.6250
 168   2.0000      -0.210083        -5.7167
 169   0.0000      -0.004929        -0.1341
 170   0.0000      -0.001735        -0.0472
 171   0.0000       0.004801         0.1306
 172   0.0000       0.025097         0.6829
 173   0.0000       0.029530         0.8035

MULLIKEN ATOMIC CHARGES
-----------------------
   0 C :   -0.240037
   1 C :   -0.276192
   2 C :    0.201376
   3 C :   -0.110758
   4 C :   -0.297232
   5 C :    0.140853
   6 C :    0.258991
   7 C :   -0.117313
   8 C :    0.203206
   9 C :   -0.274445
  10 H :    0.163404
  11 C :   -0.241011
  12 C :    0.136555
  13 C :   -0.295079
  14 H :    0.164028
  15 H :    0.168696
  16 H :    0.153797
  17 N :    0.076728
  18 C :    0.186920
  19 C :    0.026536
  20 C :   -0.179336
  21 C :   -0.315876
  22 C :    0.082482
  23 C :   -0.127410
  24 H :    0.156422
  25 C :   -0.113125
  26 H :    0.173567
  27 C :   -0.190211
  28 C :   -0.242800
  29 H :    0.157815
  30 C :   -0.164889
  31 H :    0.158879
  32 H :    0.157167
  33 H :    0.156456
  34 H :    0.158264
  35 H :    0.169166
  36 H :    0.152595
  37 C :   -0.420390
  38 H :    0.127118
  39 H :    0.130289
  40 H :    0.132060
  41 C :   -0.420201
  42 H :    0.132671
  43 H :    0.128102
  44 H :    0.130607
  45 C :    0.094431
  46 C :   -0.237090
  47 C :   -0.227054
  48 C :   -0.233883
  49 H :    0.160718
  50 C :   -0.231799
  51 H :    0.154394
  52 C :    0.210437
  53 H :    0.154145
  54 H :    0.154364
  55 C :    0.104428
  56 C :   -0.240111
  57 C :   -0.242800
  58 C :   -0.167006
  59 H :    0.156982
  60 C :   -0.164874
  61 H :    0.157717
  62 C :   -0.152112
  63 H :    0.155840
  64 H :    0.155471
  65 H :    0.157704
  66 C :    0.100911
  67 C :   -0.241749
  68 C :   -0.225802
  69 C :   -0.235341
  70 H :    0.162640
  71 C :   -0.235233
  72 H :    0.153694
  73 C :    0.211914
  74 H :    0.154043
  75 H :    0.155255
  76 C :    0.104861
  77 C :   -0.241764
  78 C :   -0.243278
  79 C :   -0.165600
  80 H :    0.157801
  81 C :   -0.164558
  82 H :    0.157148
  83 C :   -0.153096
  84 H :    0.155895
  85 H :    0.155788
  86 H :    0.158119
Sum of atomic charges:    0.0000000

LOEWDIN ATOMIC CHARGES
----------------------
   0 C :   -0.107261
   1 C :   -0.123290
   2 C :   -0.124800
   3 C :   -0.066201
   4 C :   -0.060895
   5 C :   -0.126961
   6 C :   -0.230932
   7 C :   -0.066119
   8 C :   -0.124801
   9 C :   -0.123139
  10 H :    0.161467
  11 C :   -0.107551
  12 C :   -0.127221
  13 C :   -0.061079
  14 H :    0.161456
  15 H :    0.160919
  16 H :    0.156068
  17 N :    0.288332
  18 C :   -0.134685
  19 C :   -0.069760
  20 C :   -0.093461
  21 C :   -0.098742
  22 C :   -0.097003
  23 C :   -0.139082
  24 H :    0.160516
  25 C :   -0.139251
  26 H :    0.159916
  27 C :   -0.101658
  28 C :   -0.096213
  29 H :    0.153596
  30 C :   -0.143005
  31 H :    0.152466
  32 H :    0.156447
  33 H :    0.157305
  34 H :    0.152002
  35 H :    0.161008
  36 H :    0.156062
  37 C :   -0.231783
  38 H :    0.123330
  39 H :    0.123403
  40 H :    0.123650
  41 C :   -0.231764
  42 H :    0.123659
  43 H :    0.123500
  44 H :    0.123413
  45 C :   -0.108766
  46 C :   -0.106498
  47 C :   -0.106171
  48 C :   -0.104696
  49 H :    0.155502
  50 C :   -0.104598
  51 H :    0.155457
  52 C :   -0.112268
  53 H :    0.155889
  54 H :    0.155959
  55 C :   -0.109788
  56 C :   -0.106668
  57 C :   -0.106518
  58 C :   -0.147210
  59 H :    0.154911
  60 C :   -0.147134
  61 H :    0.155027
  62 C :   -0.150055
  63 H :    0.151039
  64 H :    0.151003
  65 H :    0.149590
  66 C :   -0.109018
  67 C :   -0.106607
  68 C :   -0.106341
  69 C :   -0.104584
  70 H :    0.155655
  71 C :   -0.104513
  72 H :    0.155369
  73 C :   -0.112203
  74 H :    0.155958
  75 H :    0.156025
  76 C :   -0.109816
  77 C :   -0.106638
  78 C :   -0.106516
  79 C :   -0.147145
  80 H :    0.155034
  81 C :   -0.147123
  82 H :    0.155043
  83 C :   -0.150154
  84 H :    0.151056
  85 H :    0.151036
  86 H :    0.149618

  Mayer bond orders larger than 0.100000
B(  0-C ,  1-C ) :   1.4651 B(  0-C ,  5-C ) :   1.3339 B(  0-C , 36-H ) :   0.9739
B(  1-C ,  2-C ) :   1.3315 B(  1-C , 14-H ) :   0.9842 B(  2-C ,  3-C ) :   1.2538
B(  2-C , 17-N ) :   1.1140 B(  3-C ,  4-C ) :   1.3815 B(  3-C ,  6-C ) :   0.9766
B(  4-C ,  5-C ) :   1.4172 B(  4-C , 15-H ) :   0.9440 B(  5-C , 45-C ) :   0.9345
B(  6-C ,  7-C ) :   0.9734 B(  6-C , 37-C ) :   0.8824 B(  6-C , 41-C ) :   0.8770
B(  7-C ,  8-C ) :   1.2566 B(  7-C , 13-C ) :   1.3771 B(  8-C ,  9-C ) :   1.3302
B(  8-C , 17-N ) :   1.1137 B(  9-C , 10-H ) :   0.9852 B(  9-C , 11-C ) :   1.4650
B( 11-C , 12-C ) :   1.3342 B( 11-C , 16-H ) :   0.9723 B( 12-C , 13-C ) :   1.4184
B( 12-C , 66-C ) :   0.9344 B( 13-C , 35-H ) :   0.9445 B( 17-N , 18-C ) :   0.7044
B( 18-C , 19-C ) :   1.1511 B( 18-C , 20-C ) :   1.6282 B( 18-C , 22-C ) :  -0.1056
B( 19-C , 21-C ) :   1.2699 B( 19-C , 22-C ) :   1.2749 B( 20-C , 23-C ) :   1.2400
B( 20-C , 24-H ) :   0.9891 B( 21-C , 25-C ) :   1.5541 B( 21-C , 26-H ) :   0.9657
B( 22-C , 27-C ) :   1.2511 B( 22-C , 28-C ) :   1.2225 B( 23-C , 28-C ) :   1.5017
B( 23-C , 29-H ) :   0.9918 B( 25-C , 30-C ) :   1.2399 B( 25-C , 31-H ) :   0.9843
B( 27-C , 30-C ) :   1.5281 B( 27-C , 32-H ) :   0.9840 B( 28-C , 33-H ) :   0.9921
B( 30-C , 34-H ) :   0.9837 B( 37-C , 38-H ) :   0.9854 B( 37-C , 39-H ) :   0.9761
B( 37-C , 40-H ) :   0.9768 B( 41-C , 42-H ) :   0.9761 B( 41-C , 43-H ) :   0.9851
B( 41-C , 44-H ) :   0.9751 B( 45-C , 46-C ) :   1.3689 B( 45-C , 47-C ) :   1.3696
B( 46-C , 48-C ) :   1.4659 B( 46-C , 49-H ) :   0.9655 B( 47-C , 50-C ) :   1.4631
B( 47-C , 51-H ) :   0.9725 B( 48-C , 52-C ) :   1.3559 B( 48-C , 53-H ) :   0.9742
B( 50-C , 52-C ) :   1.3545 B( 50-C , 54-H ) :   0.9750 B( 52-C , 55-C ) :   0.9200
B( 55-C , 56-C ) :   1.3732 B( 55-C , 57-C ) :   1.3753 B( 56-C , 58-C ) :   1.4487
B( 56-C , 59-H ) :   0.9674 B( 57-C , 60-C ) :   1.4483 B( 57-C , 61-H ) :   0.9669
B( 58-C , 62-C ) :   1.3961 B( 58-C , 63-H ) :   0.9803 B( 60-C , 62-C ) :   1.3952
B( 60-C , 64-H ) :   0.9809 B( 62-C , 65-H ) :   0.9764 B( 66-C , 67-C ) :   1.3661
B( 66-C , 68-C ) :   1.3645 B( 67-C , 69-C ) :   1.4669 B( 67-C , 70-H ) :   0.9653
B( 68-C , 71-C ) :   1.4646 B( 68-C , 72-H ) :   0.9727 B( 69-C , 73-C ) :   1.3558
B( 69-C , 74-H ) :   0.9744 B( 71-C , 73-C ) :   1.3554 B( 71-C , 75-H ) :   0.9745
B( 73-C , 76-C ) :   0.9218 B( 76-C , 77-C ) :   1.3759 B( 76-C , 78-C ) :   1.3735
B( 77-C , 79-C ) :   1.4479 B( 77-C , 80-H ) :   0.9666 B( 78-C , 81-C ) :   1.4465
B( 78-C , 82-H ) :   0.9684 B( 79-C , 83-C ) :   1.3954 B( 79-C , 84-H ) :   0.9804
B( 81-C , 83-C ) :   1.3965 B( 81-C , 85-H ) :   0.9803 B( 83-C , 86-H ) :   0.9761

MP2 TOTAL ENERGY:    -1943.306339651 Eh

-----------------------------------------------------------------------------
         ABSORPTION SPECTRUM VIA TRANSITION ELECTRIC DIPOLE MOMENTS
-----------------------------------------------------------------------------
State   Energy    Wavelength  fosc         T2        TX        TY        TZ
        (cm-1)      (nm)                 (au**2)    (au)      (au)      (au)
-----------------------------------------------------------------------------
   1   26590.4    376.1   1.796116744  22.23742  -4.71554   0.02580  -0.02178
   2   25479.7    392.5   0.000662995   0.00857  -0.06198  -0.06840   0.00679
   3   30683.9    325.9   0.525094395   5.63381   0.03116   2.36391  -0.21155
   4   31463.1    317.8   0.210171792   2.19911  -0.03890  -1.47567   0.14146
   5   31525.2    317.2   0.110533256   1.15428  -1.07257   0.03151  -0.05375
   6   35515.5    281.6   0.062108615   0.57572  -0.01850   0.75647  -0.05598
   7   34702.4    288.2   0.000210798   0.00200  -0.02133  -0.00343  -0.03916
   8   36455.4    274.3   0.319162181   2.88221   1.69762   0.01713   0.00142
   9   34692.2    288.2   0.023876079   0.22657  -0.47562   0.01881  -0.00206
  10   35409.2    282.4   0.023776970   0.22106   0.00597   0.46548  -0.06602
  11   34338.1    291.2   0.009801753   0.09397   0.01184   0.27651  -0.13181
  12   35257.1    283.6   0.002453284   0.02291   0.14531   0.00093   0.04234
  13   38618.5    258.9   0.000263903   0.00225   0.00715   0.04563  -0.01079
  14   38603.8    259.0   0.000487586   0.00416   0.04787  -0.01266  -0.04131
  15   41360.1    241.8   0.040046271   0.31875  -0.00062   0.28816   0.48551
  16   37813.2    264.5   0.041357677   0.36007   0.03540   0.18552   0.56956
  17   36900.7    271.0   0.015702015   0.14009   0.37230  -0.00321  -0.03828
  18   39918.2    250.5   0.020531353   0.16933  -0.39602  -0.00367  -0.11172
  19   39989.9    250.1   0.030623817   0.25211  -0.06291  -0.20237  -0.45519
  20   40262.0    248.4   0.135778463   1.11022  -0.02113   0.06203  -1.05163
  21   42604.0    234.7   0.629664933   4.86558  -0.66813  -0.84248  -1.92598
  22   42538.8    235.1   0.478984256   3.70690   0.73833  -0.71448  -1.62828
  23   41818.1    239.1   0.028406337   0.22363   0.46924  -0.02386   0.05361
  24   41429.3    241.4   0.056171281   0.44636  -0.00291   0.66318  -0.08085
  25   42320.6    236.3   0.093784581   0.72955   0.07376  -0.69315   0.49361
  26   42548.0    235.0   0.114416533   0.88529  -0.31351   0.06645   0.88464
  27   41618.4    240.3   0.037696480   0.29819   0.47788   0.00118   0.26423
  28   43232.7    231.3   0.124807831   0.95040  -0.57815  -0.49916   0.60579
  29   43035.3    232.4   0.177511012   1.35793   0.59806  -0.75038  -0.66121
  30   43796.2    228.3   0.027104778   0.20374   0.40083   0.11289   0.17417

Dispersion correction           -0.108911179
FINAL SINGLE POINT ENERGY     -1940.715620256547

DIPOLE MOMENT
-------------
                                X             Y             Z
Electronic contribution:      0.00150      13.18087      -2.77535
Nuclear contribution   :     -0.00023     -12.48099       2.75842
                        -----------------------------------------
Total Dipole Moment    :      0.00127       0.69988      -0.01693
                        -----------------------------------------
Magnitude (a.u.)       :      0.70009
Magnitude (Debye)      :      1.77948

Rotational constants in cm-1:     0.002521     0.000716     0.000583
Rotational constants in MHz :    75.585985    21.461045    17.478918

                             ****ORCA TERMINATED NORMALLY****
TOTAL RUN TIME: 2 days 18 hours 35 minutes 18 seconds 785 msec
