                         Program Version 5.0.2 -  RELEASE  -
|  1> %maxcore 12800
|  2> %pal
|  3>  nprocs= 8
|  4> end
|  5> ! RI-DSD-BLYP D3BJ def2-TZVP def2/J def2-TZVP/C RIJCOSX CPCM TightSCF
|  6> %TDDFT DCORR 4
|  7>    NROOTS   30
|  8>
|  9>    TDA      FALSE
| 10> END
| 11>
| 12> %CPCM
| 13>    SMD          TRUE
| 14>    SMDsolvent   "N,N-DIMETHYLFORMAMIDE"
| 15> END
| 16>
| 17>
| 18> * xyz 0 1
| 19> C                   3.63600900    1.46135700   -0.48497900
| 20> C                   2.42199800    2.10480900   -0.58704200
| 21> C                   1.21541900    1.39841000   -0.48825100
| 22> C                   1.25532400    0.01315500   -0.27345100
| 23> C                   2.49561800   -0.60140300   -0.17340600
| 24> C                   3.70874000    0.08194000   -0.27400300
| 25> C                  -0.00148400   -0.83321800   -0.14305200
| 26> C                  -1.25709700    0.01329300   -0.28369300
| 27> C                  -1.21570600    1.39971200   -0.49030500
| 28> C                  -2.42146500    2.10797700   -0.58632500
| 29> H                  -2.40194600    3.17579100   -0.75501500
| 30> C                  -3.63626100    1.46577500   -0.48433800
| 31> C                  -3.71023100    0.08446200   -0.28764900
| 32> C                  -2.49804500   -0.60124100   -0.19268900
| 33> H                   2.40373700    3.17493100   -0.74044500
| 34> H                   2.51643700   -1.67496200   -0.02785900
| 35> H                  -4.54268800    2.04951500   -0.58533000
| 36> N                   0.00030100    2.07078300   -0.59764200
| 37> C                   0.00131900    3.49106300   -0.77235200
| 38> C                  -0.00077100    4.32843200    0.37129700
| 39> C                   0.00479200    4.02025700   -2.03590700
| 40> C                  -0.00364800    3.82261200    1.68942600
| 41> C                   0.00050900    5.74180900    0.17219200
| 42> C                   0.00608800    5.41236200   -2.22344500
| 43> H                   0.00647600    3.35158900   -2.88789300
| 44> C                  -0.00534300    4.67360800    2.76285800
| 45> H                  -0.00434500    2.75023300    1.84373800
| 46> C                  -0.00139600    6.58691200    1.30349400
| 47> C                   0.00391600    6.25331800   -1.14346000
| 48> H                   0.00878600    5.81327200   -3.22878200
| 49> C                  -0.00427000    6.06680100    2.56972000
| 50> H                  -0.00743800    4.27320600    3.76879400
| 51> H                  -0.00041500    7.65917100    1.14666100
| 52> H                   0.00488900    7.32803500   -1.28144300
| 53> H                  -0.00561900    6.72647300    3.42821100
| 54> H                  -2.51967900   -1.66957700   -0.01292900
| 55> H                   4.54248500    2.05023100   -0.54769600
| 56> C                   0.00041400   -1.91883800   -1.22946600
| 57> H                   0.00514100   -1.47804200   -2.22681500
| 58> H                   0.87703200   -2.56030800   -1.14007700
| 59> H                  -0.88070700   -2.55512200   -1.14631200
| 60> C                  -0.00505600   -1.51013300    1.23635600
| 61> H                   0.87536100   -2.14029900    1.36359700
| 62> H                  -0.00855000   -0.76922700    2.03698000
| 63> H                  -0.88361800   -2.14365800    1.35874400
| 64> C                   4.99622300   -0.61513300   -0.15878400
| 65> C                   5.12061800   -1.81533400    0.55075900
| 66> C                   6.15731400   -0.10665800   -0.75284500
| 67> C                   6.33356000   -2.46754400    0.65993700
| 68> H                   4.25311400   -2.24109700    1.03991800
| 69> C                   7.36972600   -0.76023100   -0.64523100
| 70> H                   6.10827700    0.81363400   -1.32176500
| 71> C                   7.49237300   -1.95876900    0.06486100
| 72> H                   6.37902200   -3.40011200    1.20913700
| 73> H                   8.24394800   -0.32251900   -1.11171900
| 74> C                   8.78420000   -2.65393100    0.18251400
| 75> C                   9.07794900   -3.44917900    1.29583200
| 76> C                   9.75987900   -2.54184700   -0.81413500
| 77> C                  10.29363900   -4.10328900    1.40754900
| 78> H                   8.35222100   -3.53907100    2.09481600
| 79> C                  10.97536700   -3.19651900   -0.70245900
| 80> H                   9.55468500   -1.95128900   -1.69857500
| 81> C                  11.24996400   -3.98098900    0.40916200
| 82> H                  10.49829400   -4.70586000    2.28397400
| 83> H                  11.70972900   -3.09909200   -1.49261200
| 84> H                  12.20023400   -4.49240600    0.49639800
| 85> C                  -4.99813800   -0.61356900   -0.18563200
| 86> C                  -5.13037100   -1.96265200   -0.53456200
| 87> C                  -6.15048600    0.04193900    0.26367600
| 88> C                  -6.34314300   -2.61744300   -0.43965100
| 89> H                  -4.26952500   -2.50786200   -0.90194900
| 90> C                  -7.36247100   -0.61417800    0.36146100
| 91> H                  -6.09367700    1.08344200    0.55593700
| 92> C                  -7.49280100   -1.96200500    0.01218400
| 93> H                  -6.39615600   -3.66509000   -0.70991700
| 94> H                  -8.23060800   -0.06453300    0.70464100
| 95> C                  -8.78344100   -2.66127700    0.11644100
| 96> C                  -9.09611700   -3.73103200   -0.72957600
| 97> C                  -9.73782300   -2.27980800    1.06579800
| 98> C                 -10.30994100   -4.39067100   -0.63010000
| 99> H                  -8.38674800   -4.03638100   -1.48900600
|100> C                 -10.95112800   -2.94041900    1.16593100
|101> H                  -9.51685600   -1.46852300    1.74861500
|102> C                 -11.24463600   -3.99985500    0.31861000
|103> H                 -10.52986900   -5.21060100   -1.30272800
|104> H                 -11.66861800   -2.63023800    1.91563600
|105> H                 -12.19304000   -4.51615700    0.39695800
|106> *
|107>
|108>
|109>                          ****END OF INPUT****

CARTESIAN COORDINATES (ANGSTROEM)
---------------------------------
  C      3.636009    1.461357   -0.484979
  C      2.421998    2.104809   -0.587042
  C      1.215419    1.398410   -0.488251
  C      1.255324    0.013155   -0.273451
  C      2.495618   -0.601403   -0.173406
  C      3.708740    0.081940   -0.274003
  C     -0.001484   -0.833218   -0.143052
  C     -1.257097    0.013293   -0.283693
  C     -1.215706    1.399712   -0.490305
  C     -2.421465    2.107977   -0.586325
  H     -2.401946    3.175791   -0.755015
  C     -3.636261    1.465775   -0.484338
  C     -3.710231    0.084462   -0.287649
  C     -2.498045   -0.601241   -0.192689
  H      2.403737    3.174931   -0.740445
  H      2.516437   -1.674962   -0.027859
  H     -4.542688    2.049515   -0.585330
  N      0.000301    2.070783   -0.597642
  C      0.001319    3.491063   -0.772352
  C     -0.000771    4.328432    0.371297
  C      0.004792    4.020257   -2.035907
  C     -0.003648    3.822612    1.689426
  C      0.000509    5.741809    0.172192
  C      0.006088    5.412362   -2.223445
  H      0.006476    3.351589   -2.887893
  C     -0.005343    4.673608    2.762858
  H     -0.004345    2.750233    1.843738
  C     -0.001396    6.586912    1.303494
  C      0.003916    6.253318   -1.143460
  H      0.008786    5.813272   -3.228782
  C     -0.004270    6.066801    2.569720
  H     -0.007438    4.273206    3.768794
  H     -0.000415    7.659171    1.146661
  H      0.004889    7.328035   -1.281443
  H     -0.005619    6.726473    3.428211
  H     -2.519679   -1.669577   -0.012929
  H      4.542485    2.050231   -0.547696
  C      0.000414   -1.918838   -1.229466
  H      0.005141   -1.478042   -2.226815
  H      0.877032   -2.560308   -1.140077
  H     -0.880707   -2.555122   -1.146312
  C     -0.005056   -1.510133    1.236356
  H      0.875361   -2.140299    1.363597
  H     -0.008550   -0.769227    2.036980
  H     -0.883618   -2.143658    1.358744
  C      4.996223   -0.615133   -0.158784
  C      5.120618   -1.815334    0.550759
  C      6.157314   -0.106658   -0.752845
  C      6.333560   -2.467544    0.659937
  H      4.253114   -2.241097    1.039918
  C      7.369726   -0.760231   -0.645231
  H      6.108277    0.813634   -1.321765
  C      7.492373   -1.958769    0.064861
  H      6.379022   -3.400112    1.209137
  H      8.243948   -0.322519   -1.111719
  C      8.784200   -2.653931    0.182514
  C      9.077949   -3.449179    1.295832
  C      9.759879   -2.541847   -0.814135
  C     10.293639   -4.103289    1.407549
  H      8.352221   -3.539071    2.094816
  C     10.975367   -3.196519   -0.702459
  H      9.554685   -1.951289   -1.698575
  C     11.249964   -3.980989    0.409162
  H     10.498294   -4.705860    2.283974
  H     11.709729   -3.099092   -1.492612
  H     12.200234   -4.492406    0.496398
  C     -4.998138   -0.613569   -0.185632
  C     -5.130371   -1.962652   -0.534562
  C     -6.150486    0.041939    0.263676
  C     -6.343143   -2.617443   -0.439651
  H     -4.269525   -2.507862   -0.901949
  C     -7.362471   -0.614178    0.361461
  H     -6.093677    1.083442    0.555937
  C     -7.492801   -1.962005    0.012184
  H     -6.396156   -3.665090   -0.709917
  H     -8.230608   -0.064533    0.704641
  C     -8.783441   -2.661277    0.116441
  C     -9.096117   -3.731032   -0.729576
  C     -9.737823   -2.279808    1.065798
  C    -10.309941   -4.390671   -0.630100
  H     -8.386748   -4.036381   -1.489006
  C    -10.951128   -2.940419    1.165931
  H     -9.516856   -1.468523    1.748615
  C    -11.244636   -3.999855    0.318610
  H    -10.529869   -5.210601   -1.302728
  H    -11.668618   -2.630238    1.915636
  H    -12.193040   -4.516157    0.396958

 Total Charge           Charge          ....    0
 Multiplicity           Mult            ....    1
 Number of Electrons    NEL             ....  338
 Basis Dimension        Dim             .... 1772

ORBITAL ENERGIES
----------------

  NO   OCC          E(Eh)            E(eV)
   0   2.0000     -15.118012      -411.3820
   1   2.0000     -10.876162      -295.9554
   2   2.0000     -10.876113      -295.9541
   3   2.0000     -10.869558      -295.7757
   4   2.0000     -10.843642      -295.0705
   5   2.0000     -10.842046      -295.0271
   6   2.0000     -10.841120      -295.0019
   7   2.0000     -10.839602      -294.9606
   8   2.0000     -10.839594      -294.9603
   9   2.0000     -10.838651      -294.9347
  10   2.0000     -10.838570      -294.9325
  11   2.0000     -10.837041      -294.8909
  12   2.0000     -10.836974      -294.8891
  13   2.0000     -10.831867      -294.7501
  14   2.0000     -10.831550      -294.7415
  15   2.0000     -10.830060      -294.7009
  16   2.0000     -10.830028      -294.7000
  17   2.0000     -10.829872      -294.6958
  18   2.0000     -10.829863      -294.6955
  19   2.0000     -10.829677      -294.6905
  20   2.0000     -10.829448      -294.6843
  21   2.0000     -10.829422      -294.6836
  22   2.0000     -10.828681      -294.6634
  23   2.0000     -10.827770      -294.6386
  24   2.0000     -10.826185      -294.5955
  25   2.0000     -10.826128      -294.5939
  26   2.0000     -10.826017      -294.5909
  27   2.0000     -10.825964      -294.5895
  28   2.0000     -10.825937      -294.5887
  29   2.0000     -10.825867      -294.5868
  30   2.0000     -10.825782      -294.5845
  31   2.0000     -10.825721      -294.5828
  32   2.0000     -10.825083      -294.5655
  33   2.0000     -10.825062      -294.5649
  34   2.0000     -10.825017      -294.5637
  35   2.0000     -10.824943      -294.5617
  36   2.0000     -10.824912      -294.5608
  37   2.0000     -10.824865      -294.5596
  38   2.0000     -10.824223      -294.5421
  39   2.0000     -10.824157      -294.5403
  40   2.0000     -10.824032      -294.5369
  41   2.0000     -10.824013      -294.5364
  42   2.0000     -10.823957      -294.5348
  43   2.0000     -10.823934      -294.5342
  44   2.0000     -10.823652      -294.5265
  45   2.0000     -10.823600      -294.5251
  46   2.0000     -10.820452      -294.4395
  47   2.0000     -10.820358      -294.4369
  48   2.0000     -10.802056      -293.9389
  49   2.0000     -10.801938      -293.9357
  50   2.0000      -1.179452       -32.0945
  51   2.0000      -1.071384       -29.1538
  52   2.0000      -1.064380       -28.9632
  53   2.0000      -1.062421       -28.9099
  54   2.0000      -1.050219       -28.5779
  55   2.0000      -1.047613       -28.5070
  56   2.0000      -1.032607       -28.0987
  57   2.0000      -1.030813       -28.0498
  58   2.0000      -1.005835       -27.3702
  59   2.0000      -0.995473       -27.0882
  60   2.0000      -0.967893       -26.3377
  61   2.0000      -0.957002       -26.0413
  62   2.0000      -0.947196       -25.7745
  63   2.0000      -0.926976       -25.2243
  64   2.0000      -0.921315       -25.0703
  65   2.0000      -0.919862       -25.0307
  66   2.0000      -0.915388       -24.9090
  67   2.0000      -0.914164       -24.8757
  68   2.0000      -0.910846       -24.7854
  69   2.0000      -0.908415       -24.7192
  70   2.0000      -0.907575       -24.6964
  71   2.0000      -0.894337       -24.3361
  72   2.0000      -0.880723       -23.9657
  73   2.0000      -0.876325       -23.8460
  74   2.0000      -0.852946       -23.2098
  75   2.0000      -0.835457       -22.7340
  76   2.0000      -0.794641       -21.6233
  77   2.0000      -0.790827       -21.5195
  78   2.0000      -0.773018       -21.0349
  79   2.0000      -0.766014       -20.8443
  80   2.0000      -0.765432       -20.8285
  81   2.0000      -0.761078       -20.7100
  82   2.0000      -0.756243       -20.5784
  83   2.0000      -0.746121       -20.3030
  84   2.0000      -0.743574       -20.2337
  85   2.0000      -0.737295       -20.0628
  86   2.0000      -0.724314       -19.7096
  87   2.0000      -0.714849       -19.4520
  88   2.0000      -0.714667       -19.4471
  89   2.0000      -0.705343       -19.1934
  90   2.0000      -0.699822       -19.0431
  91   2.0000      -0.668832       -18.1999
  92   2.0000      -0.665343       -18.1049
  93   2.0000      -0.651255       -17.7215
  94   2.0000      -0.646675       -17.5969
  95   2.0000      -0.645175       -17.5561
  96   2.0000      -0.639165       -17.3926
  97   2.0000      -0.618283       -16.8243
  98   2.0000      -0.612544       -16.6682
  99   2.0000      -0.609883       -16.5957
 100   2.0000      -0.599773       -16.3207
 101   2.0000      -0.590318       -16.0634
 102   2.0000      -0.585448       -15.9308
 103   2.0000      -0.584076       -15.8935
 104   2.0000      -0.576125       -15.6772
 105   2.0000      -0.565808       -15.3964
 106   2.0000      -0.563827       -15.3425
 107   2.0000      -0.561851       -15.2887
 108   2.0000      -0.549514       -14.9530
 109   2.0000      -0.548773       -14.9329
 110   2.0000      -0.546492       -14.8708
 111   2.0000      -0.544430       -14.8147
 112   2.0000      -0.539576       -14.6826
 113   2.0000      -0.539052       -14.6684
 114   2.0000      -0.538108       -14.6427
 115   2.0000      -0.536194       -14.5906
 116   2.0000      -0.533815       -14.5259
 117   2.0000      -0.529061       -14.3965
 118   2.0000      -0.527411       -14.3516
 119   2.0000      -0.525454       -14.2983
 120   2.0000      -0.523953       -14.2575
 121   2.0000      -0.520243       -14.1565
 122   2.0000      -0.518670       -14.1137
 123   2.0000      -0.513245       -13.9661
 124   2.0000      -0.513009       -13.9597
 125   2.0000      -0.505110       -13.7447
 126   2.0000      -0.496666       -13.5150
 127   2.0000      -0.490989       -13.3605
 128   2.0000      -0.487382       -13.2623
 129   2.0000      -0.486507       -13.2385
 130   2.0000      -0.484767       -13.1912
 131   2.0000      -0.478483       -13.0202
 132   2.0000      -0.477698       -12.9988
 133   2.0000      -0.476834       -12.9753
 134   2.0000      -0.472107       -12.8467
 135   2.0000      -0.461166       -12.5490
 136   2.0000      -0.458800       -12.4846
 137   2.0000      -0.454940       -12.3795
 138   2.0000      -0.454251       -12.3608
 139   2.0000      -0.450462       -12.2577
 140   2.0000      -0.443519       -12.0688
 141   2.0000      -0.439584       -11.9617
 142   2.0000      -0.438941       -11.9442
 143   2.0000      -0.437909       -11.9161
 144   2.0000      -0.432320       -11.7640
 145   2.0000      -0.432247       -11.7620
 146   2.0000      -0.430136       -11.7046
 147   2.0000      -0.427065       -11.6210
 148   2.0000      -0.419309       -11.4100
 149   2.0000      -0.418734       -11.3943
 150   2.0000      -0.413391       -11.2489
 151   2.0000      -0.408980       -11.1289
 152   2.0000      -0.404450       -11.0057
 153   2.0000      -0.396769       -10.7966
 154   2.0000      -0.360970        -9.8225
 155   2.0000      -0.354860        -9.6562
 156   2.0000      -0.343178        -9.3383
 157   2.0000      -0.314756        -8.5649
 158   2.0000      -0.314043        -8.5455
 159   2.0000      -0.313585        -8.5331
 160   2.0000      -0.311122        -8.4661
 161   2.0000      -0.311033        -8.4636
 162   2.0000      -0.307922        -8.3790
 163   2.0000      -0.303166        -8.2496
 164   2.0000      -0.299824        -8.1586
 165   2.0000      -0.282820        -7.6959
 166   2.0000      -0.270481        -7.3602
 167   2.0000      -0.257560        -7.0086
 168   2.0000      -0.224655        -6.1132
 169   0.0000       0.018390         0.5004
 170   0.0000       0.022834         0.6214
 171   0.0000       0.028327         0.7708
 172   0.0000       0.049374         1.3435
 173   0.0000       0.054053         1.4709

MULLIKEN ATOMIC CHARGES
-----------------------
   0 C :   -0.242196
   1 C :   -0.297226
   2 C :    0.226128
   3 C :   -0.127679
   4 C :   -0.309467
   5 C :    0.153161
   6 C :    0.281043
   7 C :   -0.134448
   8 C :    0.227707
   9 C :   -0.294895
  10 H :    0.165872
  11 C :   -0.243541
  12 C :    0.148477
  13 C :   -0.307354
  14 H :    0.166547
  15 H :    0.173815
  16 H :    0.159297
  17 N :    0.072921
  18 C :    0.208946
  19 C :    0.041045
  20 C :   -0.189137
  21 C :   -0.343425
  22 C :    0.080376
  23 C :   -0.127530
  24 H :    0.161445
  25 C :   -0.107965
  26 H :    0.175087
  27 C :   -0.199024
  28 C :   -0.260814
  29 H :    0.162468
  30 C :   -0.170343
  31 H :    0.163348
  32 H :    0.162845
  33 H :    0.162104
  34 H :    0.162447
  35 H :    0.174114
  36 H :    0.157988
  37 C :   -0.420151
  38 H :    0.127363
  39 H :    0.130433
  40 H :    0.131792
  41 C :   -0.419602
  42 H :    0.132442
  43 H :    0.128116
  44 H :    0.130792
  45 C :    0.091618
  46 C :   -0.242677
  47 C :   -0.233136
  48 C :   -0.239854
  49 H :    0.163864
  50 C :   -0.238172
  51 H :    0.158953
  52 C :    0.226875
  53 H :    0.158575
  54 H :    0.158773
  55 C :    0.102739
  56 C :   -0.251948
  57 C :   -0.255170
  58 C :   -0.170047
  59 H :    0.160852
  60 C :   -0.167398
  61 H :    0.161864
  62 C :   -0.155045
  63 H :    0.160101
  64 H :    0.159599
  65 H :    0.162002
  66 C :    0.099626
  67 C :   -0.248450
  68 C :   -0.231392
  69 C :   -0.241467
  70 H :    0.165919
  71 C :   -0.242110
  72 H :    0.157966
  73 C :    0.227955
  74 H :    0.158396
  75 H :    0.159835
  76 C :    0.103403
  77 C :   -0.253731
  78 C :   -0.255497
  79 C :   -0.168535
  80 H :    0.161943
  81 C :   -0.167214
  82 H :    0.161171
  83 C :   -0.156123
  84 H :    0.160135
  85 H :    0.160001
  86 H :    0.162481
Sum of atomic charges:    0.0000000

LOEWDIN ATOMIC CHARGES
----------------------
   0 C :   -0.105317
   1 C :   -0.124121
   2 C :   -0.122086
   3 C :   -0.067119
   4 C :   -0.058857
   5 C :   -0.127849
   6 C :   -0.230639
   7 C :   -0.067032
   8 C :   -0.122084
   9 C :   -0.123961
  10 H :    0.160995
  11 C :   -0.105618
  12 C :   -0.128109
  13 C :   -0.059040
  14 H :    0.160982
  15 H :    0.160864
  16 H :    0.156042
  17 N :    0.280504
  18 C :   -0.133912
  19 C :   -0.069994
  20 C :   -0.092493
  21 C :   -0.098936
  22 C :   -0.097562
  23 C :   -0.139184
  24 H :    0.160221
  25 C :   -0.138891
  26 H :    0.159572
  27 C :   -0.101617
  28 C :   -0.096017
  29 H :    0.153291
  30 C :   -0.142977
  31 H :    0.152216
  32 H :    0.156230
  33 H :    0.157097
  34 H :    0.151717
  35 H :    0.160947
  36 H :    0.156027
  37 C :   -0.229019
  38 H :    0.122183
  39 H :    0.122282
  40 H :    0.122502
  41 C :   -0.229021
  42 H :    0.122496
  43 H :    0.122348
  44 H :    0.122273
  45 C :   -0.108534
  46 C :   -0.106321
  47 C :   -0.106039
  48 C :   -0.104090
  49 H :    0.155266
  50 C :   -0.104003
  51 H :    0.155276
  52 C :   -0.112419
  53 H :    0.155731
  54 H :    0.155802
  55 C :   -0.109828
  56 C :   -0.106565
  57 C :   -0.106415
  58 C :   -0.146696
  59 H :    0.154680
  60 C :   -0.146618
  61 H :    0.154809
  62 C :   -0.149762
  63 H :    0.150837
  64 H :    0.150794
  65 H :    0.149368
  66 C :   -0.108787
  67 C :   -0.106443
  68 C :   -0.106196
  69 C :   -0.103976
  70 H :    0.155426
  71 C :   -0.103908
  72 H :    0.155167
  73 C :   -0.112351
  74 H :    0.155795
  75 H :    0.155870
  76 C :   -0.109847
  77 C :   -0.106538
  78 C :   -0.106417
  79 C :   -0.146635
  80 H :    0.154811
  81 C :   -0.146608
  82 H :    0.154824
  83 C :   -0.149880
  84 H :    0.150854
  85 H :    0.150831
  86 H :    0.149397

  Mayer bond orders larger than 0.100000
B(  0-C ,  1-C ) :   1.4626 B(  0-C ,  5-C ) :   1.3405 B(  0-C , 36-H ) :   0.9758
B(  1-C ,  2-C ) :   1.3462 B(  1-C , 14-H ) :   0.9882 B(  2-C ,  3-C ) :   1.2547
B(  2-C , 17-N ) :   1.1122 B(  3-C ,  4-C ) :   1.3821 B(  3-C ,  6-C ) :   0.9836
B(  4-C ,  5-C ) :   1.4134 B(  4-C , 15-H ) :   0.9513 B(  5-C , 45-C ) :   0.9144
B(  6-C ,  7-C ) :   0.9797 B(  6-C , 37-C ) :   0.8782 B(  6-C , 41-C ) :   0.8718
B(  7-C ,  8-C ) :   1.2570 B(  7-C , 13-C ) :   1.3768 B(  8-C ,  9-C ) :   1.3451
B(  8-C , 17-N ) :   1.1119 B(  9-C , 10-H ) :   0.9893 B(  9-C , 11-C ) :   1.4624
B( 11-C , 12-C ) :   1.3404 B( 11-C , 16-H ) :   0.9743 B( 12-C , 13-C ) :   1.4149
B( 12-C , 66-C ) :   0.9150 B( 13-C , 35-H ) :   0.9517 B( 17-N , 18-C ) :   0.7051
B( 18-C , 19-C ) :   1.1570 B( 18-C , 20-C ) :   1.6527 B( 18-C , 21-C ) :  -0.1117
B( 18-C , 22-C ) :  -0.1206 B( 19-C , 21-C ) :   1.2705 B( 19-C , 22-C ) :   1.2952
B( 20-C , 23-C ) :   1.2386 B( 20-C , 24-H ) :   0.9870 B( 21-C , 25-C ) :   1.5671
B( 21-C , 26-H ) :   0.9714 B( 22-C , 27-C ) :   1.2615 B( 22-C , 28-C ) :   1.2312
B( 23-C , 28-C ) :   1.5100 B( 23-C , 29-H ) :   0.9919 B( 25-C , 30-C ) :   1.2345
B( 25-C , 31-H ) :   0.9847 B( 27-C , 30-C ) :   1.5386 B( 27-C , 32-H ) :   0.9841
B( 28-C , 33-H ) :   0.9920 B( 30-C , 34-H ) :   0.9851 B( 37-C , 38-H ) :   0.9876
B( 37-C , 39-H ) :   0.9790 B( 37-C , 40-H ) :   0.9793 B( 41-C , 42-H ) :   0.9787
B( 41-C , 43-H ) :   0.9873 B( 41-C , 44-H ) :   0.9780 B( 45-C , 46-C ) :   1.3764
B( 45-C , 47-C ) :   1.3771 B( 46-C , 48-C ) :   1.4668 B( 46-C , 49-H ) :   0.9694
B( 47-C , 50-C ) :   1.4635 B( 47-C , 51-H ) :   0.9755 B( 48-C , 52-C ) :   1.3636
B( 48-C , 53-H ) :   0.9775 B( 50-C , 52-C ) :   1.3622 B( 50-C , 54-H ) :   0.9781
B( 52-C , 55-C ) :   0.9023 B( 55-C , 56-C ) :   1.3811 B( 55-C , 57-C ) :   1.3836
B( 56-C , 58-C ) :   1.4561 B( 56-C , 59-H ) :   0.9707 B( 57-C , 60-C ) :   1.4558
B( 57-C , 61-H ) :   0.9699 B( 58-C , 62-C ) :   1.4020 B( 58-C , 63-H ) :   0.9815
B( 60-C , 62-C ) :   1.4009 B( 60-C , 64-H ) :   0.9822 B( 62-C , 65-H ) :   0.9777
B( 66-C , 67-C ) :   1.3730 B( 66-C , 68-C ) :   1.3711 B( 67-C , 69-C ) :   1.4683
B( 67-C , 70-H ) :   0.9691 B( 68-C , 71-C ) :   1.4656 B( 68-C , 72-H ) :   0.9757
B( 69-C , 73-C ) :   1.3636 B( 69-C , 74-H ) :   0.9777 B( 71-C , 73-C ) :   1.3634
B( 71-C , 75-H ) :   0.9773 B( 73-C , 76-C ) :   0.9045 B( 76-C , 77-C ) :   1.3841
B( 76-C , 78-C ) :   1.3816 B( 77-C , 79-C ) :   1.4554 B( 77-C , 80-H ) :   0.9696
B( 78-C , 81-C ) :   1.4536 B( 78-C , 82-H ) :   0.9717 B( 79-C , 83-C ) :   1.4012
B( 79-C , 84-H ) :   0.9817 B( 81-C , 83-C ) :   1.4024 B( 81-C , 85-H ) :   0.9816
B( 83-C , 86-H ) :   0.9773

MP2 TOTAL ENERGY:    -1942.373913277 Eh

-----------------------------------------------------------------------------
         ABSORPTION SPECTRUM VIA TRANSITION ELECTRIC DIPOLE MOMENTS
-----------------------------------------------------------------------------
State   Energy    Wavelength  fosc         T2        TX        TY        TZ
        (cm-1)      (nm)                 (au**2)    (au)      (au)      (au)
-----------------------------------------------------------------------------
   1   24459.3    408.8   1.628193464  21.91482   4.68117  -0.03039   0.02243
   2   30418.9    328.7   0.583410140   6.31401   0.04429   2.50176  -0.23072
   3   15174.8    659.0   0.000272205   0.00591   0.07671  -0.00113   0.00444
   4   35119.9    284.7   0.111689483   1.04697  -0.01402  -1.02041   0.07436
   5   26111.6    383.0   0.072663875   0.91614  -0.03743  -0.95147   0.09720
   6   25833.5    387.1   0.095382225   1.21551   1.10045  -0.03845   0.05518
   7   28867.4    346.4   0.000256033   0.00292   0.01810   0.02699   0.04317
   8   34729.2    287.9   0.191158166   1.81206   1.34603   0.01585  -0.00168
   9   29768.1    335.9   0.012700637   0.14046  -0.00757   0.37144  -0.04934
  10   29436.8    339.7   0.000351964   0.00394  -0.05584  -0.00540  -0.02808
  11   34612.5    288.9   0.004300969   0.04091   0.00187   0.11325   0.16757
  12   32673.5    306.1   0.000068888   0.00069   0.02049   0.01656   0.00044
  13   34236.9    292.1   0.004241014   0.04078  -0.00060   0.14142   0.14415
  14   22648.9    441.5   0.000723737   0.01052   0.10211  -0.00612   0.00742
  15   28903.9    346.0   0.012747275   0.14519   0.00438  -0.24413  -0.29253
  16   38665.7    258.6   1.039902357   8.85405  -0.00262   0.87454   2.84416
  17   38732.2    258.2   0.042903932   0.36467   0.40980   0.09565   0.43312
  18   36011.8    277.7   0.010125067   0.09256  -0.06781  -0.29654  -0.00519
  19   42521.1    235.2   0.042505528   0.32909   0.51769  -0.08561  -0.23186
  20   32137.5    311.2   0.227737882   2.33292   1.52697   0.00197   0.03570
  21   49065.3    203.8   0.102820323   0.68989   0.04703  -0.80637   0.19352
  22   34842.1    287.0   0.062901923   0.59434   0.74086   0.02483  -0.21177
  23   36030.1    277.5   0.108468585   0.99109   0.86700   0.01988   0.48888
  24   31933.3    313.2   0.104667334   1.07905   0.03233   0.74701   0.72110
  25   44551.5    224.5   0.835385326   6.17306   0.00052  -2.36907   0.74871
  26   38302.4    261.1   0.066422708   0.57091   0.09298   0.31808   0.67903
  27   37850.0    264.2   1.314313667  11.43165   3.38018  -0.06159  -0.04766
  28   34583.8    289.2   0.065793735   0.62631  -0.59117  -0.21188   0.48159
  29   39132.4    255.5   0.522066515   4.39203   0.32415  -2.06684  -0.12293
  30   39132.7    255.5   0.348404793   2.93103   1.02326   0.01425  -1.37250

Dispersion correction           -0.088844187
FINAL SINGLE POINT ENERGY     -1938.479384558905

DIPOLE MOMENT
-------------
                                X             Y             Z
Electronic contribution:      0.00183      13.13494      -2.77515
Nuclear contribution   :     -0.00023     -12.48099       2.75842
                        -----------------------------------------
Total Dipole Moment    :      0.00160       0.65395      -0.01673
                        -----------------------------------------
Magnitude (a.u.)       :      0.65417
Magnitude (Debye)      :      1.66276

Rotational constants in cm-1:     0.002521     0.000716     0.000583
Rotational constants in MHz :    75.585985    21.461045    17.478918

                             ****ORCA TERMINATED NORMALLY****
TOTAL RUN TIME: 0 days 15 hours 51 minutes 19 seconds 366 msec
