                         Program Version 5.0.2 -  RELEASE  -
|  1> %maxcore 20000
|  2> %pal
|  3>  nprocs= 6
|  4> end
|  5> ! RI-SCS-PBE-QIDH   def2-TZVP def2/J def2-TZVP/C RIJCOSX CPCM TightSCF
|  6> %TDDFT
|  7>    NROOTS   30
|  8>    dcorr 4
|  9>    doscs true
| 10>    TDA      FALSE
| 11> END
| 12>
| 13> %CPCM
| 14>    SMD          TRUE
| 15>    SMDsolvent   "N,N-DIMETHYLFORMAMIDE"
| 16> END
| 17>
| 18>
| 19> * xyz 0 1
| 20> C                   3.63600900    1.46135700   -0.48497900
| 21> C                   2.42199800    2.10480900   -0.58704200
| 22> C                   1.21541900    1.39841000   -0.48825100
| 23> C                   1.25532400    0.01315500   -0.27345100
| 24> C                   2.49561800   -0.60140300   -0.17340600
| 25> C                   3.70874000    0.08194000   -0.27400300
| 26> C                  -0.00148400   -0.83321800   -0.14305200
| 27> C                  -1.25709700    0.01329300   -0.28369300
| 28> C                  -1.21570600    1.39971200   -0.49030500
| 29> C                  -2.42146500    2.10797700   -0.58632500
| 30> H                  -2.40194600    3.17579100   -0.75501500
| 31> C                  -3.63626100    1.46577500   -0.48433800
| 32> C                  -3.71023100    0.08446200   -0.28764900
| 33> C                  -2.49804500   -0.60124100   -0.19268900
| 34> H                   2.40373700    3.17493100   -0.74044500
| 35> H                   2.51643700   -1.67496200   -0.02785900
| 36> H                  -4.54268800    2.04951500   -0.58533000
| 37> N                   0.00030100    2.07078300   -0.59764200
| 38> C                   0.00131900    3.49106300   -0.77235200
| 39> C                  -0.00077100    4.32843200    0.37129700
| 40> C                   0.00479200    4.02025700   -2.03590700
| 41> C                  -0.00364800    3.82261200    1.68942600
| 42> C                   0.00050900    5.74180900    0.17219200
| 43> C                   0.00608800    5.41236200   -2.22344500
| 44> H                   0.00647600    3.35158900   -2.88789300
| 45> C                  -0.00534300    4.67360800    2.76285800
| 46> H                  -0.00434500    2.75023300    1.84373800
| 47> C                  -0.00139600    6.58691200    1.30349400
| 48> C                   0.00391600    6.25331800   -1.14346000
| 49> H                   0.00878600    5.81327200   -3.22878200
| 50> C                  -0.00427000    6.06680100    2.56972000
| 51> H                  -0.00743800    4.27320600    3.76879400
| 52> H                  -0.00041500    7.65917100    1.14666100
| 53> H                   0.00488900    7.32803500   -1.28144300
| 54> H                  -0.00561900    6.72647300    3.42821100
| 55> H                  -2.51967900   -1.66957700   -0.01292900
| 56> H                   4.54248500    2.05023100   -0.54769600
| 57> C                   0.00041400   -1.91883800   -1.22946600
| 58> H                   0.00514100   -1.47804200   -2.22681500
| 59> H                   0.87703200   -2.56030800   -1.14007700
| 60> H                  -0.88070700   -2.55512200   -1.14631200
| 61> C                  -0.00505600   -1.51013300    1.23635600
| 62> H                   0.87536100   -2.14029900    1.36359700
| 63> H                  -0.00855000   -0.76922700    2.03698000
| 64> H                  -0.88361800   -2.14365800    1.35874400
| 65> C                   4.99622300   -0.61513300   -0.15878400
| 66> C                   5.12061800   -1.81533400    0.55075900
| 67> C                   6.15731400   -0.10665800   -0.75284500
| 68> C                   6.33356000   -2.46754400    0.65993700
| 69> H                   4.25311400   -2.24109700    1.03991800
| 70> C                   7.36972600   -0.76023100   -0.64523100
| 71> H                   6.10827700    0.81363400   -1.32176500
| 72> C                   7.49237300   -1.95876900    0.06486100
| 73> H                   6.37902200   -3.40011200    1.20913700
| 74> H                   8.24394800   -0.32251900   -1.11171900
| 75> C                   8.78420000   -2.65393100    0.18251400
| 76> C                   9.07794900   -3.44917900    1.29583200
| 77> C                   9.75987900   -2.54184700   -0.81413500
| 78> C                  10.29363900   -4.10328900    1.40754900
| 79> H                   8.35222100   -3.53907100    2.09481600
| 80> C                  10.97536700   -3.19651900   -0.70245900
| 81> H                   9.55468500   -1.95128900   -1.69857500
| 82> C                  11.24996400   -3.98098900    0.40916200
| 83> H                  10.49829400   -4.70586000    2.28397400
| 84> H                  11.70972900   -3.09909200   -1.49261200
| 85> H                  12.20023400   -4.49240600    0.49639800
| 86> C                  -4.99813800   -0.61356900   -0.18563200
| 87> C                  -5.13037100   -1.96265200   -0.53456200
| 88> C                  -6.15048600    0.04193900    0.26367600
| 89> C                  -6.34314300   -2.61744300   -0.43965100
| 90> H                  -4.26952500   -2.50786200   -0.90194900
| 91> C                  -7.36247100   -0.61417800    0.36146100
| 92> H                  -6.09367700    1.08344200    0.55593700
| 93> C                  -7.49280100   -1.96200500    0.01218400
| 94> H                  -6.39615600   -3.66509000   -0.70991700
| 95> H                  -8.23060800   -0.06453300    0.70464100
| 96> C                  -8.78344100   -2.66127700    0.11644100
| 97> C                  -9.09611700   -3.73103200   -0.72957600
| 98> C                  -9.73782300   -2.27980800    1.06579800
| 99> C                 -10.30994100   -4.39067100   -0.63010000
|100> H                  -8.38674800   -4.03638100   -1.48900600
|101> C                 -10.95112800   -2.94041900    1.16593100
|102> H                  -9.51685600   -1.46852300    1.74861500
|103> C                 -11.24463600   -3.99985500    0.31861000
|104> H                 -10.52986900   -5.21060100   -1.30272800
|105> H                 -11.66861800   -2.63023800    1.91563600
|106> H                 -12.19304000   -4.51615700    0.39695800
|107> *
|108>
|109>
|110>                          ****END OF INPUT****

CARTESIAN COORDINATES (ANGSTROEM)
---------------------------------
  C      3.636009    1.461357   -0.484979
  C      2.421998    2.104809   -0.587042
  C      1.215419    1.398410   -0.488251
  C      1.255324    0.013155   -0.273451
  C      2.495618   -0.601403   -0.173406
  C      3.708740    0.081940   -0.274003
  C     -0.001484   -0.833218   -0.143052
  C     -1.257097    0.013293   -0.283693
  C     -1.215706    1.399712   -0.490305
  C     -2.421465    2.107977   -0.586325
  H     -2.401946    3.175791   -0.755015
  C     -3.636261    1.465775   -0.484338
  C     -3.710231    0.084462   -0.287649
  C     -2.498045   -0.601241   -0.192689
  H      2.403737    3.174931   -0.740445
  H      2.516437   -1.674962   -0.027859
  H     -4.542688    2.049515   -0.585330
  N      0.000301    2.070783   -0.597642
  C      0.001319    3.491063   -0.772352
  C     -0.000771    4.328432    0.371297
  C      0.004792    4.020257   -2.035907
  C     -0.003648    3.822612    1.689426
  C      0.000509    5.741809    0.172192
  C      0.006088    5.412362   -2.223445
  H      0.006476    3.351589   -2.887893
  C     -0.005343    4.673608    2.762858
  H     -0.004345    2.750233    1.843738
  C     -0.001396    6.586912    1.303494
  C      0.003916    6.253318   -1.143460
  H      0.008786    5.813272   -3.228782
  C     -0.004270    6.066801    2.569720
  H     -0.007438    4.273206    3.768794
  H     -0.000415    7.659171    1.146661
  H      0.004889    7.328035   -1.281443
  H     -0.005619    6.726473    3.428211
  H     -2.519679   -1.669577   -0.012929
  H      4.542485    2.050231   -0.547696
  C      0.000414   -1.918838   -1.229466
  H      0.005141   -1.478042   -2.226815
  H      0.877032   -2.560308   -1.140077
  H     -0.880707   -2.555122   -1.146312
  C     -0.005056   -1.510133    1.236356
  H      0.875361   -2.140299    1.363597
  H     -0.008550   -0.769227    2.036980
  H     -0.883618   -2.143658    1.358744
  C      4.996223   -0.615133   -0.158784
  C      5.120618   -1.815334    0.550759
  C      6.157314   -0.106658   -0.752845
  C      6.333560   -2.467544    0.659937
  H      4.253114   -2.241097    1.039918
  C      7.369726   -0.760231   -0.645231
  H      6.108277    0.813634   -1.321765
  C      7.492373   -1.958769    0.064861
  H      6.379022   -3.400112    1.209137
  H      8.243948   -0.322519   -1.111719
  C      8.784200   -2.653931    0.182514
  C      9.077949   -3.449179    1.295832
  C      9.759879   -2.541847   -0.814135
  C     10.293639   -4.103289    1.407549
  H      8.352221   -3.539071    2.094816
  C     10.975367   -3.196519   -0.702459
  H      9.554685   -1.951289   -1.698575
  C     11.249964   -3.980989    0.409162
  H     10.498294   -4.705860    2.283974
  H     11.709729   -3.099092   -1.492612
  H     12.200234   -4.492406    0.496398
  C     -4.998138   -0.613569   -0.185632
  C     -5.130371   -1.962652   -0.534562
  C     -6.150486    0.041939    0.263676
  C     -6.343143   -2.617443   -0.439651
  H     -4.269525   -2.507862   -0.901949
  C     -7.362471   -0.614178    0.361461
  H     -6.093677    1.083442    0.555937
  C     -7.492801   -1.962005    0.012184
  H     -6.396156   -3.665090   -0.709917
  H     -8.230608   -0.064533    0.704641
  C     -8.783441   -2.661277    0.116441
  C     -9.096117   -3.731032   -0.729576
  C     -9.737823   -2.279808    1.065798
  C    -10.309941   -4.390671   -0.630100
  H     -8.386748   -4.036381   -1.489006
  C    -10.951128   -2.940419    1.165931
  H     -9.516856   -1.468523    1.748615
  C    -11.244636   -3.999855    0.318610
  H    -10.529869   -5.210601   -1.302728
  H    -11.668618   -2.630238    1.915636
  H    -12.193040   -4.516157    0.396958

 Total Charge           Charge          ....    0
 Multiplicity           Mult            ....    1
 Number of Electrons    NEL             ....  338
 Basis Dimension        Dim             .... 1772

ORBITAL ENERGIES
----------------

  NO   OCC          E(Eh)            E(eV)
   0   2.0000     -15.118418      -411.3931
   1   2.0000     -10.872076      -295.8442
   2   2.0000     -10.872032      -295.8430
   3   2.0000     -10.865684      -295.6703
   4   2.0000     -10.840224      -294.9775
   5   2.0000     -10.837930      -294.9151
   6   2.0000     -10.836797      -294.8842
   7   2.0000     -10.834997      -294.8352
   8   2.0000     -10.834987      -294.8350
   9   2.0000     -10.834500      -294.8217
  10   2.0000     -10.834430      -294.8198
  11   2.0000     -10.832855      -294.7770
  12   2.0000     -10.832796      -294.7754
  13   2.0000     -10.826769      -294.6114
  14   2.0000     -10.826742      -294.6106
  15   2.0000     -10.826740      -294.6106
  16   2.0000     -10.826385      -294.6009
  17   2.0000     -10.825580      -294.5790
  18   2.0000     -10.825563      -294.5785
  19   2.0000     -10.824428      -294.5476
  20   2.0000     -10.824366      -294.5460
  21   2.0000     -10.824186      -294.5411
  22   2.0000     -10.823225      -294.5149
  23   2.0000     -10.822136      -294.4853
  24   2.0000     -10.820738      -294.4472
  25   2.0000     -10.820672      -294.4454
  26   2.0000     -10.820592      -294.4433
  27   2.0000     -10.820533      -294.4417
  28   2.0000     -10.820421      -294.4386
  29   2.0000     -10.820370      -294.4372
  30   2.0000     -10.820319      -294.4358
  31   2.0000     -10.820273      -294.4346
  32   2.0000     -10.820266      -294.4344
  33   2.0000     -10.820133      -294.4308
  34   2.0000     -10.819508      -294.4138
  35   2.0000     -10.819460      -294.4125
  36   2.0000     -10.819268      -294.4073
  37   2.0000     -10.819223      -294.4060
  38   2.0000     -10.819219      -294.4059
  39   2.0000     -10.819178      -294.4048
  40   2.0000     -10.819117      -294.4032
  41   2.0000     -10.819059      -294.4016
  42   2.0000     -10.818927      -294.3980
  43   2.0000     -10.818843      -294.3957
  44   2.0000     -10.818259      -294.3798
  45   2.0000     -10.818186      -294.3778
  46   2.0000     -10.815722      -294.3108
  47   2.0000     -10.815632      -294.3083
  48   2.0000     -10.794944      -293.7453
  49   2.0000     -10.794817      -293.7419
  50   2.0000      -1.192982       -32.4627
  51   2.0000      -1.083832       -29.4926
  52   2.0000      -1.076701       -29.2985
  53   2.0000      -1.074618       -29.2418
  54   2.0000      -1.062487       -28.9117
  55   2.0000      -1.059830       -28.8394
  56   2.0000      -1.044682       -28.4272
  57   2.0000      -1.042895       -28.3786
  58   2.0000      -1.017642       -27.6915
  59   2.0000      -1.007508       -27.4157
  60   2.0000      -0.979605       -26.6564
  61   2.0000      -0.968513       -26.3546
  62   2.0000      -0.958570       -26.0840
  63   2.0000      -0.938388       -25.5348
  64   2.0000      -0.932365       -25.3709
  65   2.0000      -0.930699       -25.3256
  66   2.0000      -0.926377       -25.2080
  67   2.0000      -0.925074       -25.1725
  68   2.0000      -0.921578       -25.0774
  69   2.0000      -0.919255       -25.0142
  70   2.0000      -0.918604       -24.9965
  71   2.0000      -0.905316       -24.6349
  72   2.0000      -0.891532       -24.2598
  73   2.0000      -0.887193       -24.1418
  74   2.0000      -0.863646       -23.5010
  75   2.0000      -0.845378       -23.0039
  76   2.0000      -0.805631       -21.9223
  77   2.0000      -0.801825       -21.8188
  78   2.0000      -0.783273       -21.3139
  79   2.0000      -0.776183       -21.1210
  80   2.0000      -0.775680       -21.1073
  81   2.0000      -0.771241       -20.9865
  82   2.0000      -0.766282       -20.8516
  83   2.0000      -0.756314       -20.5804
  84   2.0000      -0.753943       -20.5158
  85   2.0000      -0.747197       -20.3323
  86   2.0000      -0.733963       -19.9721
  87   2.0000      -0.724551       -19.7160
  88   2.0000      -0.724375       -19.7112
  89   2.0000      -0.715162       -19.4606
  90   2.0000      -0.709786       -19.3142
  91   2.0000      -0.678707       -18.4685
  92   2.0000      -0.676349       -18.4044
  93   2.0000      -0.661466       -17.9994
  94   2.0000      -0.656729       -17.8705
  95   2.0000      -0.655066       -17.8252
  96   2.0000      -0.648391       -17.6436
  97   2.0000      -0.627568       -17.0770
  98   2.0000      -0.622171       -16.9301
  99   2.0000      -0.619169       -16.8484
 100   2.0000      -0.609162       -16.5761
 101   2.0000      -0.598828       -16.2949
 102   2.0000      -0.593954       -16.1623
 103   2.0000      -0.593132       -16.1400
 104   2.0000      -0.584906       -15.9161
 105   2.0000      -0.574768       -15.6402
 106   2.0000      -0.572877       -15.5888
 107   2.0000      -0.570728       -15.5303
 108   2.0000      -0.557833       -15.1794
 109   2.0000      -0.556676       -15.1479
 110   2.0000      -0.554372       -15.0852
 111   2.0000      -0.552854       -15.0439
 112   2.0000      -0.547639       -14.9020
 113   2.0000      -0.547247       -14.8914
 114   2.0000      -0.546734       -14.8774
 115   2.0000      -0.544335       -14.8121
 116   2.0000      -0.542001       -14.7486
 117   2.0000      -0.536480       -14.5984
 118   2.0000      -0.534683       -14.5495
 119   2.0000      -0.533993       -14.5307
 120   2.0000      -0.531849       -14.4724
 121   2.0000      -0.528316       -14.3762
 122   2.0000      -0.526722       -14.3328
 123   2.0000      -0.520650       -14.1676
 124   2.0000      -0.520434       -14.1617
 125   2.0000      -0.512505       -13.9460
 126   2.0000      -0.504297       -13.7226
 127   2.0000      -0.501049       -13.6342
 128   2.0000      -0.498528       -13.5656
 129   2.0000      -0.495183       -13.4746
 130   2.0000      -0.493333       -13.4243
 131   2.0000      -0.488194       -13.2844
 132   2.0000      -0.487966       -13.2782
 133   2.0000      -0.485070       -13.1994
 134   2.0000      -0.479280       -13.0419
 135   2.0000      -0.469287       -12.7699
 136   2.0000      -0.468121       -12.7382
 137   2.0000      -0.465128       -12.6568
 138   2.0000      -0.461928       -12.5697
 139   2.0000      -0.457560       -12.4508
 140   2.0000      -0.453402       -12.3377
 141   2.0000      -0.447329       -12.1724
 142   2.0000      -0.446092       -12.1388
 143   2.0000      -0.444431       -12.0936
 144   2.0000      -0.438813       -11.9407
 145   2.0000      -0.438725       -11.9383
 146   2.0000      -0.436742       -11.8844
 147   2.0000      -0.434181       -11.8147
 148   2.0000      -0.425542       -11.5796
 149   2.0000      -0.425230       -11.5711
 150   2.0000      -0.424057       -11.5392
 151   2.0000      -0.419436       -11.4134
 152   2.0000      -0.412043       -11.2123
 153   2.0000      -0.403594       -10.9823
 154   2.0000      -0.372312       -10.1311
 155   2.0000      -0.366047        -9.9607
 156   2.0000      -0.354264        -9.6400
 157   2.0000      -0.325788        -8.8652
 158   2.0000      -0.324826        -8.8390
 159   2.0000      -0.324524        -8.8307
 160   2.0000      -0.321869        -8.7585
 161   2.0000      -0.321765        -8.7557
 162   2.0000      -0.319117        -8.6836
 163   2.0000      -0.314034        -8.5453
 164   2.0000      -0.310973        -8.4620
 165   2.0000      -0.293685        -7.9916
 166   2.0000      -0.281282        -7.6541
 167   2.0000      -0.268757        -7.3133
 168   2.0000      -0.235356        -6.4044
 169   0.0000       0.008012         0.2180
 170   0.0000       0.012988         0.3534
 171   0.0000       0.018349         0.4993
 172   0.0000       0.039766         1.0821
 173   0.0000       0.045039         1.2256

MULLIKEN ATOMIC CHARGES
-----------------------
   0 C :   -0.255397
   1 C :   -0.323956
   2 C :    0.229900
   3 C :   -0.149287
   4 C :   -0.329421
   5 C :    0.169490
   6 C :    0.255594
   7 C :   -0.156788
   8 C :    0.231267
   9 C :   -0.321362
  10 H :    0.174576
  11 C :   -0.256504
  12 C :    0.164994
  13 C :   -0.327248
  14 H :    0.175221
  15 H :    0.186751
  16 H :    0.169446
  17 N :    0.152536
  18 C :    0.143982
  19 C :    0.075535
  20 C :   -0.179843
  21 C :   -0.368698
  22 C :    0.096706
  23 C :   -0.136959
  24 H :    0.170880
  25 C :   -0.107540
  26 H :    0.180301
  27 C :   -0.225386
  28 C :   -0.289998
  29 H :    0.172122
  30 C :   -0.176316
  31 H :    0.172528
  32 H :    0.173972
  33 H :    0.172705
  34 H :    0.172227
  35 H :    0.187227
  36 H :    0.168093
  37 C :   -0.439169
  38 H :    0.142513
  39 H :    0.145070
  40 H :    0.146244
  41 C :   -0.438086
  42 H :    0.146867
  43 H :    0.143033
  44 H :    0.145456
  45 C :    0.093049
  46 C :   -0.255275
  47 C :   -0.247005
  48 C :   -0.253208
  49 H :    0.172024
  50 C :   -0.252411
  51 H :    0.169132
  52 C :    0.239445
  53 H :    0.169181
  54 H :    0.169401
  55 C :    0.100867
  56 C :   -0.265032
  57 C :   -0.268323
  58 C :   -0.180261
  59 H :    0.171372
  60 C :   -0.177548
  61 H :    0.172368
  62 C :   -0.160864
  63 H :    0.169735
  64 H :    0.169196
  65 H :    0.171644
  66 C :    0.100537
  67 C :   -0.260772
  68 C :   -0.245294
  69 C :   -0.255200
  70 H :    0.174227
  71 C :   -0.256080
  72 H :    0.168276
  73 C :    0.240104
  74 H :    0.169019
  75 H :    0.170547
  76 C :    0.101576
  77 C :   -0.266561
  78 C :   -0.268605
  79 C :   -0.178810
  80 H :    0.172477
  81 C :   -0.177499
  82 H :    0.171707
  83 C :   -0.161800
  84 H :    0.169717
  85 H :    0.169553
  86 H :    0.172120
Sum of atomic charges:   -0.0000000

LOEWDIN ATOMIC CHARGES
----------------------
   0 C :   -0.106690
   1 C :   -0.125546
   2 C :   -0.126060
   3 C :   -0.069986
   4 C :   -0.060813
   5 C :   -0.131675
   6 C :   -0.238207
   7 C :   -0.069903
   8 C :   -0.126066
   9 C :   -0.125395
  10 H :    0.164821
  11 C :   -0.106992
  12 C :   -0.131918
  13 C :   -0.060992
  14 H :    0.164810
  15 H :    0.164690
  16 H :    0.159988
  17 N :    0.283509
  18 C :   -0.140754
  19 C :   -0.073475
  20 C :   -0.093912
  21 C :   -0.101518
  22 C :   -0.101171
  23 C :   -0.141006
  24 H :    0.164409
  25 C :   -0.140726
  26 H :    0.163154
  27 C :   -0.103672
  28 C :   -0.097469
  29 H :    0.157101
  30 C :   -0.145115
  31 H :    0.155960
  32 H :    0.160045
  33 H :    0.160966
  34 H :    0.155436
  35 H :    0.164789
  36 H :    0.159958
  37 C :   -0.236270
  38 H :    0.126684
  39 H :    0.126517
  40 H :    0.126700
  41 C :   -0.236240
  42 H :    0.126708
  43 H :    0.126807
  44 H :    0.126523
  45 C :   -0.112937
  46 C :   -0.107964
  47 C :   -0.107684
  48 C :   -0.106029
  49 H :    0.159005
  50 C :   -0.105957
  51 H :    0.159077
  52 C :   -0.116491
  53 H :    0.159524
  54 H :    0.159596
  55 C :   -0.114739
  56 C :   -0.108708
  57 C :   -0.108567
  58 C :   -0.149570
  59 H :    0.158339
  60 C :   -0.149486
  61 H :    0.158468
  62 C :   -0.151899
  63 H :    0.154488
  64 H :    0.154446
  65 H :    0.153026
  66 C :   -0.113177
  67 C :   -0.108066
  68 C :   -0.107850
  69 C :   -0.105928
  70 H :    0.159176
  71 C :   -0.105857
  72 H :    0.158983
  73 C :   -0.116449
  74 H :    0.159589
  75 H :    0.159661
  76 C :   -0.114760
  77 C :   -0.108696
  78 C :   -0.108564
  79 C :   -0.149508
  80 H :    0.158468
  81 C :   -0.149480
  82 H :    0.158483
  83 C :   -0.152012
  84 H :    0.154506
  85 H :    0.154479
  86 H :    0.153056

  Mayer bond orders larger than 0.100000
B(  0-C ,  1-C ) :   1.4610 B(  0-C ,  5-C ) :   1.3375 B(  0-C , 36-H ) :   0.9727
B(  1-C ,  2-C ) :   1.3446 B(  1-C , 14-H ) :   0.9856 B(  2-C ,  3-C ) :   1.2679
B(  2-C , 17-N ) :   1.1165 B(  3-C ,  4-C ) :   1.3623 B(  3-C ,  6-C ) :   0.9951
B(  4-C ,  5-C ) :   1.4038 B(  4-C , 15-H ) :   0.9458 B(  5-C , 45-C ) :   0.9040
B(  6-C ,  7-C ) :   0.9913 B(  6-C , 37-C ) :   0.8826 B(  6-C , 41-C ) :   0.8752
B(  7-C ,  8-C ) :   1.2701 B(  7-C , 13-C ) :   1.3573 B(  8-C ,  9-C ) :   1.3439
B(  8-C , 17-N ) :   1.1162 B(  9-C , 10-H ) :   0.9867 B(  9-C , 11-C ) :   1.4608
B( 11-C , 12-C ) :   1.3376 B( 11-C , 16-H ) :   0.9711 B( 12-C , 13-C ) :   1.4053
B( 12-C , 66-C ) :   0.9046 B( 13-C , 35-H ) :   0.9460 B( 17-N , 18-C ) :   0.7302
B( 18-C , 19-C ) :   1.1715 B( 18-C , 20-C ) :   1.6757 B( 18-C , 21-C ) :  -0.1236
B( 18-C , 22-C ) :  -0.1231 B( 19-C , 21-C ) :   1.2801 B( 19-C , 22-C ) :   1.2929
B( 20-C , 23-C ) :   1.2417 B( 20-C , 24-H ) :   0.9807 B( 21-C , 25-C ) :   1.5630
B( 21-C , 26-H ) :   0.9746 B( 22-C , 27-C ) :   1.2623 B( 22-C , 28-C ) :   1.2324
B( 23-C , 28-C ) :   1.4994 B( 23-C , 29-H ) :   0.9869 B( 25-C , 30-C ) :   1.2339
B( 25-C , 31-H ) :   0.9802 B( 27-C , 30-C ) :   1.5327 B( 27-C , 32-H ) :   0.9843
B( 28-C , 33-H ) :   0.9941 B( 30-C , 34-H ) :   0.9809 B( 37-C , 38-H ) :   0.9817
B( 37-C , 39-H ) :   0.9696 B( 37-C , 40-H ) :   0.9696 B( 41-C , 42-H ) :   0.9690
B( 41-C , 43-H ) :   0.9813 B( 41-C , 44-H ) :   0.9686 B( 45-C , 46-C ) :   1.3754
B( 45-C , 47-C ) :   1.3747 B( 46-C , 48-C ) :   1.4699 B( 46-C , 49-H ) :   0.9671
B( 47-C , 50-C ) :   1.4662 B( 47-C , 51-H ) :   0.9722 B( 48-C , 52-C ) :   1.3625
B( 48-C , 53-H ) :   0.9735 B( 50-C , 52-C ) :   1.3616 B( 50-C , 54-H ) :   0.9739
B( 52-C , 55-C ) :   0.8959 B( 55-C , 56-C ) :   1.3828 B( 55-C , 57-C ) :   1.3849
B( 56-C , 58-C ) :   1.4606 B( 56-C , 59-H ) :   0.9678 B( 57-C , 60-C ) :   1.4601
B( 57-C , 61-H ) :   0.9671 B( 58-C , 62-C ) :   1.4040 B( 58-C , 63-H ) :   0.9765
B( 60-C , 62-C ) :   1.4029 B( 60-C , 64-H ) :   0.9773 B( 62-C , 65-H ) :   0.9739
B( 66-C , 67-C ) :   1.3722 B( 66-C , 68-C ) :   1.3690 B( 67-C , 69-C ) :   1.4715
B( 67-C , 70-H ) :   0.9666 B( 68-C , 71-C ) :   1.4681 B( 68-C , 72-H ) :   0.9722
B( 69-C , 73-C ) :   1.3629 B( 69-C , 74-H ) :   0.9736 B( 71-C , 73-C ) :   1.3630
B( 71-C , 75-H ) :   0.9730 B( 73-C , 76-C ) :   0.8980 B( 76-C , 77-C ) :   1.3854
B( 76-C , 78-C ) :   1.3831 B( 77-C , 79-C ) :   1.4597 B( 77-C , 80-H ) :   0.9666
B( 78-C , 81-C ) :   1.4580 B( 78-C , 82-H ) :   0.9687 B( 79-C , 83-C ) :   1.4032
B( 79-C , 84-H ) :   0.9768 B( 81-C , 83-C ) :   1.4043 B( 81-C , 85-H ) :   0.9767
B( 83-C , 86-H ) :   0.9735

MP2 TOTAL ENERGY:    -1942.387103319 Eh

-----------------------------------------------------------------------------
         ABSORPTION SPECTRUM VIA TRANSITION ELECTRIC DIPOLE MOMENTS
-----------------------------------------------------------------------------
State   Energy    Wavelength  fosc         T2        TX        TY        TZ
        (cm-1)      (nm)                 (au**2)    (au)      (au)      (au)
-----------------------------------------------------------------------------
   1   28458.6    351.4   1.901712804  21.99922   4.69019  -0.02904   0.02218
   2   32869.8    304.2   0.629661518   6.30645  -0.04060  -2.50061   0.22754
   3   29008.2    344.7   0.000550742   0.00625   0.07674   0.01892   0.00200
   4   35203.8    284.1   0.173121881   1.61897  -0.02288  -1.26847   0.09711
   5   33408.5    299.3   0.049473754   0.48752   0.03075   0.69287  -0.08062
   6   32848.0    304.4   0.133390605   1.33688   1.15448  -0.03623   0.05235
   7   33540.5    298.1   0.000250264   0.00246  -0.02032  -0.02739  -0.03596
   8   37843.8    264.2   0.232988981   2.02683   1.42357   0.01640  -0.00074
   9   35743.6    279.8   0.012977409   0.11953   0.00715  -0.34251   0.04647
  10   35823.1    279.1   0.000148978   0.00137  -0.02402  -0.00449  -0.02779
  11   38965.9    256.6   0.003195419   0.02700   0.00223   0.08792   0.13879
  12   38179.2    261.9   0.000138326   0.00119   0.00334   0.01731   0.02970
  13   39591.4    252.6   0.006077858   0.05054   0.00026   0.12725   0.18533
  14   36930.8    270.8   0.000727555   0.00649  -0.07976   0.00482  -0.01003
  15   40815.4    245.0   0.006722831   0.05423   0.00424  -0.15979  -0.16934
  16   44295.2    225.8   1.211451287   9.00377   0.00508  -0.86850  -2.87219
  17   43677.9    228.9   0.052869918   0.39849  -0.46060  -0.08945  -0.42231
  18   43444.5    230.2   0.010887943   0.08251  -0.06236  -0.28002  -0.01442
  19   45988.5    217.4   0.074364911   0.53235  -0.70753   0.05949   0.16794
  20   43008.9    232.5   0.212820888   1.62904  -1.27602   0.00162  -0.02840
  21   47938.6    208.6   0.174193920   1.19625  -0.06978   1.07752  -0.17414
  22   45222.9    221.1   0.170227702   1.23922  -1.08476  -0.11994  -0.21940
  23   45065.1    221.9   0.031175869   0.22775   0.45429  -0.05285   0.13629
  24   43551.6    229.6   0.119048220   0.89990  -0.01393   0.58243   0.74865
  25   48174.5    207.6   0.811645834   5.54658  -0.02088  -2.28839   0.55626
  26   45456.6    220.0   0.800507747   5.79755  -2.33845   0.37059  -0.43803
  27   45598.8    219.3   0.825440406   5.95948   2.37029   0.33231  -0.48041
  28   47000.4    212.8   0.645954861   4.52456  -1.19222  -0.52948   1.68012
  29   46954.8    213.0   0.642918788   4.50766   0.46951  -2.03570  -0.37833
  30   49586.9    201.7   0.028553648   0.18957  -0.08597  -0.39884   0.15201

FINAL SINGLE POINT ENERGY     -1939.330883669808

DIPOLE MOMENT
-------------
                                X             Y             Z
Electronic contribution:      0.00197      13.13347      -2.76864
Nuclear contribution   :     -0.00023     -12.48099       2.75842
                        -----------------------------------------
Total Dipole Moment    :      0.00173       0.65248      -0.01022
                        -----------------------------------------
Magnitude (a.u.)       :      0.65256
Magnitude (Debye)      :      1.65867

Rotational constants in cm-1:     0.002521     0.000716     0.000583
Rotational constants in MHz :    75.585985    21.461045    17.478918

                             ****ORCA TERMINATED NORMALLY****
TOTAL RUN TIME: 7 days 17 hours 35 minutes 46 seconds 11 msec
