                         Program Version 5.0.2 -  RELEASE  -
|  1> %maxcore 12000
|  2> %pal
|  3>  nprocs= 8
|  4> end
|  5> ! RI-wPBEPP86   def2-TZVP def2/J def2-TZVP/C RIJCOSX CPCM TightSCF
|  6> %TDDFT
|  7>    NROOTS   30
|  8>    dcorr 1
|  9>    TDA      FALSE
| 10> END
| 11>
| 12> %CPCM
| 13>    SMD          TRUE
| 14>    SMDsolvent   "N,N-DIMETHYLFORMAMIDE"
| 15> END
| 16>
| 17>
| 18> * xyz 0 1
| 19> C                   3.63600900    1.46135700   -0.48497900
| 20> C                   2.42199800    2.10480900   -0.58704200
| 21> C                   1.21541900    1.39841000   -0.48825100
| 22> C                   1.25532400    0.01315500   -0.27345100
| 23> C                   2.49561800   -0.60140300   -0.17340600
| 24> C                   3.70874000    0.08194000   -0.27400300
| 25> C                  -0.00148400   -0.83321800   -0.14305200
| 26> C                  -1.25709700    0.01329300   -0.28369300
| 27> C                  -1.21570600    1.39971200   -0.49030500
| 28> C                  -2.42146500    2.10797700   -0.58632500
| 29> H                  -2.40194600    3.17579100   -0.75501500
| 30> C                  -3.63626100    1.46577500   -0.48433800
| 31> C                  -3.71023100    0.08446200   -0.28764900
| 32> C                  -2.49804500   -0.60124100   -0.19268900
| 33> H                   2.40373700    3.17493100   -0.74044500
| 34> H                   2.51643700   -1.67496200   -0.02785900
| 35> H                  -4.54268800    2.04951500   -0.58533000
| 36> N                   0.00030100    2.07078300   -0.59764200
| 37> C                   0.00131900    3.49106300   -0.77235200
| 38> C                  -0.00077100    4.32843200    0.37129700
| 39> C                   0.00479200    4.02025700   -2.03590700
| 40> C                  -0.00364800    3.82261200    1.68942600
| 41> C                   0.00050900    5.74180900    0.17219200
| 42> C                   0.00608800    5.41236200   -2.22344500
| 43> H                   0.00647600    3.35158900   -2.88789300
| 44> C                  -0.00534300    4.67360800    2.76285800
| 45> H                  -0.00434500    2.75023300    1.84373800
| 46> C                  -0.00139600    6.58691200    1.30349400
| 47> C                   0.00391600    6.25331800   -1.14346000
| 48> H                   0.00878600    5.81327200   -3.22878200
| 49> C                  -0.00427000    6.06680100    2.56972000
| 50> H                  -0.00743800    4.27320600    3.76879400
| 51> H                  -0.00041500    7.65917100    1.14666100
| 52> H                   0.00488900    7.32803500   -1.28144300
| 53> H                  -0.00561900    6.72647300    3.42821100
| 54> H                  -2.51967900   -1.66957700   -0.01292900
| 55> H                   4.54248500    2.05023100   -0.54769600
| 56> C                   0.00041400   -1.91883800   -1.22946600
| 57> H                   0.00514100   -1.47804200   -2.22681500
| 58> H                   0.87703200   -2.56030800   -1.14007700
| 59> H                  -0.88070700   -2.55512200   -1.14631200
| 60> C                  -0.00505600   -1.51013300    1.23635600
| 61> H                   0.87536100   -2.14029900    1.36359700
| 62> H                  -0.00855000   -0.76922700    2.03698000
| 63> H                  -0.88361800   -2.14365800    1.35874400
| 64> C                   4.99622300   -0.61513300   -0.15878400
| 65> C                   5.12061800   -1.81533400    0.55075900
| 66> C                   6.15731400   -0.10665800   -0.75284500
| 67> C                   6.33356000   -2.46754400    0.65993700
| 68> H                   4.25311400   -2.24109700    1.03991800
| 69> C                   7.36972600   -0.76023100   -0.64523100
| 70> H                   6.10827700    0.81363400   -1.32176500
| 71> C                   7.49237300   -1.95876900    0.06486100
| 72> H                   6.37902200   -3.40011200    1.20913700
| 73> H                   8.24394800   -0.32251900   -1.11171900
| 74> C                   8.78420000   -2.65393100    0.18251400
| 75> C                   9.07794900   -3.44917900    1.29583200
| 76> C                   9.75987900   -2.54184700   -0.81413500
| 77> C                  10.29363900   -4.10328900    1.40754900
| 78> H                   8.35222100   -3.53907100    2.09481600
| 79> C                  10.97536700   -3.19651900   -0.70245900
| 80> H                   9.55468500   -1.95128900   -1.69857500
| 81> C                  11.24996400   -3.98098900    0.40916200
| 82> H                  10.49829400   -4.70586000    2.28397400
| 83> H                  11.70972900   -3.09909200   -1.49261200
| 84> H                  12.20023400   -4.49240600    0.49639800
| 85> C                  -4.99813800   -0.61356900   -0.18563200
| 86> C                  -5.13037100   -1.96265200   -0.53456200
| 87> C                  -6.15048600    0.04193900    0.26367600
| 88> C                  -6.34314300   -2.61744300   -0.43965100
| 89> H                  -4.26952500   -2.50786200   -0.90194900
| 90> C                  -7.36247100   -0.61417800    0.36146100
| 91> H                  -6.09367700    1.08344200    0.55593700
| 92> C                  -7.49280100   -1.96200500    0.01218400
| 93> H                  -6.39615600   -3.66509000   -0.70991700
| 94> H                  -8.23060800   -0.06453300    0.70464100
| 95> C                  -8.78344100   -2.66127700    0.11644100
| 96> C                  -9.09611700   -3.73103200   -0.72957600
| 97> C                  -9.73782300   -2.27980800    1.06579800
| 98> C                 -10.30994100   -4.39067100   -0.63010000
| 99> H                  -8.38674800   -4.03638100   -1.48900600
|100> C                 -10.95112800   -2.94041900    1.16593100
|101> H                  -9.51685600   -1.46852300    1.74861500
|102> C                 -11.24463600   -3.99985500    0.31861000
|103> H                 -10.52986900   -5.21060100   -1.30272800
|104> H                 -11.66861800   -2.63023800    1.91563600
|105> H                 -12.19304000   -4.51615700    0.39695800
|106> *
|107>
|108>
|109>                          ****END OF INPUT****

CARTESIAN COORDINATES (ANGSTROEM)
---------------------------------
  C      3.636009    1.461357   -0.484979
  C      2.421998    2.104809   -0.587042
  C      1.215419    1.398410   -0.488251
  C      1.255324    0.013155   -0.273451
  C      2.495618   -0.601403   -0.173406
  C      3.708740    0.081940   -0.274003
  C     -0.001484   -0.833218   -0.143052
  C     -1.257097    0.013293   -0.283693
  C     -1.215706    1.399712   -0.490305
  C     -2.421465    2.107977   -0.586325
  H     -2.401946    3.175791   -0.755015
  C     -3.636261    1.465775   -0.484338
  C     -3.710231    0.084462   -0.287649
  C     -2.498045   -0.601241   -0.192689
  H      2.403737    3.174931   -0.740445
  H      2.516437   -1.674962   -0.027859
  H     -4.542688    2.049515   -0.585330
  N      0.000301    2.070783   -0.597642
  C      0.001319    3.491063   -0.772352
  C     -0.000771    4.328432    0.371297
  C      0.004792    4.020257   -2.035907
  C     -0.003648    3.822612    1.689426
  C      0.000509    5.741809    0.172192
  C      0.006088    5.412362   -2.223445
  H      0.006476    3.351589   -2.887893
  C     -0.005343    4.673608    2.762858
  H     -0.004345    2.750233    1.843738
  C     -0.001396    6.586912    1.303494
  C      0.003916    6.253318   -1.143460
  H      0.008786    5.813272   -3.228782
  C     -0.004270    6.066801    2.569720
  H     -0.007438    4.273206    3.768794
  H     -0.000415    7.659171    1.146661
  H      0.004889    7.328035   -1.281443
  H     -0.005619    6.726473    3.428211
  H     -2.519679   -1.669577   -0.012929
  H      4.542485    2.050231   -0.547696
  C      0.000414   -1.918838   -1.229466
  H      0.005141   -1.478042   -2.226815
  H      0.877032   -2.560308   -1.140077
  H     -0.880707   -2.555122   -1.146312
  C     -0.005056   -1.510133    1.236356
  H      0.875361   -2.140299    1.363597
  H     -0.008550   -0.769227    2.036980
  H     -0.883618   -2.143658    1.358744
  C      4.996223   -0.615133   -0.158784
  C      5.120618   -1.815334    0.550759
  C      6.157314   -0.106658   -0.752845
  C      6.333560   -2.467544    0.659937
  H      4.253114   -2.241097    1.039918
  C      7.369726   -0.760231   -0.645231
  H      6.108277    0.813634   -1.321765
  C      7.492373   -1.958769    0.064861
  H      6.379022   -3.400112    1.209137
  H      8.243948   -0.322519   -1.111719
  C      8.784200   -2.653931    0.182514
  C      9.077949   -3.449179    1.295832
  C      9.759879   -2.541847   -0.814135
  C     10.293639   -4.103289    1.407549
  H      8.352221   -3.539071    2.094816
  C     10.975367   -3.196519   -0.702459
  H      9.554685   -1.951289   -1.698575
  C     11.249964   -3.980989    0.409162
  H     10.498294   -4.705860    2.283974
  H     11.709729   -3.099092   -1.492612
  H     12.200234   -4.492406    0.496398
  C     -4.998138   -0.613569   -0.185632
  C     -5.130371   -1.962652   -0.534562
  C     -6.150486    0.041939    0.263676
  C     -6.343143   -2.617443   -0.439651
  H     -4.269525   -2.507862   -0.901949
  C     -7.362471   -0.614178    0.361461
  H     -6.093677    1.083442    0.555937
  C     -7.492801   -1.962005    0.012184
  H     -6.396156   -3.665090   -0.709917
  H     -8.230608   -0.064533    0.704641
  C     -8.783441   -2.661277    0.116441
  C     -9.096117   -3.731032   -0.729576
  C     -9.737823   -2.279808    1.065798
  C    -10.309941   -4.390671   -0.630100
  H     -8.386748   -4.036381   -1.489006
  C    -10.951128   -2.940419    1.165931
  H     -9.516856   -1.468523    1.748615
  C    -11.244636   -3.999855    0.318610
  H    -10.529869   -5.210601   -1.302728
  H    -11.668618   -2.630238    1.915636
  H    -12.193040   -4.516157    0.396958

 Total Charge           Charge          ....    0
 Multiplicity           Mult            ....    1
 Number of Electrons    NEL             ....  338
 Basis Dimension        Dim             .... 1772

ORBITAL ENERGIES
----------------

  NO   OCC          E(Eh)            E(eV)
   0   2.0000     -15.167500      -412.7287
   1   2.0000     -10.919008      -297.1213
   2   2.0000     -10.918963      -297.1201
   3   2.0000     -10.911802      -296.9252
   4   2.0000     -10.885805      -296.2178
   5   2.0000     -10.884157      -296.1730
   6   2.0000     -10.882975      -296.1408
   7   2.0000     -10.881216      -296.0929
   8   2.0000     -10.881208      -296.0927
   9   2.0000     -10.880976      -296.0864
  10   2.0000     -10.880905      -296.0845
  11   2.0000     -10.879259      -296.0397
  12   2.0000     -10.879198      -296.0380
  13   2.0000     -10.873194      -295.8747
  14   2.0000     -10.873167      -295.8739
  15   2.0000     -10.872776      -295.8633
  16   2.0000     -10.872429      -295.8538
  17   2.0000     -10.872110      -295.8451
  18   2.0000     -10.872092      -295.8447
  19   2.0000     -10.870398      -295.7986
  20   2.0000     -10.870311      -295.7962
  21   2.0000     -10.870180      -295.7926
  22   2.0000     -10.869231      -295.7668
  23   2.0000     -10.867985      -295.7329
  24   2.0000     -10.867002      -295.7062
  25   2.0000     -10.866936      -295.7044
  26   2.0000     -10.866856      -295.7022
  27   2.0000     -10.866820      -295.7012
  28   2.0000     -10.866795      -295.7005
  29   2.0000     -10.866687      -295.6976
  30   2.0000     -10.866337      -295.6880
  31   2.0000     -10.866286      -295.6867
  32   2.0000     -10.866263      -295.6860
  33   2.0000     -10.866217      -295.6848
  34   2.0000     -10.865994      -295.6787
  35   2.0000     -10.865950      -295.6775
  36   2.0000     -10.865432      -295.6634
  37   2.0000     -10.865399      -295.6625
  38   2.0000     -10.865381      -295.6621
  39   2.0000     -10.865346      -295.6611
  40   2.0000     -10.865214      -295.6575
  41   2.0000     -10.865180      -295.6566
  42   2.0000     -10.865127      -295.6551
  43   2.0000     -10.865123      -295.6550
  44   2.0000     -10.864062      -295.6262
  45   2.0000     -10.863987      -295.6241
  46   2.0000     -10.862094      -295.5726
  47   2.0000     -10.862003      -295.5701
  48   2.0000     -10.840125      -294.9748
  49   2.0000     -10.839997      -294.9713
  50   2.0000      -1.232753       -33.5449
  51   2.0000      -1.123485       -30.5716
  52   2.0000      -1.116462       -30.3805
  53   2.0000      -1.114264       -30.3207
  54   2.0000      -1.102127       -29.9904
  55   2.0000      -1.099367       -29.9153
  56   2.0000      -1.084089       -29.4996
  57   2.0000      -1.082343       -29.4520
  58   2.0000      -1.056721       -28.7548
  59   2.0000      -1.046819       -28.4854
  60   2.0000      -1.018735       -27.7212
  61   2.0000      -1.007411       -27.4131
  62   2.0000      -0.997280       -27.1374
  63   2.0000      -0.977164       -26.5900
  64   2.0000      -0.971048       -26.4236
  65   2.0000      -0.969227       -26.3740
  66   2.0000      -0.964929       -26.2571
  67   2.0000      -0.963355       -26.2142
  68   2.0000      -0.959900       -26.1202
  69   2.0000      -0.957607       -26.0578
  70   2.0000      -0.957055       -26.0428
  71   2.0000      -0.943591       -25.6764
  72   2.0000      -0.929705       -25.2985
  73   2.0000      -0.925399       -25.1814
  74   2.0000      -0.901675       -24.5358
  75   2.0000      -0.882804       -24.0223
  76   2.0000      -0.843547       -22.9541
  77   2.0000      -0.839551       -22.8453
  78   2.0000      -0.820504       -22.3270
  79   2.0000      -0.813412       -22.1341
  80   2.0000      -0.813259       -22.1299
  81   2.0000      -0.808372       -21.9969
  82   2.0000      -0.803531       -21.8652
  83   2.0000      -0.793455       -21.5910
  84   2.0000      -0.790975       -21.5235
  85   2.0000      -0.784201       -21.3392
  86   2.0000      -0.770546       -20.9676
  87   2.0000      -0.761326       -20.7167
  88   2.0000      -0.760933       -20.7060
  89   2.0000      -0.751967       -20.4621
  90   2.0000      -0.746503       -20.3134
  91   2.0000      -0.715470       -19.4689
  92   2.0000      -0.713584       -19.4176
  93   2.0000      -0.697963       -18.9925
  94   2.0000      -0.693357       -18.8672
  95   2.0000      -0.691610       -18.8197
  96   2.0000      -0.684180       -18.6175
  97   2.0000      -0.663653       -18.0589
  98   2.0000      -0.658043       -17.9063
  99   2.0000      -0.655193       -17.8287
 100   2.0000      -0.645324       -17.5602
 101   2.0000      -0.634315       -17.2606
 102   2.0000      -0.629234       -17.1223
 103   2.0000      -0.629000       -17.1160
 104   2.0000      -0.620416       -16.8824
 105   2.0000      -0.610457       -16.6114
 106   2.0000      -0.608582       -16.5604
 107   2.0000      -0.606187       -16.4952
 108   2.0000      -0.593059       -16.1380
 109   2.0000      -0.591814       -16.1041
 110   2.0000      -0.589069       -16.0294
 111   2.0000      -0.588348       -16.0098
 112   2.0000      -0.582436       -15.8489
 113   2.0000      -0.582216       -15.8429
 114   2.0000      -0.581933       -15.8352
 115   2.0000      -0.579389       -15.7660
 116   2.0000      -0.576735       -15.6938
 117   2.0000      -0.571269       -15.5450
 118   2.0000      -0.569421       -15.4947
 119   2.0000      -0.568910       -15.4808
 120   2.0000      -0.566534       -15.4162
 121   2.0000      -0.563105       -15.3229
 122   2.0000      -0.561340       -15.2748
 123   2.0000      -0.554965       -15.1014
 124   2.0000      -0.554765       -15.0959
 125   2.0000      -0.546442       -14.8695
 126   2.0000      -0.538594       -14.6559
 127   2.0000      -0.536891       -14.6096
 128   2.0000      -0.534407       -14.5420
 129   2.0000      -0.530207       -14.4277
 130   2.0000      -0.527518       -14.3545
 131   2.0000      -0.523480       -14.2446
 132   2.0000      -0.523273       -14.2390
 133   2.0000      -0.519141       -14.1266
 134   2.0000      -0.512973       -13.9587
 135   2.0000      -0.504404       -13.7255
 136   2.0000      -0.501709       -13.6522
 137   2.0000      -0.500622       -13.6226
 138   2.0000      -0.495749       -13.4900
 139   2.0000      -0.491351       -13.3704
 140   2.0000      -0.488593       -13.2953
 141   2.0000      -0.480830       -13.0840
 142   2.0000      -0.479592       -13.0504
 143   2.0000      -0.477625       -12.9968
 144   2.0000      -0.472349       -12.8533
 145   2.0000      -0.472250       -12.8506
 146   2.0000      -0.469835       -12.7849
 147   2.0000      -0.467075       -12.7098
 148   2.0000      -0.458757       -12.4834
 149   2.0000      -0.458366       -12.4728
 150   2.0000      -0.458011       -12.4631
 151   2.0000      -0.454030       -12.3548
 152   2.0000      -0.445347       -12.1185
 153   2.0000      -0.436422       -11.8756
 154   2.0000      -0.405392       -11.0313
 155   2.0000      -0.398643       -10.8476
 156   2.0000      -0.386780       -10.5248
 157   2.0000      -0.357246        -9.7211
 158   2.0000      -0.356117        -9.6904
 159   2.0000      -0.355814        -9.6822
 160   2.0000      -0.352987        -9.6053
 161   2.0000      -0.352892        -9.6027
 162   2.0000      -0.350258        -9.5310
 163   2.0000      -0.345496        -9.4014
 164   2.0000      -0.340800        -9.2736
 165   2.0000      -0.324062        -8.8182
 166   2.0000      -0.310719        -8.4551
 167   2.0000      -0.297762        -8.1025
 168   2.0000      -0.264013        -7.1842
 169   0.0000       0.026048         0.7088
 170   0.0000       0.031825         0.8660
 171   0.0000       0.036727         0.9994
 172   0.0000       0.058146         1.5822
 173   0.0000       0.063269         1.7216

MULLIKEN ATOMIC CHARGES
-----------------------
   0 C :   -0.249469
   1 C :   -0.335919
   2 C :    0.225203
   3 C :   -0.153148
   4 C :   -0.304703
   5 C :    0.134092
   6 C :    0.177179
   7 C :   -0.159829
   8 C :    0.227001
   9 C :   -0.333360
  10 H :    0.195143
  11 C :   -0.251119
  12 C :    0.128672
  13 C :   -0.303255
  14 H :    0.195929
  15 H :    0.208154
  16 H :    0.186497
  17 N :    0.100641
  18 C :    0.051477
  19 C :    0.072056
  20 C :   -0.183742
  21 C :   -0.363058
  22 C :    0.082377
  23 C :   -0.145497
  24 H :    0.185220
  25 C :   -0.129826
  26 H :    0.202221
  27 C :   -0.214117
  28 C :   -0.267874
  29 H :    0.186740
  30 C :   -0.194020
  31 H :    0.187039
  32 H :    0.187239
  33 H :    0.186297
  34 H :    0.186515
  35 H :    0.209284
  36 H :    0.185029
  37 C :   -0.456591
  38 H :    0.157660
  39 H :    0.158660
  40 H :    0.159271
  41 C :   -0.455661
  42 H :    0.160094
  43 H :    0.157982
  44 H :    0.159131
  45 C :    0.089390
  46 C :   -0.265027
  47 C :   -0.258509
  48 C :   -0.262088
  49 H :    0.190493
  50 C :   -0.262047
  51 H :    0.186710
  52 C :    0.208468
  53 H :    0.187052
  54 H :    0.187389
  55 C :    0.101449
  56 C :   -0.268580
  57 C :   -0.271607
  58 C :   -0.200934
  59 H :    0.189110
  60 C :   -0.198354
  61 H :    0.190139
  62 C :   -0.175234
  63 H :    0.184736
  64 H :    0.184221
  65 H :    0.186416
  66 C :    0.096751
  67 C :   -0.270905
  68 C :   -0.256468
  69 C :   -0.264037
  70 H :    0.193045
  71 C :   -0.265869
  72 H :    0.186029
  73 C :    0.209239
  74 H :    0.186880
  75 H :    0.188586
  76 C :    0.102048
  77 C :   -0.270372
  78 C :   -0.271995
  79 C :   -0.199254
  80 H :    0.190276
  81 C :   -0.198165
  82 H :    0.189502
  83 C :   -0.176343
  84 H :    0.184762
  85 H :    0.184603
  86 H :    0.186878
Sum of atomic charges:   -0.0000000

LOEWDIN ATOMIC CHARGES
----------------------
   0 C :   -0.107599
   1 C :   -0.127671
   2 C :   -0.126943
   3 C :   -0.071508
   4 C :   -0.062333
   5 C :   -0.132716
   6 C :   -0.241462
   7 C :   -0.071421
   8 C :   -0.126946
   9 C :   -0.127515
  10 H :    0.167205
  11 C :   -0.107902
  12 C :   -0.132981
  13 C :   -0.062531
  14 H :    0.167192
  15 H :    0.166629
  16 H :    0.162656
  17 N :    0.282085
  18 C :   -0.144087
  19 C :   -0.074961
  20 C :   -0.095957
  21 C :   -0.104401
  22 C :   -0.102551
  23 C :   -0.143013
  24 H :    0.167338
  25 C :   -0.142298
  26 H :    0.165378
  27 C :   -0.105432
  28 C :   -0.099031
  29 H :    0.159875
  30 C :   -0.147269
  31 H :    0.158761
  32 H :    0.162786
  33 H :    0.163726
  34 H :    0.158187
  35 H :    0.166749
  36 H :    0.162619
  37 C :   -0.241092
  38 H :    0.129313
  39 H :    0.128804
  40 H :    0.128925
  41 C :   -0.241025
  42 H :    0.128932
  43 H :    0.129377
  44 H :    0.128806
  45 C :   -0.114054
  46 C :   -0.109675
  47 C :   -0.109459
  48 C :   -0.107776
  49 H :    0.161496
  50 C :   -0.107714
  51 H :    0.161631
  52 C :   -0.117732
  53 H :    0.162089
  54 H :    0.162165
  55 C :   -0.116189
  56 C :   -0.111058
  57 C :   -0.110909
  58 C :   -0.151557
  59 H :    0.160781
  60 C :   -0.151478
  61 H :    0.160913
  62 C :   -0.154067
  63 H :    0.157243
  64 H :    0.157202
  65 H :    0.155751
  66 C :   -0.114319
  67 C :   -0.109780
  68 C :   -0.109615
  69 C :   -0.107672
  70 H :    0.161677
  71 C :   -0.107615
  72 H :    0.161544
  73 C :   -0.117696
  74 H :    0.162155
  75 H :    0.162229
  76 C :   -0.116210
  77 C :   -0.111056
  78 C :   -0.110912
  79 C :   -0.151491
  80 H :    0.160915
  81 C :   -0.151469
  82 H :    0.160928
  83 C :   -0.154188
  84 H :    0.157261
  85 H :    0.157236
  86 H :    0.155780

  Mayer bond orders larger than 0.100000
B(  0-C ,  1-C ) :   1.4919 B(  0-C ,  5-C ) :   1.3409 B(  0-C , 36-H ) :   0.9542
B(  1-C ,  2-C ) :   1.3309 B(  1-C , 14-H ) :   0.9749 B(  2-C ,  3-C ) :   1.3022
B(  2-C , 17-N ) :   1.1170 B(  3-C ,  4-C ) :   1.4036 B(  3-C ,  6-C ) :   0.9754
B(  4-C ,  5-C ) :   1.4254 B(  4-C , 15-H ) :   0.9150 B(  5-C , 45-C ) :   0.9153
B(  6-C ,  7-C ) :   0.9711 B(  6-C , 37-C ) :   0.9144 B(  6-C , 41-C ) :   0.9080
B(  7-C ,  8-C ) :   1.3053 B(  7-C , 13-C ) :   1.3976 B(  8-C ,  9-C ) :   1.3291
B(  8-C , 17-N ) :   1.1169 B(  9-C , 10-H ) :   0.9761 B(  9-C , 11-C ) :   1.4929
B( 11-C , 12-C ) :   1.3410 B( 11-C , 16-H ) :   0.9525 B( 12-C , 13-C ) :   1.4273
B( 12-C , 66-C ) :   0.9159 B( 13-C , 35-H ) :   0.9151 B( 17-N , 18-C ) :   0.7352
B( 18-C , 19-C ) :   1.1648 B( 18-C , 20-C ) :   1.6859 B( 18-C , 21-C ) :  -0.1013
B( 18-C , 22-C ) :  -0.1112 B( 19-C , 21-C ) :   1.2607 B( 19-C , 22-C ) :   1.2916
B( 20-C , 23-C ) :   1.2285 B( 20-C , 24-H ) :   0.9779 B( 21-C , 25-C ) :   1.5723
B( 21-C , 26-H ) :   0.9616 B( 22-C , 27-C ) :   1.2610 B( 22-C , 28-C ) :   1.2344
B( 23-C , 28-C ) :   1.5078 B( 23-C , 29-H ) :   0.9831 B( 25-C , 30-C ) :   1.2298
B( 25-C , 31-H ) :   0.9768 B( 27-C , 30-C ) :   1.5359 B( 27-C , 32-H ) :   0.9715
B( 28-C , 33-H ) :   0.9774 B( 30-C , 34-H ) :   0.9783 B( 37-C , 38-H ) :   0.9787
B( 37-C , 39-H ) :   0.9675 B( 37-C , 40-H ) :   0.9670 B( 41-C , 42-H ) :   0.9665
B( 41-C , 43-H ) :   0.9778 B( 41-C , 44-H ) :   0.9666 B( 45-C , 46-C ) :   1.3767
B( 45-C , 47-C ) :   1.3740 B( 46-C , 48-C ) :   1.4874 B( 46-C , 49-H ) :   0.9531
B( 47-C , 50-C ) :   1.4835 B( 47-C , 51-H ) :   0.9599 B( 48-C , 52-C ) :   1.3646
B( 48-C , 53-H ) :   0.9608 B( 50-C , 52-C ) :   1.3638 B( 50-C , 54-H ) :   0.9613
B( 52-C , 55-C ) :   0.9072 B( 55-C , 56-C ) :   1.3766 B( 55-C , 57-C ) :   1.3786
B( 56-C , 58-C ) :   1.4602 B( 56-C , 59-H ) :   0.9589 B( 57-C , 60-C ) :   1.4597
B( 57-C , 61-H ) :   0.9581 B( 58-C , 62-C ) :   1.4003 B( 58-C , 63-H ) :   0.9736
B( 60-C , 62-C ) :   1.3991 B( 60-C , 64-H ) :   0.9744 B( 62-C , 65-H ) :   0.9717
B( 66-C , 67-C ) :   1.3731 B( 66-C , 68-C ) :   1.3683 B( 67-C , 69-C ) :   1.4890
B( 67-C , 70-H ) :   0.9526 B( 68-C , 71-C ) :   1.4856 B( 68-C , 72-H ) :   0.9598
B( 69-C , 73-C ) :   1.3647 B( 69-C , 74-H ) :   0.9611 B( 71-C , 73-C ) :   1.3653
B( 71-C , 75-H ) :   0.9605 B( 73-C , 76-C ) :   0.9094 B( 76-C , 77-C ) :   1.3791
B( 76-C , 78-C ) :   1.3765 B( 77-C , 79-C ) :   1.4595 B( 77-C , 80-H ) :   0.9577
B( 78-C , 81-C ) :   1.4578 B( 78-C , 82-H ) :   0.9598 B( 79-C , 83-C ) :   1.3994
B( 79-C , 84-H ) :   0.9738 B( 81-C , 83-C ) :   1.4006 B( 81-C , 85-H ) :   0.9737
B( 83-C , 86-H ) :   0.9714

MP2 TOTAL ENERGY:    -1943.456078145 Eh

-----------------------------------------------------------------------------
         ABSORPTION SPECTRUM VIA TRANSITION ELECTRIC DIPOLE MOMENTS
-----------------------------------------------------------------------------
State   Energy    Wavelength  fosc         T2        TX        TY        TZ
        (cm-1)      (nm)                 (au**2)    (au)      (au)      (au)
-----------------------------------------------------------------------------
   1   30117.6    332.0   1.969735376  21.53095   4.63998  -0.03163   0.02249
   2   34528.5    289.6   0.657529413   6.26921  -0.04732  -2.49323   0.22530
   3   37252.3    268.4   0.089557369   0.79145  -0.00465   0.88797  -0.05428
   4   33562.7    297.9   0.121357083   1.19037   0.00621   1.08531  -0.11155
   5   31187.5    320.6   0.039279401   0.41463  -0.63395  -0.11153  -0.01710
   6   33157.4    301.6   0.083578687   0.82983   0.90689  -0.07969   0.03221
   7   34990.8    285.8   0.008781097   0.08262  -0.28131  -0.02558  -0.05316
   8   39257.4    254.7   0.199853893   1.67597   1.29447   0.01766  -0.00063
   9   37499.8    266.7   0.011304541   0.09924   0.01111  -0.31224   0.04030
  10   37651.9    265.6   0.000753233   0.00659   0.07425   0.00717   0.03195
  11   40121.2    249.2   0.000112458   0.00092   0.00048   0.02479   0.01754
  12   40086.8    249.5   0.000099277   0.00082   0.01783   0.00795   0.02084
  13   43743.4    228.6   0.013452407   0.10124   0.00587   0.21341   0.23594
  14   44774.1    223.3   1.242830067   9.13819   0.03120   0.92338   2.87830
  15   39379.6    253.9   0.080302683   0.67133   0.09005  -0.24555  -0.77648
  16   46648.2    214.4   0.034700465   0.24489   0.45527   0.04612   0.18839
  17   45525.1    219.7   0.008226908   0.05949   0.18891   0.13639   0.07213
  18   46315.2    215.9   0.029788334   0.21174  -0.33396   0.12864   0.28924
  19   50600.0    197.6   0.057041508   0.37112   0.00397  -0.56689   0.22304
  20   44554.7    224.4   0.308546156   2.27983  -0.09377   1.36446  -0.63975
  21   49089.0    203.7   1.920413856  12.87912   3.58864   0.02670   0.00682
  22   46715.1    214.1   0.246645910   1.73817  -1.26830  -0.09151  -0.34817
  23   45699.4    218.8   0.043358509   0.31235   0.02378  -0.52417   0.19242
  24   47732.2    209.5   0.834875402   5.75819   0.01672  -2.37228   0.36085
  25   50600.2    197.6   0.008809180   0.05731   0.05191  -0.13253  -0.19250
  26   48688.7    205.4   0.425046666   2.87398   0.95049  -0.20673  -1.38846
  27   50658.3    197.4   0.351752085   2.28592   0.30691   1.25029  -0.79279
  28   48754.1    205.1   0.866428254   5.85055   0.55778  -2.34060  -0.24701
  29   50620.2    197.5   1.005060074   6.53647   2.44733   0.39779  -0.62355
  30   49465.2    202.2   0.288243339   1.91838  -0.68261   0.13364  -1.19773

FINAL SINGLE POINT ENERGY     -1939.257664025270

DIPOLE MOMENT
-------------
                                X             Y             Z
Electronic contribution:      0.00229      13.11281      -2.76547
Nuclear contribution   :     -0.00023     -12.48099       2.75842
                        -----------------------------------------
Total Dipole Moment    :      0.00206       0.63182      -0.00705
                        -----------------------------------------
Magnitude (a.u.)       :      0.63186
Magnitude (Debye)      :      1.60607

Rotational constants in cm-1:     0.002521     0.000716     0.000583
Rotational constants in MHz :    75.585985    21.461045    17.478918

                             ****ORCA TERMINATED NORMALLY****
TOTAL RUN TIME: 1 days 10 hours 0 minutes 0 seconds 347 msec
