                         Program Version 5.0.2 -  RELEASE  -
|  1> %maxcore 3200
|  2> %pal
|  3>  nprocs= 8
|  4> end
|  5> ! RI-wB2PLYP def2-TZVP def2/J def2-TZVP/C RIJCOSX CPCM TightSCF
|  6> %TDDFT DCORR 1
|  7>    NROOTS   30
|  8>
|  9>    TDA      FALSE
| 10> END
| 11>
| 12> %CPCM
| 13>    SMD          TRUE
| 14>    SMDsolvent   "N,N-DIMETHYLFORMAMIDE"
| 15> END
| 16>
| 17>
| 18> * xyz 0 1
| 19> C                   3.63600900    1.46135700   -0.48497900
| 20> C                   2.42199800    2.10480900   -0.58704200
| 21> C                   1.21541900    1.39841000   -0.48825100
| 22> C                   1.25532400    0.01315500   -0.27345100
| 23> C                   2.49561800   -0.60140300   -0.17340600
| 24> C                   3.70874000    0.08194000   -0.27400300
| 25> C                  -0.00148400   -0.83321800   -0.14305200
| 26> C                  -1.25709700    0.01329300   -0.28369300
| 27> C                  -1.21570600    1.39971200   -0.49030500
| 28> C                  -2.42146500    2.10797700   -0.58632500
| 29> H                  -2.40194600    3.17579100   -0.75501500
| 30> C                  -3.63626100    1.46577500   -0.48433800
| 31> C                  -3.71023100    0.08446200   -0.28764900
| 32> C                  -2.49804500   -0.60124100   -0.19268900
| 33> H                   2.40373700    3.17493100   -0.74044500
| 34> H                   2.51643700   -1.67496200   -0.02785900
| 35> H                  -4.54268800    2.04951500   -0.58533000
| 36> N                   0.00030100    2.07078300   -0.59764200
| 37> C                   0.00131900    3.49106300   -0.77235200
| 38> C                  -0.00077100    4.32843200    0.37129700
| 39> C                   0.00479200    4.02025700   -2.03590700
| 40> C                  -0.00364800    3.82261200    1.68942600
| 41> C                   0.00050900    5.74180900    0.17219200
| 42> C                   0.00608800    5.41236200   -2.22344500
| 43> H                   0.00647600    3.35158900   -2.88789300
| 44> C                  -0.00534300    4.67360800    2.76285800
| 45> H                  -0.00434500    2.75023300    1.84373800
| 46> C                  -0.00139600    6.58691200    1.30349400
| 47> C                   0.00391600    6.25331800   -1.14346000
| 48> H                   0.00878600    5.81327200   -3.22878200
| 49> C                  -0.00427000    6.06680100    2.56972000
| 50> H                  -0.00743800    4.27320600    3.76879400
| 51> H                  -0.00041500    7.65917100    1.14666100
| 52> H                   0.00488900    7.32803500   -1.28144300
| 53> H                  -0.00561900    6.72647300    3.42821100
| 54> H                  -2.51967900   -1.66957700   -0.01292900
| 55> H                   4.54248500    2.05023100   -0.54769600
| 56> C                   0.00041400   -1.91883800   -1.22946600
| 57> H                   0.00514100   -1.47804200   -2.22681500
| 58> H                   0.87703200   -2.56030800   -1.14007700
| 59> H                  -0.88070700   -2.55512200   -1.14631200
| 60> C                  -0.00505600   -1.51013300    1.23635600
| 61> H                   0.87536100   -2.14029900    1.36359700
| 62> H                  -0.00855000   -0.76922700    2.03698000
| 63> H                  -0.88361800   -2.14365800    1.35874400
| 64> C                   4.99622300   -0.61513300   -0.15878400
| 65> C                   5.12061800   -1.81533400    0.55075900
| 66> C                   6.15731400   -0.10665800   -0.75284500
| 67> C                   6.33356000   -2.46754400    0.65993700
| 68> H                   4.25311400   -2.24109700    1.03991800
| 69> C                   7.36972600   -0.76023100   -0.64523100
| 70> H                   6.10827700    0.81363400   -1.32176500
| 71> C                   7.49237300   -1.95876900    0.06486100
| 72> H                   6.37902200   -3.40011200    1.20913700
| 73> H                   8.24394800   -0.32251900   -1.11171900
| 74> C                   8.78420000   -2.65393100    0.18251400
| 75> C                   9.07794900   -3.44917900    1.29583200
| 76> C                   9.75987900   -2.54184700   -0.81413500
| 77> C                  10.29363900   -4.10328900    1.40754900
| 78> H                   8.35222100   -3.53907100    2.09481600
| 79> C                  10.97536700   -3.19651900   -0.70245900
| 80> H                   9.55468500   -1.95128900   -1.69857500
| 81> C                  11.24996400   -3.98098900    0.40916200
| 82> H                  10.49829400   -4.70586000    2.28397400
| 83> H                  11.70972900   -3.09909200   -1.49261200
| 84> H                  12.20023400   -4.49240600    0.49639800
| 85> C                  -4.99813800   -0.61356900   -0.18563200
| 86> C                  -5.13037100   -1.96265200   -0.53456200
| 87> C                  -6.15048600    0.04193900    0.26367600
| 88> C                  -6.34314300   -2.61744300   -0.43965100
| 89> H                  -4.26952500   -2.50786200   -0.90194900
| 90> C                  -7.36247100   -0.61417800    0.36146100
| 91> H                  -6.09367700    1.08344200    0.55593700
| 92> C                  -7.49280100   -1.96200500    0.01218400
| 93> H                  -6.39615600   -3.66509000   -0.70991700
| 94> H                  -8.23060800   -0.06453300    0.70464100
| 95> C                  -8.78344100   -2.66127700    0.11644100
| 96> C                  -9.09611700   -3.73103200   -0.72957600
| 97> C                  -9.73782300   -2.27980800    1.06579800
| 98> C                 -10.30994100   -4.39067100   -0.63010000
| 99> H                  -8.38674800   -4.03638100   -1.48900600
|100> C                 -10.95112800   -2.94041900    1.16593100
|101> H                  -9.51685600   -1.46852300    1.74861500
|102> C                 -11.24463600   -3.99985500    0.31861000
|103> H                 -10.52986900   -5.21060100   -1.30272800
|104> H                 -11.66861800   -2.63023800    1.91563600
|105> H                 -12.19304000   -4.51615700    0.39695800
|106> *
|107>
|108>
|109>                          ****END OF INPUT****

CARTESIAN COORDINATES (ANGSTROEM)
---------------------------------
  C      3.636009    1.461357   -0.484979
  C      2.421998    2.104809   -0.587042
  C      1.215419    1.398410   -0.488251
  C      1.255324    0.013155   -0.273451
  C      2.495618   -0.601403   -0.173406
  C      3.708740    0.081940   -0.274003
  C     -0.001484   -0.833218   -0.143052
  C     -1.257097    0.013293   -0.283693
  C     -1.215706    1.399712   -0.490305
  C     -2.421465    2.107977   -0.586325
  H     -2.401946    3.175791   -0.755015
  C     -3.636261    1.465775   -0.484338
  C     -3.710231    0.084462   -0.287649
  C     -2.498045   -0.601241   -0.192689
  H      2.403737    3.174931   -0.740445
  H      2.516437   -1.674962   -0.027859
  H     -4.542688    2.049515   -0.585330
  N      0.000301    2.070783   -0.597642
  C      0.001319    3.491063   -0.772352
  C     -0.000771    4.328432    0.371297
  C      0.004792    4.020257   -2.035907
  C     -0.003648    3.822612    1.689426
  C      0.000509    5.741809    0.172192
  C      0.006088    5.412362   -2.223445
  H      0.006476    3.351589   -2.887893
  C     -0.005343    4.673608    2.762858
  H     -0.004345    2.750233    1.843738
  C     -0.001396    6.586912    1.303494
  C      0.003916    6.253318   -1.143460
  H      0.008786    5.813272   -3.228782
  C     -0.004270    6.066801    2.569720
  H     -0.007438    4.273206    3.768794
  H     -0.000415    7.659171    1.146661
  H      0.004889    7.328035   -1.281443
  H     -0.005619    6.726473    3.428211
  H     -2.519679   -1.669577   -0.012929
  H      4.542485    2.050231   -0.547696
  C      0.000414   -1.918838   -1.229466
  H      0.005141   -1.478042   -2.226815
  H      0.877032   -2.560308   -1.140077
  H     -0.880707   -2.555122   -1.146312
  C     -0.005056   -1.510133    1.236356
  H      0.875361   -2.140299    1.363597
  H     -0.008550   -0.769227    2.036980
  H     -0.883618   -2.143658    1.358744
  C      4.996223   -0.615133   -0.158784
  C      5.120618   -1.815334    0.550759
  C      6.157314   -0.106658   -0.752845
  C      6.333560   -2.467544    0.659937
  H      4.253114   -2.241097    1.039918
  C      7.369726   -0.760231   -0.645231
  H      6.108277    0.813634   -1.321765
  C      7.492373   -1.958769    0.064861
  H      6.379022   -3.400112    1.209137
  H      8.243948   -0.322519   -1.111719
  C      8.784200   -2.653931    0.182514
  C      9.077949   -3.449179    1.295832
  C      9.759879   -2.541847   -0.814135
  C     10.293639   -4.103289    1.407549
  H      8.352221   -3.539071    2.094816
  C     10.975367   -3.196519   -0.702459
  H      9.554685   -1.951289   -1.698575
  C     11.249964   -3.980989    0.409162
  H     10.498294   -4.705860    2.283974
  H     11.709729   -3.099092   -1.492612
  H     12.200234   -4.492406    0.496398
  C     -4.998138   -0.613569   -0.185632
  C     -5.130371   -1.962652   -0.534562
  C     -6.150486    0.041939    0.263676
  C     -6.343143   -2.617443   -0.439651
  H     -4.269525   -2.507862   -0.901949
  C     -7.362471   -0.614178    0.361461
  H     -6.093677    1.083442    0.555937
  C     -7.492801   -1.962005    0.012184
  H     -6.396156   -3.665090   -0.709917
  H     -8.230608   -0.064533    0.704641
  C     -8.783441   -2.661277    0.116441
  C     -9.096117   -3.731032   -0.729576
  C     -9.737823   -2.279808    1.065798
  C    -10.309941   -4.390671   -0.630100
  H     -8.386748   -4.036381   -1.489006
  C    -10.951128   -2.940419    1.165931
  H     -9.516856   -1.468523    1.748615
  C    -11.244636   -3.999855    0.318610
  H    -10.529869   -5.210601   -1.302728
  H    -11.668618   -2.630238    1.915636
  H    -12.193040   -4.516157    0.396958

 Total Charge           Charge          ....    0
 Multiplicity           Mult            ....    1
 Number of Electrons    NEL             ....  338
 Basis Dimension        Dim             .... 1772

ORBITAL ENERGIES
----------------

  NO   OCC          E(Eh)            E(eV)
   0   2.0000     -14.941902      -406.5898
   1   2.0000     -10.737055      -292.1701
   2   2.0000     -10.737005      -292.1688
   3   2.0000     -10.730166      -291.9827
   4   2.0000     -10.704543      -291.2854
   5   2.0000     -10.702987      -291.2431
   6   2.0000     -10.702072      -291.2182
   7   2.0000     -10.700348      -291.1713
   8   2.0000     -10.700341      -291.1711
   9   2.0000     -10.699672      -291.1529
  10   2.0000     -10.699595      -291.1508
  11   2.0000     -10.698127      -291.1108
  12   2.0000     -10.698062      -291.1091
  13   2.0000     -10.692272      -290.9515
  14   2.0000     -10.692057      -290.9457
  15   2.0000     -10.691502      -290.9306
  16   2.0000     -10.691471      -290.9297
  17   2.0000     -10.690659      -290.9076
  18   2.0000     -10.690632      -290.9069
  19   2.0000     -10.690244      -290.8963
  20   2.0000     -10.690106      -290.8926
  21   2.0000     -10.689981      -290.8892
  22   2.0000     -10.689090      -290.8649
  23   2.0000     -10.688024      -290.8359
  24   2.0000     -10.686448      -290.7930
  25   2.0000     -10.686385      -290.7913
  26   2.0000     -10.686298      -290.7890
  27   2.0000     -10.686255      -290.7878
  28   2.0000     -10.686241      -290.7874
  29   2.0000     -10.686198      -290.7862
  30   2.0000     -10.686161      -290.7852
  31   2.0000     -10.686109      -290.7838
  32   2.0000     -10.685803      -290.7755
  33   2.0000     -10.685660      -290.7716
  34   2.0000     -10.685375      -290.7638
  35   2.0000     -10.685327      -290.7625
  36   2.0000     -10.685226      -290.7598
  37   2.0000     -10.685176      -290.7584
  38   2.0000     -10.684899      -290.7509
  39   2.0000     -10.684854      -290.7497
  40   2.0000     -10.684709      -290.7457
  41   2.0000     -10.684656      -290.7443
  42   2.0000     -10.684620      -290.7433
  43   2.0000     -10.684603      -290.7428
  44   2.0000     -10.684242      -290.7330
  45   2.0000     -10.684170      -290.7311
  46   2.0000     -10.681312      -290.6533
  47   2.0000     -10.681218      -290.6507
  48   2.0000     -10.661673      -290.1189
  49   2.0000     -10.661556      -290.1157
  50   2.0000      -1.198887       -32.6234
  51   2.0000      -1.094985       -29.7961
  52   2.0000      -1.088004       -29.6061
  53   2.0000      -1.086003       -29.5517
  54   2.0000      -1.074177       -29.2298
  55   2.0000      -1.071576       -29.1591
  56   2.0000      -1.056970       -28.7616
  57   2.0000      -1.055136       -28.7117
  58   2.0000      -1.030667       -28.0459
  59   2.0000      -1.021154       -27.7870
  60   2.0000      -0.993749       -27.0413
  61   2.0000      -0.982900       -26.7461
  62   2.0000      -0.973076       -26.4788
  63   2.0000      -0.953545       -25.9473
  64   2.0000      -0.947726       -25.7889
  65   2.0000      -0.946139       -25.7457
  66   2.0000      -0.941643       -25.6234
  67   2.0000      -0.940254       -25.5856
  68   2.0000      -0.936859       -25.4932
  69   2.0000      -0.934399       -25.4263
  70   2.0000      -0.933981       -25.4149
  71   2.0000      -0.921292       -25.0696
  72   2.0000      -0.907354       -24.6904
  73   2.0000      -0.903110       -24.5749
  74   2.0000      -0.880174       -23.9508
  75   2.0000      -0.864221       -23.5166
  76   2.0000      -0.825800       -22.4712
  77   2.0000      -0.821243       -22.3471
  78   2.0000      -0.803229       -21.8570
  79   2.0000      -0.796794       -21.6819
  80   2.0000      -0.796061       -21.6619
  81   2.0000      -0.791445       -21.5363
  82   2.0000      -0.787099       -21.4180
  83   2.0000      -0.776694       -21.1349
  84   2.0000      -0.775108       -21.0918
  85   2.0000      -0.768010       -20.8986
  86   2.0000      -0.754641       -20.5348
  87   2.0000      -0.745965       -20.2987
  88   2.0000      -0.745048       -20.2738
  89   2.0000      -0.737135       -20.0585
  90   2.0000      -0.731958       -19.9176
  91   2.0000      -0.702055       -19.1039
  92   2.0000      -0.701846       -19.0982
  93   2.0000      -0.686332       -18.6760
  94   2.0000      -0.682630       -18.5753
  95   2.0000      -0.680626       -18.5208
  96   2.0000      -0.671777       -18.2800
  97   2.0000      -0.652721       -17.7614
  98   2.0000      -0.646714       -17.5980
  99   2.0000      -0.644636       -17.5414
 100   2.0000      -0.634677       -17.2704
 101   2.0000      -0.623465       -16.9653
 102   2.0000      -0.618490       -16.8300
 103   2.0000      -0.618444       -16.8287
 104   2.0000      -0.610078       -16.6011
 105   2.0000      -0.600721       -16.3465
 106   2.0000      -0.599573       -16.3152
 107   2.0000      -0.596599       -16.2343
 108   2.0000      -0.584085       -15.8938
 109   2.0000      -0.583024       -15.8649
 110   2.0000      -0.579635       -15.7727
 111   2.0000      -0.579483       -15.7685
 112   2.0000      -0.574417       -15.6307
 113   2.0000      -0.572949       -15.5907
 114   2.0000      -0.572865       -15.5884
 115   2.0000      -0.570572       -15.5261
 116   2.0000      -0.568036       -15.4570
 117   2.0000      -0.563176       -15.3248
 118   2.0000      -0.561616       -15.2823
 119   2.0000      -0.560971       -15.2648
 120   2.0000      -0.558320       -15.1927
 121   2.0000      -0.554584       -15.0910
 122   2.0000      -0.553423       -15.0594
 123   2.0000      -0.547174       -14.8894
 124   2.0000      -0.546972       -14.8839
 125   2.0000      -0.538290       -14.6476
 126   2.0000      -0.532229       -14.4827
 127   2.0000      -0.530217       -14.4279
 128   2.0000      -0.529976       -14.4214
 129   2.0000      -0.524995       -14.2858
 130   2.0000      -0.519596       -14.1389
 131   2.0000      -0.518728       -14.1153
 132   2.0000      -0.517754       -14.0888
 133   2.0000      -0.511877       -13.9289
 134   2.0000      -0.505855       -13.7650
 135   2.0000      -0.500205       -13.6113
 136   2.0000      -0.496903       -13.5214
 137   2.0000      -0.494621       -13.4593
 138   2.0000      -0.488491       -13.2925
 139   2.0000      -0.484904       -13.1949
 140   2.0000      -0.484394       -13.1810
 141   2.0000      -0.474569       -12.9137
 142   2.0000      -0.473428       -12.8826
 143   2.0000      -0.471074       -12.8186
 144   2.0000      -0.465982       -12.6800
 145   2.0000      -0.465702       -12.6724
 146   2.0000      -0.463826       -12.6213
 147   2.0000      -0.461250       -12.5512
 148   2.0000      -0.455203       -12.3867
 149   2.0000      -0.452102       -12.3023
 150   2.0000      -0.451747       -12.2927
 151   2.0000      -0.449205       -12.2235
 152   2.0000      -0.439274       -11.9532
 153   2.0000      -0.430506       -11.7147
 154   2.0000      -0.402222       -10.9450
 155   2.0000      -0.395874       -10.7723
 156   2.0000      -0.383526       -10.4363
 157   2.0000      -0.354458        -9.6453
 158   2.0000      -0.353754        -9.6261
 159   2.0000      -0.353295        -9.6136
 160   2.0000      -0.350879        -9.5479
 161   2.0000      -0.350797        -9.5457
 162   2.0000      -0.347373        -9.4525
 163   2.0000      -0.342771        -9.3273
 164   2.0000      -0.338088        -9.1999
 165   2.0000      -0.320990        -8.7346
 166   2.0000      -0.308252        -8.3880
 167   2.0000      -0.295195        -8.0327
 168   2.0000      -0.260530        -7.0894
 169   0.0000       0.033341         0.9073
 170   0.0000       0.038481         1.0471
 171   0.0000       0.043739         1.1902
 172   0.0000       0.064967         1.7678
 173   0.0000       0.070240         1.9113

MULLIKEN ATOMIC CHARGES
-----------------------
   0 C :   -0.233878
   1 C :   -0.298723
   2 C :    0.195717
   3 C :   -0.149614
   4 C :   -0.261021
   5 C :    0.103464
   6 C :    0.189342
   7 C :   -0.154708
   8 C :    0.197746
   9 C :   -0.297092
  10 H :    0.188948
  11 C :   -0.235590
  12 C :    0.098365
  13 C :   -0.259872
  14 H :    0.189744
  15 H :    0.196453
  16 H :    0.178187
  17 N :    0.043762
  18 C :    0.052008
  19 C :    0.054465
  20 C :   -0.177563
  21 C :   -0.323419
  22 C :    0.070445
  23 C :   -0.145953
  24 H :    0.179039
  25 C :   -0.139191
  26 H :    0.195665
  27 C :   -0.193394
  28 C :   -0.236556
  29 H :    0.180316
  30 C :   -0.190447
  31 H :    0.181144
  32 H :    0.179578
  33 H :    0.179736
  34 H :    0.180140
  35 H :    0.197347
  36 H :    0.176900
  37 C :   -0.438535
  38 H :    0.147534
  39 H :    0.148009
  40 H :    0.148981
  41 C :   -0.437614
  42 H :    0.149682
  43 H :    0.147808
  44 H :    0.148401
  45 C :    0.089235
  46 C :   -0.251171
  47 C :   -0.243755
  48 C :   -0.246619
  49 H :    0.182823
  50 C :   -0.246274
  51 H :    0.178568
  52 C :    0.175584
  53 H :    0.179036
  54 H :    0.179161
  55 C :    0.101934
  56 C :   -0.248331
  57 C :   -0.250517
  58 C :   -0.196092
  59 H :    0.180933
  60 C :   -0.194200
  61 H :    0.181684
  62 C :   -0.171473
  63 H :    0.178119
  64 H :    0.177772
  65 H :    0.179670
  66 C :    0.095422
  67 C :   -0.255820
  68 C :   -0.242081
  69 C :   -0.248403
  70 H :    0.185158
  71 C :   -0.249616
  72 H :    0.178052
  73 C :    0.177150
  74 H :    0.178892
  75 H :    0.180132
  76 C :    0.102136
  77 C :   -0.250240
  78 C :   -0.251289
  79 C :   -0.194361
  80 H :    0.181812
  81 C :   -0.193509
  82 H :    0.181200
  83 C :   -0.172828
  84 H :    0.178223
  85 H :    0.178087
  86 H :    0.180041
Sum of atomic charges:   -0.0000000

LOEWDIN ATOMIC CHARGES
----------------------
   0 C :   -0.108267
   1 C :   -0.126878
   2 C :   -0.125365
   3 C :   -0.069564
   4 C :   -0.062196
   5 C :   -0.129539
   6 C :   -0.235964
   7 C :   -0.069471
   8 C :   -0.125364
   9 C :   -0.126718
  10 H :    0.165335
  11 C :   -0.108553
  12 C :   -0.129817
  13 C :   -0.062397
  14 H :    0.165320
  15 H :    0.164800
  16 H :    0.160400
  17 N :    0.284085
  18 C :   -0.140567
  19 C :   -0.072067
  20 C :   -0.095906
  21 C :   -0.102649
  22 C :   -0.099564
  23 C :   -0.142565
  24 H :    0.164902
  25 C :   -0.142118
  26 H :    0.163557
  27 C :   -0.104750
  28 C :   -0.098804
  29 H :    0.157714
  30 C :   -0.146558
  31 H :    0.156621
  32 H :    0.160629
  33 H :    0.161543
  34 H :    0.156101
  35 H :    0.164905
  36 H :    0.160387
  37 C :   -0.240344
  38 H :    0.127572
  39 H :    0.127312
  40 H :    0.127469
  41 C :   -0.240228
  42 H :    0.127469
  43 H :    0.127636
  44 H :    0.127314
  45 C :   -0.110474
  46 C :   -0.109263
  47 C :   -0.109017
  48 C :   -0.107325
  49 H :    0.159491
  50 C :   -0.107254
  51 H :    0.159583
  52 C :   -0.114300
  53 H :    0.160047
  54 H :    0.160122
  55 C :   -0.112124
  56 C :   -0.110071
  57 C :   -0.109904
  58 C :   -0.150390
  59 H :    0.158892
  60 C :   -0.150319
  61 H :    0.159006
  62 C :   -0.153208
  63 H :    0.155181
  64 H :    0.155150
  65 H :    0.153697
  66 C :   -0.110758
  67 C :   -0.109365
  68 C :   -0.109169
  69 C :   -0.107213
  70 H :    0.159654
  71 C :   -0.107159
  72 H :    0.159502
  73 C :   -0.114251
  74 H :    0.160120
  75 H :    0.160183
  76 C :   -0.112143
  77 C :   -0.110062
  78 C :   -0.109928
  79 C :   -0.150315
  80 H :    0.159018
  81 C :   -0.150300
  82 H :    0.159026
  83 C :   -0.153325
  84 H :    0.155201
  85 H :    0.155178
  86 H :    0.153725

  Mayer bond orders larger than 0.100000
B(  0-C ,  1-C ) :   1.4979 B(  0-C ,  5-C ) :   1.3475 B(  0-C , 36-H ) :   0.9557
B(  1-C ,  2-C ) :   1.3296 B(  1-C , 14-H ) :   0.9724 B(  2-C ,  3-C ) :   1.3026
B(  2-C , 17-N ) :   1.1093 B(  3-C ,  4-C ) :   1.4315 B(  3-C ,  6-C ) :   0.9434
B(  4-C ,  5-C ) :   1.4398 B(  4-C , 15-H ) :   0.9145 B(  5-C , 45-C ) :   0.9276
B(  6-C ,  7-C ) :   0.9393 B(  6-C , 37-C ) :   0.9365 B(  6-C , 41-C ) :   0.9308
B(  7-C ,  8-C ) :   1.3067 B(  7-C , 13-C ) :   1.4261 B(  8-C ,  9-C ) :   1.3274
B(  8-C , 17-N ) :   1.1093 B(  9-C , 10-H ) :   0.9736 B(  9-C , 11-C ) :   1.4989
B( 11-C , 12-C ) :   1.3475 B( 11-C , 16-H ) :   0.9541 B( 12-C , 13-C ) :   1.4420
B( 12-C , 66-C ) :   0.9282 B( 13-C , 35-H ) :   0.9148 B( 17-N , 18-C ) :   0.7163
B( 18-C , 19-C ) :   1.1275 B( 18-C , 20-C ) :   1.6701 B( 19-C , 21-C ) :   1.2483
B( 19-C , 22-C ) :   1.2736 B( 20-C , 23-C ) :   1.2322 B( 20-C , 24-H ) :   0.9780
B( 21-C , 25-C ) :   1.5849 B( 21-C , 26-H ) :   0.9559 B( 22-C , 27-C ) :   1.2464
B( 22-C , 28-C ) :   1.2255 B( 23-C , 28-C ) :   1.5350 B( 23-C , 29-H ) :   0.9829
B( 25-C , 30-C ) :   1.2379 B( 25-C , 31-H ) :   0.9760 B( 27-C , 30-C ) :   1.5538
B( 27-C , 32-H ) :   0.9678 B( 28-C , 33-H ) :   0.9715 B( 30-C , 34-H ) :   0.9776
B( 37-C , 38-H ) :   0.9828 B( 37-C , 39-H ) :   0.9737 B( 37-C , 40-H ) :   0.9738
B( 41-C , 42-H ) :   0.9733 B( 41-C , 43-H ) :   0.9820 B( 41-C , 44-H ) :   0.9729
B( 45-C , 46-C ) :   1.3740 B( 45-C , 47-C ) :   1.3734 B( 46-C , 48-C ) :   1.4865
B( 46-C , 49-H ) :   0.9545 B( 47-C , 50-C ) :   1.4836 B( 47-C , 51-H ) :   0.9607
B( 48-C , 52-C ) :   1.3650 B( 48-C , 53-H ) :   0.9617 B( 50-C , 52-C ) :   1.3639
B( 50-C , 54-H ) :   0.9628 B( 52-C , 55-C ) :   0.9132 B( 55-C , 56-C ) :   1.3721
B( 55-C , 57-C ) :   1.3740 B( 56-C , 58-C ) :   1.4551 B( 56-C , 59-H ) :   0.9591
B( 57-C , 60-C ) :   1.4547 B( 57-C , 61-H ) :   0.9585 B( 58-C , 62-C ) :   1.4013
B( 58-C , 63-H ) :   0.9740 B( 60-C , 62-C ) :   1.4001 B( 60-C , 64-H ) :   0.9747
B( 62-C , 65-H ) :   0.9710 B( 66-C , 67-C ) :   1.3711 B( 66-C , 68-C ) :   1.3685
B( 67-C , 69-C ) :   1.4878 B( 67-C , 70-H ) :   0.9542 B( 68-C , 71-C ) :   1.4857
B( 68-C , 72-H ) :   0.9606 B( 69-C , 73-C ) :   1.3645 B( 69-C , 74-H ) :   0.9620
B( 71-C , 73-C ) :   1.3648 B( 71-C , 75-H ) :   0.9621 B( 73-C , 76-C ) :   0.9154
B( 76-C , 77-C ) :   1.3743 B( 76-C , 78-C ) :   1.3718 B( 77-C , 79-C ) :   1.4547
B( 77-C , 80-H ) :   0.9583 B( 78-C , 81-C ) :   1.4533 B( 78-C , 82-H ) :   0.9600
B( 79-C , 83-C ) :   1.4003 B( 79-C , 84-H ) :   0.9740 B( 81-C , 83-C ) :   1.4016
B( 81-C , 85-H ) :   0.9739 B( 83-C , 86-H ) :   0.9709

MP2 TOTAL ENERGY:    -1941.032790879 Eh

-----------------------------------------------------------------------------
         ABSORPTION SPECTRUM VIA TRANSITION ELECTRIC DIPOLE MOMENTS
-----------------------------------------------------------------------------
State   Energy    Wavelength  fosc         T2        TX        TY        TZ
        (cm-1)      (nm)                 (au**2)    (au)      (au)      (au)
-----------------------------------------------------------------------------
   1   31069.4    321.9   2.007914661  21.27590  -4.61243   0.03021  -0.02220
   2   35018.1    285.6   0.636121957   5.98031   0.04375   2.43529  -0.21857
   3   35551.9    281.3   0.242235800   2.24311   0.00235   1.49230  -0.12703
   4   37145.5    269.2   0.002573856   0.02281   0.01132   0.14501  -0.04069
   5   34440.4    290.4   0.058884082   0.56287   0.74466   0.08784   0.02528
   6   36352.2    275.1   0.000648666   0.00587   0.01396   0.05027   0.05615
   7   35033.2    285.4   0.069781107   0.65574   0.80530  -0.07372   0.04242
   8   39922.6    250.5   0.233113999   1.92232  -1.38634  -0.01933  -0.00273
   9   38959.4    256.7   0.011923359   0.10075   0.01769  -0.31464   0.03799
  10   39198.9    255.1   0.000265082   0.00223   0.03769  -0.00590  -0.02777
  11   41404.7    241.5   0.000009000   0.00007  -0.00066  -0.00080   0.00840
  12   41404.6    241.5   0.000068393   0.00054  -0.02325  -0.00071  -0.00171
  13   44164.4    226.4   0.014123905   0.10528   0.00532   0.20188   0.25397
  14   46193.2    216.5   1.363325610   9.71621  -0.01740  -0.93249  -2.97429
  15   42979.4    232.7   0.006777421   0.05191   0.15109  -0.05045  -0.16291
  16   47176.8    212.0   0.030014824   0.20945  -0.41360  -0.04243  -0.19128
  17   47061.2    212.5   0.007482893   0.05235   0.14880   0.15416   0.08023
  18   47704.2    209.6   0.029258599   0.20192  -0.34296   0.11243   0.26769
  19   50352.5    198.6   0.062417522   0.40809   0.00485  -0.60008   0.21903
  20   48089.5    207.9   0.464796212   3.18191   0.15681  -1.65722   0.64106
  21   49848.2    200.6   2.051216368  13.54684  -3.68008  -0.06160  -0.00538
  22   48555.0    206.0   0.207575448   1.40740   1.13704   0.14990   0.30344
  23   48216.0    207.4   0.242993489   1.65912   0.04602  -1.20092   0.46347
  24   49845.0    200.6   0.499046717   3.29606   0.03818  -1.81407   0.06118
  25   49835.9    200.7   0.038664072   0.25541   0.07629   0.34191  -0.36427
  26   49838.6    200.6   0.100066873   0.66100  -0.23727   0.24851   0.73685
  27   51455.8    194.3   0.356623196   2.28166   0.01182   1.45751  -0.39648
  28   50650.2    197.4   0.883114261   5.73999   0.88051  -2.17267  -0.49416
  29   51217.9    195.2   1.167780546   7.50611   2.17430   0.77794  -1.47422
  30   51614.9    193.7   0.432849261   2.76081  -1.22013  -0.00994  -1.12783

FINAL SINGLE POINT ENERGY     -1938.572838016912

DIPOLE MOMENT
-------------
                                X             Y             Z
Electronic contribution:      0.00227      13.11299      -2.77032
Nuclear contribution   :     -0.00023     -12.48099       2.75842
                        -----------------------------------------
Total Dipole Moment    :      0.00203       0.63200      -0.01190
                        -----------------------------------------
Magnitude (a.u.)       :      0.63212
Magnitude (Debye)      :      1.60671

Rotational constants in cm-1:     0.002521     0.000716     0.000583
Rotational constants in MHz :    75.585985    21.461045    17.478918

                             ****ORCA TERMINATED NORMALLY****
TOTAL RUN TIME: 0 days 16 hours 30 minutes 43 seconds 843 msec
