                         Program Version 5.0.2 -  RELEASE  -
|  1> %maxcore 20000
|  2> %pal
|  3>  nprocs= 8
|  4> end
|  5> ! RI-SCS-PBE-QIDH   def2-TZVP def2/J def2-TZVP/C RIJCOSX CPCM TightSCF
|  6> %TDDFT
|  7>    NROOTS   30
|  8>    dcorr 4
|  9>    doscs true
| 10>    TDA      FALSE
| 11> END
| 12>
| 13>  %CPCM
| 14>    SMD          TRUE
| 15>    SMDsolvent   "ACETONITRILE"
| 16>  END
| 17>
| 18>
| 19> * xyz -2 1
| 20>  C -3.021889 3.845082 -0.412279
| 21>  C -2.670618 2.435301 -0.435900
| 22>  C -1.338877 2.078139 -0.351790
| 23>  C -0.261988 3.002393 -0.306931
| 24>  C -0.618807 4.377008 -0.290805
| 25>  C -1.915100 4.774589 -0.336421
| 26>  C 1.056534 2.527055 -0.248409
| 27>  C 1.287357 1.141094 -0.197827
| 28>  C 0.183866 0.251934 -0.177149
| 29>  C 0.314103 -1.117620 -0.097666
| 30>  C 1.633556 -1.716982 -0.043436
| 31>  C 2.779347 -0.801316 -0.075467
| 32>  C 2.568460 0.550215 -0.156436
| 33>  H 0.173164 5.113184 -0.225871
| 34>  H -2.170444 5.827748 -0.312236
| 35>  H 3.425754 1.209587 -0.204065
| 36>  O -1.079149 0.744841 -0.276092
| 37>  O 1.773266 -2.954258 0.058640
| 38>  O -4.202988 4.251775 -0.462231
| 39>  C 2.194005 3.472354 -0.317641
| 40>  C 2.350359 4.234695 -1.477882
| 41>  C 3.141981 3.585655 0.711389
| 42>  C 3.411829 5.113435 -1.622431
| 43>  H 1.627795 4.125491 -2.278755
| 44>  C 4.214877 4.457657 0.538758
| 45>  C 4.347900 5.229337 -0.604349
| 46>  H 3.508708 5.698645 -2.528336
| 47>  H 4.950074 4.523332 1.332256
| 48>  H 5.181035 5.914540 -0.704903
| 49>  C 3.017901 2.812974 2.015765
| 50>  O 4.075858 2.295506 2.445559
| 51>  O 1.881980 2.793400 2.539240
| 52>  C -3.723706 1.413628 -0.561330
| 53>  C -4.853997 1.442244 0.228035
| 54>  C -3.618021 0.387959 -1.537322
| 55>  C -5.879397 0.482015 0.098398
| 56>  H -4.965003 2.217489 0.975750
| 57>  C -4.596796 -0.552469 -1.696734
| 58>  H -2.744588 0.362525 -2.177147
| 59>  C -5.754480 -0.542060 -0.887587
| 60>  H -4.497315 -1.322590 -2.453987
| 61>  C -0.870074 -1.996266 -0.056955
| 62>  C -1.888836 -1.797010 0.849629
| 63>  C -0.988029 -3.077000 -0.967311
| 64>  C -3.031257 -2.621960 0.885340
| 65>  H -1.824023 -0.984223 1.564456
| 66>  C -2.086501 -3.892243 -0.967036
| 67>  H -0.190854 -3.243703 -1.679910
| 68>  C -3.140148 -3.696765 -0.046492
| 69>  H -2.163437 -4.705839 -1.679713
| 70>  C 4.156124 -1.309270 0.013768
| 71>  C 5.139404 -0.534617 0.689918
| 72>  C 4.551412 -2.509256 -0.546396
| 73>  C 6.438026 -0.950427 0.781717
| 74>  H 4.840235 0.395836 1.164806
| 75>  C 5.884479 -2.962508 -0.471454
| 76>  H 3.827403 -3.121419 -1.065402
| 77>  H 7.166748 -0.347365 1.312293
| 78>  C -7.029321 0.492512 0.920290
| 79>  C -8.007660 -0.456400 0.775371
| 80>  H -8.882038 -0.435276 1.414160
| 81>  C -7.885633 -1.460763 -0.202991
| 82>  H -8.666019 -2.204260 -0.308811
| 83>  C -6.782354 -1.499895 -1.015957
| 84>  H -6.678993 -2.274082 -1.768377
| 85>  H -7.123034 1.268798 1.671286
| 86>  C -4.077842 -2.418145 1.813783
| 87>  C -5.178066 -3.234617 1.823916
| 88>  H -5.972498 -3.066478 2.540762
| 89>  C -5.286567 -4.291480 0.900246
| 90>  H -6.163920 -4.926542 0.914017
| 91>  C -4.289926 -4.514856 -0.014351
| 92>  H -4.368994 -5.327981 -0.727267
| 93>  H -3.992801 -1.599218 2.519792
| 94>  C 6.857695 -2.170690 0.207824
| 95>  C 8.188019 -2.634201 0.284332
| 96>  C 8.551314 -3.825776 -0.288032
| 97>  H 9.575875 -4.170440 -0.223255
| 98>  C 7.594642 -4.606959 -0.963257
| 99>  H 7.892053 -5.546462 -1.412562
|100>  C 6.294091 -4.185260 -1.051863
|101>  H 5.555063 -4.786601 -1.569286
|102>  H 8.919964 -2.027592 0.805834
|103> *
|104>
|105>
|106>
|107>
|108>                          ****END OF INPUT****

CARTESIAN COORDINATES (ANGSTROEM)
---------------------------------
  C     -3.021889    3.845082   -0.412279
  C     -2.670618    2.435301   -0.435900
  C     -1.338877    2.078139   -0.351790
  C     -0.261988    3.002393   -0.306931
  C     -0.618807    4.377008   -0.290805
  C     -1.915100    4.774589   -0.336421
  C      1.056534    2.527055   -0.248409
  C      1.287357    1.141094   -0.197827
  C      0.183866    0.251934   -0.177149
  C      0.314103   -1.117620   -0.097666
  C      1.633556   -1.716982   -0.043436
  C      2.779347   -0.801316   -0.075467
  C      2.568460    0.550215   -0.156436
  H      0.173164    5.113184   -0.225871
  H     -2.170444    5.827748   -0.312236
  H      3.425754    1.209587   -0.204065
  O     -1.079149    0.744841   -0.276092
  O      1.773266   -2.954258    0.058640
  O     -4.202988    4.251775   -0.462231
  C      2.194005    3.472354   -0.317641
  C      2.350359    4.234695   -1.477882
  C      3.141981    3.585655    0.711389
  C      3.411829    5.113435   -1.622431
  H      1.627795    4.125491   -2.278755
  C      4.214877    4.457657    0.538758
  C      4.347900    5.229337   -0.604349
  H      3.508708    5.698645   -2.528336
  H      4.950074    4.523332    1.332256
  H      5.181035    5.914540   -0.704903
  C      3.017901    2.812974    2.015765
  O      4.075858    2.295506    2.445559
  O      1.881980    2.793400    2.539240
  C     -3.723706    1.413628   -0.561330
  C     -4.853997    1.442244    0.228035
  C     -3.618021    0.387959   -1.537322
  C     -5.879397    0.482015    0.098398
  H     -4.965003    2.217489    0.975750
  C     -4.596796   -0.552469   -1.696734
  H     -2.744588    0.362525   -2.177147
  C     -5.754480   -0.542060   -0.887587
  H     -4.497315   -1.322590   -2.453987
  C     -0.870074   -1.996266   -0.056955
  C     -1.888836   -1.797010    0.849629
  C     -0.988029   -3.077000   -0.967311
  C     -3.031257   -2.621960    0.885340
  H     -1.824023   -0.984223    1.564456
  C     -2.086501   -3.892243   -0.967036
  H     -0.190854   -3.243703   -1.679910
  C     -3.140148   -3.696765   -0.046492
  H     -2.163437   -4.705839   -1.679713
  C      4.156124   -1.309270    0.013768
  C      5.139404   -0.534617    0.689918
  C      4.551412   -2.509256   -0.546396
  C      6.438026   -0.950427    0.781717
  H      4.840235    0.395836    1.164806
  C      5.884479   -2.962508   -0.471454
  H      3.827403   -3.121419   -1.065402
  H      7.166748   -0.347365    1.312293
  C     -7.029321    0.492512    0.920290
  C     -8.007660   -0.456400    0.775371
  H     -8.882038   -0.435276    1.414160
  C     -7.885633   -1.460763   -0.202991
  H     -8.666019   -2.204260   -0.308811
  C     -6.782354   -1.499895   -1.015957
  H     -6.678993   -2.274082   -1.768377
  H     -7.123034    1.268798    1.671286
  C     -4.077842   -2.418145    1.813783
  C     -5.178066   -3.234617    1.823916
  H     -5.972498   -3.066478    2.540762
  C     -5.286567   -4.291480    0.900246
  H     -6.163920   -4.926542    0.914017
  C     -4.289926   -4.514856   -0.014351
  H     -4.368994   -5.327981   -0.727267
  H     -3.992801   -1.599218    2.519792
  C      6.857695   -2.170690    0.207824
  C      8.188019   -2.634201    0.284332
  C      8.551314   -3.825776   -0.288032
  H      9.575875   -4.170440   -0.223255
  C      7.594642   -4.606959   -0.963257
  H      7.892053   -5.546462   -1.412562
  C      6.294091   -4.185260   -1.051863
  H      5.555063   -4.786601   -1.569286
  H      8.919964   -2.027592    0.805834

 Total Charge           Charge          ....   -2
 Multiplicity           Mult            ....    1
 Number of Electrons    NEL             ....  370
 Basis Dimension        Dim             .... 1873

ORBITAL ENERGIES
----------------

  NO   OCC          E(Eh)            E(eV)
   0   2.0000     -20.064098      -545.9719
   1   2.0000     -19.932952      -542.4032
   2   2.0000     -19.932367      -542.3873
   3   2.0000     -19.914122      -541.8908
   4   2.0000     -19.913860      -541.8837
   5   2.0000     -10.900282      -296.6118
   6   2.0000     -10.898672      -296.5679
   7   2.0000     -10.889058      -296.3063
   8   2.0000     -10.879279      -296.0402
   9   2.0000     -10.876256      -295.9580
  10   2.0000     -10.870728      -295.8076
  11   2.0000     -10.833437      -294.7928
  12   2.0000     -10.824963      -294.5622
  13   2.0000     -10.824944      -294.5617
  14   2.0000     -10.824764      -294.5568
  15   2.0000     -10.824688      -294.5547
  16   2.0000     -10.824617      -294.5528
  17   2.0000     -10.824281      -294.5436
  18   2.0000     -10.824087      -294.5384
  19   2.0000     -10.823674      -294.5272
  20   2.0000     -10.823246      -294.5155
  21   2.0000     -10.823212      -294.5146
  22   2.0000     -10.823163      -294.5132
  23   2.0000     -10.819954      -294.4259
  24   2.0000     -10.819774      -294.4210
  25   2.0000     -10.819372      -294.4101
  26   2.0000     -10.818061      -294.3744
  27   2.0000     -10.816454      -294.3307
  28   2.0000     -10.816309      -294.3267
  29   2.0000     -10.815891      -294.3154
  30   2.0000     -10.815533      -294.3056
  31   2.0000     -10.815386      -294.3016
  32   2.0000     -10.815305      -294.2994
  33   2.0000     -10.815007      -294.2913
  34   2.0000     -10.814940      -294.2895
  35   2.0000     -10.814905      -294.2885
  36   2.0000     -10.814367      -294.2739
  37   2.0000     -10.814237      -294.2703
  38   2.0000     -10.813989      -294.2636
  39   2.0000     -10.813482      -294.2498
  40   2.0000     -10.813032      -294.2376
  41   2.0000     -10.812665      -294.2276
  42   2.0000     -10.812562      -294.2248
  43   2.0000     -10.812414      -294.2207
  44   2.0000     -10.812375      -294.2197
  45   2.0000     -10.811590      -294.1983
  46   2.0000     -10.811223      -294.1883
  47   2.0000     -10.811215      -294.1881
  48   2.0000     -10.810342      -294.1644
  49   2.0000     -10.809801      -294.1496
  50   2.0000     -10.809345      -294.1372
  51   2.0000     -10.808240      -294.1072
  52   2.0000     -10.804692      -294.0106
  53   2.0000     -10.804010      -293.9921
  54   2.0000     -10.797260      -293.8084
  55   2.0000      -1.333899       -36.2972
  56   2.0000      -1.227489       -33.4017
  57   2.0000      -1.207513       -32.8581
  58   2.0000      -1.203840       -32.7581
  59   2.0000      -1.128879       -30.7184
  60   2.0000      -1.073684       -29.2164
  61   2.0000      -1.071555       -29.1585
  62   2.0000      -1.071275       -29.1509
  63   2.0000      -1.070055       -29.1177
  64   2.0000      -1.049307       -28.5531
  65   2.0000      -1.039852       -28.2958
  66   2.0000      -1.016615       -27.6635
  67   2.0000      -1.015067       -27.6214
  68   2.0000      -1.005803       -27.3693
  69   2.0000      -0.975462       -26.5437
  70   2.0000      -0.963288       -26.2124
  71   2.0000      -0.953374       -25.9426
  72   2.0000      -0.949814       -25.8458
  73   2.0000      -0.946018       -25.7425
  74   2.0000      -0.935673       -25.4609
  75   2.0000      -0.925017       -25.1710
  76   2.0000      -0.924266       -25.1506
  77   2.0000      -0.913029       -24.8448
  78   2.0000      -0.901737       -24.5375
  79   2.0000      -0.893951       -24.3256
  80   2.0000      -0.891457       -24.2578
  81   2.0000      -0.884208       -24.0605
  82   2.0000      -0.872667       -23.7465
  83   2.0000      -0.867974       -23.6188
  84   2.0000      -0.805739       -21.9253
  85   2.0000      -0.800490       -21.7824
  86   2.0000      -0.784911       -21.3585
  87   2.0000      -0.777452       -21.1555
  88   2.0000      -0.767214       -20.8770
  89   2.0000      -0.764047       -20.7908
  90   2.0000      -0.760736       -20.7007
  91   2.0000      -0.756781       -20.5931
  92   2.0000      -0.751573       -20.4513
  93   2.0000      -0.742253       -20.1977
  94   2.0000      -0.733210       -19.9517
  95   2.0000      -0.732412       -19.9299
  96   2.0000      -0.730996       -19.8914
  97   2.0000      -0.715891       -19.4804
  98   2.0000      -0.711709       -19.3666
  99   2.0000      -0.673442       -18.3253
 100   2.0000      -0.663078       -18.0433
 101   2.0000      -0.658555       -17.9202
 102   2.0000      -0.646262       -17.5857
 103   2.0000      -0.633434       -17.2366
 104   2.0000      -0.631871       -17.1941
 105   2.0000      -0.631344       -17.1797
 106   2.0000      -0.630616       -17.1599
 107   2.0000      -0.623910       -16.9775
 108   2.0000      -0.621944       -16.9239
 109   2.0000      -0.616153       -16.7664
 110   2.0000      -0.602678       -16.3997
 111   2.0000      -0.598222       -16.2785
 112   2.0000      -0.595575       -16.2064
 113   2.0000      -0.588705       -16.0195
 114   2.0000      -0.584490       -15.9048
 115   2.0000      -0.571839       -15.5605
 116   2.0000      -0.570792       -15.5320
 117   2.0000      -0.561297       -15.2737
 118   2.0000      -0.559868       -15.2348
 119   2.0000      -0.553034       -15.0488
 120   2.0000      -0.552749       -15.0411
 121   2.0000      -0.551868       -15.0171
 122   2.0000      -0.548546       -14.9267
 123   2.0000      -0.545467       -14.8429
 124   2.0000      -0.539707       -14.6862
 125   2.0000      -0.536562       -14.6006
 126   2.0000      -0.535701       -14.5772
 127   2.0000      -0.528932       -14.3930
 128   2.0000      -0.523860       -14.2549
 129   2.0000      -0.521650       -14.1948
 130   2.0000      -0.519369       -14.1328
 131   2.0000      -0.516845       -14.0641
 132   2.0000      -0.516412       -14.0523
 133   2.0000      -0.515163       -14.0183
 134   2.0000      -0.512591       -13.9483
 135   2.0000      -0.509475       -13.8635
 136   2.0000      -0.507529       -13.8106
 137   2.0000      -0.505779       -13.7629
 138   2.0000      -0.501193       -13.6382
 139   2.0000      -0.493775       -13.4363
 140   2.0000      -0.491384       -13.3712
 141   2.0000      -0.488687       -13.2978
 142   2.0000      -0.485174       -13.2023
 143   2.0000      -0.483895       -13.1674
 144   2.0000      -0.476954       -12.9786
 145   2.0000      -0.475257       -12.9324
 146   2.0000      -0.469585       -12.7781
 147   2.0000      -0.466353       -12.6901
 148   2.0000      -0.463030       -12.5997
 149   2.0000      -0.461401       -12.5554
 150   2.0000      -0.459104       -12.4929
 151   2.0000      -0.453665       -12.3449
 152   2.0000      -0.446110       -12.1393
 153   2.0000      -0.437152       -11.8955
 154   2.0000      -0.431762       -11.7488
 155   2.0000      -0.430966       -11.7272
 156   2.0000      -0.428082       -11.6487
 157   2.0000      -0.422067       -11.4850
 158   2.0000      -0.418761       -11.3951
 159   2.0000      -0.417811       -11.3692
 160   2.0000      -0.415046       -11.2940
 161   2.0000      -0.414302       -11.2737
 162   2.0000      -0.410784       -11.1780
 163   2.0000      -0.405899       -11.0451
 164   2.0000      -0.404165       -10.9979
 165   2.0000      -0.361794        -9.8449
 166   2.0000      -0.358829        -9.7642
 167   2.0000      -0.358471        -9.7545
 168   2.0000      -0.344154        -9.3649
 169   2.0000      -0.339235        -9.2311
 170   2.0000      -0.337096        -9.1728
 171   2.0000      -0.334255        -9.0955
 172   2.0000      -0.330493        -8.9932
 173   2.0000      -0.326235        -8.8773
 174   2.0000      -0.320171        -8.7123
 175   2.0000      -0.314182        -8.5493
 176   2.0000      -0.307090        -8.3564
 177   2.0000      -0.300991        -8.1904
 178   2.0000      -0.296787        -8.0760
 179   2.0000      -0.286709        -7.8017
 180   2.0000      -0.280935        -7.6446
 181   2.0000      -0.269363        -7.3297
 182   2.0000      -0.262163        -7.1338
 183   2.0000      -0.251846        -6.8531
 184   2.0000      -0.220121        -5.9898
 185   0.0000      -0.011873        -0.3231
 186   0.0000       0.021966         0.5977
 187   0.0000       0.026309         0.7159
 188   0.0000       0.028881         0.7859
 189   0.0000       0.044140         1.2011

MULLIKEN ATOMIC CHARGES
-----------------------
   0 C :    0.351734
   1 C :   -0.191246
   2 C :    0.313396
   3 C :    0.085100
   4 C :   -0.241904
   5 C :   -0.389727
   6 C :    0.415802
   7 C :    0.130733
   8 C :    0.269546
   9 C :   -0.099520
  10 C :    0.279796
  11 C :    0.009264
  12 C :   -0.338952
  13 H :    0.184065
  14 H :    0.139920
  15 H :    0.203297
  16 O :   -0.241462
  17 O :   -0.577928
  18 O :   -0.584237
  19 C :   -0.008196
  20 C :   -0.387958
  21 C :   -0.112753
  22 C :   -0.140190
  23 H :    0.172182
  24 C :   -0.204125
  25 C :   -0.188479
  26 H :    0.170494
  27 H :    0.165998
  28 H :    0.168599
  29 C :    0.352726
  30 O :   -0.615094
  31 O :   -0.607486
  32 C :    0.137390
  33 C :   -0.329885
  34 C :   -0.211110
  35 C :    0.197830
  36 H :    0.145176
  37 C :   -0.321959
  38 H :    0.156106
  39 C :    0.228714
  40 H :    0.159250
  41 C :    0.063439
  42 C :   -0.353618
  43 C :   -0.232379
  44 C :    0.268719
  45 H :    0.151796
  46 C :   -0.324748
  47 H :    0.154008
  48 C :    0.192693
  49 H :    0.161801
  50 C :    0.111291
  51 C :   -0.253129
  52 C :   -0.323948
  53 C :   -0.322832
  54 H :    0.162624
  55 C :    0.222303
  56 H :    0.153449
  57 H :    0.162155
  58 C :   -0.338420
  59 C :   -0.152532
  60 H :    0.168122
  61 C :   -0.160102
  62 H :    0.167133
  63 C :   -0.281695
  64 H :    0.164483
  65 H :    0.167703
  66 C :   -0.374064
  67 C :   -0.122736
  68 H :    0.166033
  69 C :   -0.176673
  70 H :    0.166785
  71 C :   -0.278853
  72 H :    0.166415
  73 H :    0.162646
  74 C :    0.192784
  75 C :   -0.288099
  76 C :   -0.157602
  77 H :    0.170141
  78 C :   -0.150377
  79 H :    0.169326
  80 C :   -0.353881
  81 H :    0.166438
  82 H :    0.168490
Sum of atomic charges:   -2.0000000

LOEWDIN ATOMIC CHARGES
----------------------
   0 C :   -0.321701
   1 C :   -0.103245
   2 C :   -0.121736
   3 C :   -0.122848
   4 C :   -0.093947
   5 C :   -0.156099
   6 C :    0.034671
   7 C :   -0.118926
   8 C :   -0.124210
   9 C :   -0.100914
  10 C :   -0.275713
  11 C :   -0.105501
  12 C :   -0.042626
  13 H :    0.165908
  14 H :    0.148631
  15 H :    0.173189
  16 O :    0.367913
  17 O :   -0.054941
  18 O :   -0.077744
  19 C :   -0.072624
  20 C :   -0.100414
  21 C :   -0.081035
  22 C :   -0.150289
  23 H :    0.162697
  24 C :   -0.114361
  25 C :   -0.145136
  26 H :    0.154187
  27 H :    0.156948
  28 H :    0.153768
  29 C :   -0.604428
  30 O :   -0.130022
  31 O :   -0.117188
  32 C :   -0.112871
  33 C :   -0.063391
  34 C :   -0.104082
  35 C :   -0.109142
  36 H :    0.160611
  37 C :   -0.114247
  38 H :    0.158167
  39 C :   -0.112553
  40 H :    0.158084
  41 C :   -0.110546
  42 C :   -0.064798
  43 C :   -0.102959
  44 C :   -0.109934
  45 H :    0.162068
  46 C :   -0.117480
  47 H :    0.157495
  48 C :   -0.112048
  49 H :    0.156934
  50 C :   -0.113955
  51 C :   -0.112152
  52 C :   -0.069234
  53 C :   -0.116553
  54 H :    0.157952
  55 C :   -0.109233
  56 H :    0.159808
  57 H :    0.157609
  58 C :   -0.112800
  59 C :   -0.156449
  60 H :    0.153030
  61 C :   -0.156016
  62 H :    0.152901
  63 C :   -0.111348
  64 H :    0.157606
  65 H :    0.157346
  66 C :   -0.109174
  67 C :   -0.154301
  68 H :    0.153141
  69 C :   -0.154951
  70 H :    0.152967
  71 C :   -0.114121
  72 H :    0.157220
  73 H :    0.158115
  74 C :   -0.112106
  75 C :   -0.113389
  76 C :   -0.156512
  77 H :    0.152952
  78 C :   -0.156033
  79 H :    0.153200
  80 C :   -0.112101
  81 H :    0.157401
  82 H :    0.157609

  Mayer bond orders larger than 0.100000
B(  0-C ,  1-C ) :   1.0052 B(  0-C ,  5-C ) :   1.1817 B(  0-C , 18-O ) :   1.8847
B(  1-C ,  2-C ) :   1.3284 B(  1-C , 18-O ) :  -0.1167 B(  1-C , 32-C ) :   0.8284
B(  2-C ,  3-C ) :   1.2908 B(  2-C , 16-O ) :   1.0728 B(  3-C ,  4-C ) :   1.1472
B(  3-C ,  6-C ) :   1.1982 B(  4-C ,  5-C ) :   1.6456 B(  4-C , 13-H ) :   0.9634
B(  5-C , 14-H ) :   1.0028 B(  6-C ,  7-C ) :   1.1306 B(  6-C , 19-C ) :   0.6444
B(  6-C , 20-C ) :  -0.1315 B(  6-C , 21-C ) :  -0.1475 B(  7-C ,  8-C ) :   1.2958
B(  7-C , 12-C ) :   1.1379 B(  7-C , 19-C ) :  -0.1147 B(  8-C ,  9-C ) :   1.4263
B(  8-C , 16-O ) :   1.0971 B(  9-C , 10-C ) :   1.0713 B(  9-C , 17-O ) :  -0.1586
B(  9-C , 41-C ) :   0.7905 B( 10-C , 11-C ) :   1.1104 B( 10-C , 17-O ) :   1.9347
B( 11-C , 12-C ) :   1.5521 B( 11-C , 17-O ) :  -0.1261 B( 11-C , 50-C ) :   0.8299
B( 12-C , 15-H ) :   0.9368 B( 19-C , 20-C ) :   1.4220 B( 19-C , 21-C ) :   1.3313
B( 20-C , 22-C ) :   1.4408 B( 20-C , 23-H ) :   0.9900 B( 21-C , 24-C ) :   1.4248
B( 21-C , 29-C ) :   0.9039 B( 21-C , 30-O ) :  -0.1291 B( 22-C , 25-C ) :   1.3838
B( 22-C , 26-H ) :   0.9806 B( 24-C , 25-C ) :   1.4057 B( 24-C , 27-H ) :   0.9747
B( 25-C , 28-H ) :   0.9818 B( 29-C , 30-O ) :   1.7686 B( 29-C , 31-O ) :   1.8353
B( 32-C , 33-C ) :   1.4960 B( 32-C , 34-C ) :   1.1852 B( 33-C , 35-C ) :   1.2273
B( 33-C , 36-H ) :   1.0053 B( 34-C , 37-C ) :   1.5835 B( 34-C , 38-H ) :   0.9890
B( 35-C , 39-C ) :   1.2342 B( 35-C , 58-C ) :   1.2310 B( 37-C , 39-C ) :   1.1742
B( 37-C , 40-H ) :   1.0027 B( 39-C , 63-C ) :   1.2290 B( 41-C , 42-C ) :   1.4865
B( 41-C , 43-C ) :   1.2204 B( 42-C , 44-C ) :   1.2391 B( 42-C , 45-H ) :   1.0038
B( 43-C , 46-C ) :   1.5706 B( 43-C , 47-H ) :   0.9932 B( 44-C , 48-C ) :   1.2368
B( 44-C , 66-C ) :   1.2040 B( 46-C , 48-C ) :   1.1930 B( 46-C , 49-H ) :   1.0029
B( 48-C , 71-C ) :   1.2341 B( 50-C , 51-C ) :   1.2124 B( 50-C , 52-C ) :   1.4654
B( 51-C , 53-C ) :   1.6089 B( 51-C , 54-H ) :   0.9394 B( 52-C , 55-C ) :   1.2194
B( 52-C , 56-H ) :   0.9941 B( 53-C , 57-H ) :   1.0002 B( 53-C , 74-C ) :   1.1917
B( 55-C , 74-C ) :   1.2663 B( 55-C , 80-C ) :   1.2199 B( 58-C , 59-C ) :   1.5557
B( 58-C , 65-H ) :   0.9918 B( 59-C , 60-H ) :   0.9822 B( 59-C , 61-C ) :   1.2343
B( 61-C , 62-H ) :   0.9849 B( 61-C , 63-C ) :   1.5355 B( 63-C , 64-H ) :   0.9941
B( 66-C , 67-C ) :   1.5513 B( 66-C , 73-H ) :   0.9938 B( 67-C , 68-H ) :   0.9837
B( 67-C , 69-C ) :   1.2231 B( 69-C , 70-H ) :   0.9872 B( 69-C , 71-C ) :   1.5365
B( 71-C , 72-H ) :   0.9956 B( 74-C , 75-C ) :   1.2403 B( 75-C , 76-C ) :   1.5492
B( 75-C , 82-H ) :   0.9885 B( 76-C , 77-H ) :   0.9788 B( 76-C , 78-C ) :   1.2390
B( 78-C , 79-H ) :   0.9794 B( 78-C , 80-C ) :   1.5649 B( 80-C , 81-H ) :   0.9922

MP2 TOTAL ENERGY:    -2296.473065924 Eh

-----------------------------------------------------------------------------
         ABSORPTION SPECTRUM VIA TRANSITION ELECTRIC DIPOLE MOMENTS
-----------------------------------------------------------------------------
State   Energy    Wavelength  fosc         T2        TX        TY        TZ
        (cm-1)      (nm)                 (au**2)    (au)      (au)      (au)
-----------------------------------------------------------------------------
   1   18714.3    534.4   0.933451408  16.42079  -2.85575   2.86672  -0.21777
   2   26626.9    375.6   0.249871420   3.08938   1.72228   0.05414  -0.34670
   3   27325.0    366.0   0.081602069   0.98314  -0.82236   0.47721   0.28130
   4   30128.1    331.9   0.121133226   1.32363   0.99635   0.52278  -0.24001
   5   32708.2    305.7   0.132343716   1.33206   0.82245   0.78306  -0.20602
   6   31256.1    319.9   0.052337341   0.55125  -0.54891  -0.44562   0.22665
   7   31891.9    313.6   0.066267721   0.68407  -0.41534  -0.68979  -0.18907
   8   32567.2    307.1   0.013845965   0.13996   0.02770   0.33878   0.15628
   9   34908.2    286.5   0.103081253   0.97214   0.07471   0.68362   0.70656
  10   34814.1    287.2   0.057736933   0.54598  -0.24753   0.63933   0.27562
  11   32102.2    311.5   0.430660726   4.41648  -1.78317  -1.10624  -0.11408
  12   30008.8    333.2   0.001190818   0.01306  -0.03420   0.09443   0.05455
  13   30933.9    323.3   0.055795949   0.59380   0.63736   0.41942   0.10798
  14   33789.4    296.0   0.157731659   1.53679   1.11622   0.51368   0.16421
  15   33928.2    294.7   0.046345091   0.44970   0.29124  -0.60251  -0.04312
  16   35549.9    281.3   0.239995834   2.22250  -1.09043   1.01028  -0.11311
  17   33714.7    296.6   0.085216166   0.83210   0.08596   0.85695  -0.30058
  18   35268.5    283.5   0.129274977   1.20671  -0.38416  -1.02655   0.07294
  19   35827.7    279.1   0.064317554   0.59100   0.53627   0.50322   0.22402
  20   36356.7    275.1   0.067824619   0.61416  -0.40893  -0.62834  -0.22830
  21   36949.9    270.6   0.150417743   1.34017   0.96251   0.63775  -0.08377
  22   36924.1    270.8   0.507137157   4.52159   2.12050   0.11212  -0.11171
  23   36901.2    271.0   0.041986053   0.37458   0.54636  -0.26437  -0.07859
  24   35546.9    281.3   0.089757999   0.83128  -0.86368  -0.29211  -0.00368
  25   37589.8    266.0   0.289271365   2.53344   0.91790  -1.29863  -0.06673
  26   38633.5    258.8   0.913438961   7.78380   2.68884  -0.70476  -0.23929
  27   38931.0    256.9   0.196521836   1.66185   1.14688   0.32217  -0.49266
  28   38771.5    257.9   0.072515943   0.61574   0.02696   0.77487  -0.12078
  29   38472.3    259.9   0.038242277   0.32724   0.48634  -0.30062  -0.01847
  30   41237.5    242.5   0.065130667   0.51996  -0.10021  -0.63205   0.33232

FINAL SINGLE POINT ENERGY     -2293.055485979229

DIPOLE MOMENT
-------------
                                X             Y             Z
Electronic contribution:      1.90103       9.14284       0.48434
Nuclear contribution   :     -3.62887     -12.98899      -4.91127
                        -----------------------------------------
Total Dipole Moment    :     -1.72784      -3.84615      -4.42693
                        -----------------------------------------
Magnitude (a.u.)       :      6.11359
Magnitude (Debye)      :     15.53951

Rotational constants in cm-1:     0.002528     0.001161     0.000850
Rotational constants in MHz :    75.778822    34.796270    25.496660

                             ****ORCA TERMINATED NORMALLY****
TOTAL RUN TIME: 3 days 6 hours 36 minutes 4 seconds 210 msec
