                         Program Version 5.0.2 -  RELEASE  -
|  1> %maxcore 12800
|  2> %pal
|  3>  nprocs= 8
|  4> end
|  5> ! RI-B2PLYP D3BJ def2-TZVP def2/J def2-TZVP/C RIJCOSX CPCM TightSCF
|  6> %TDDFT DCORR 4
|  7>    NROOTS   30
|  8>   TDA      FALSE
|  9> END
| 10>
| 11>  %CPCM
| 12>    SMD          TRUE
| 13>    SMDsolvent   "ACETONITRILE"
| 14>  END
| 15>
| 16>
| 17> * xyz -2 1
| 18>  C -3.021889 3.845082 -0.412279
| 19>  C -2.670618 2.435301 -0.435900
| 20>  C -1.338877 2.078139 -0.351790
| 21>  C -0.261988 3.002393 -0.306931
| 22>  C -0.618807 4.377008 -0.290805
| 23>  C -1.915100 4.774589 -0.336421
| 24>  C 1.056534 2.527055 -0.248409
| 25>  C 1.287357 1.141094 -0.197827
| 26>  C 0.183866 0.251934 -0.177149
| 27>  C 0.314103 -1.117620 -0.097666
| 28>  C 1.633556 -1.716982 -0.043436
| 29>  C 2.779347 -0.801316 -0.075467
| 30>  C 2.568460 0.550215 -0.156436
| 31>  H 0.173164 5.113184 -0.225871
| 32>  H -2.170444 5.827748 -0.312236
| 33>  H 3.425754 1.209587 -0.204065
| 34>  O -1.079149 0.744841 -0.276092
| 35>  O 1.773266 -2.954258 0.058640
| 36>  O -4.202988 4.251775 -0.462231
| 37>  C 2.194005 3.472354 -0.317641
| 38>  C 2.350359 4.234695 -1.477882
| 39>  C 3.141981 3.585655 0.711389
| 40>  C 3.411829 5.113435 -1.622431
| 41>  H 1.627795 4.125491 -2.278755
| 42>  C 4.214877 4.457657 0.538758
| 43>  C 4.347900 5.229337 -0.604349
| 44>  H 3.508708 5.698645 -2.528336
| 45>  H 4.950074 4.523332 1.332256
| 46>  H 5.181035 5.914540 -0.704903
| 47>  C 3.017901 2.812974 2.015765
| 48>  O 4.075858 2.295506 2.445559
| 49>  O 1.881980 2.793400 2.539240
| 50>  C -3.723706 1.413628 -0.561330
| 51>  C -4.853997 1.442244 0.228035
| 52>  C -3.618021 0.387959 -1.537322
| 53>  C -5.879397 0.482015 0.098398
| 54>  H -4.965003 2.217489 0.975750
| 55>  C -4.596796 -0.552469 -1.696734
| 56>  H -2.744588 0.362525 -2.177147
| 57>  C -5.754480 -0.542060 -0.887587
| 58>  H -4.497315 -1.322590 -2.453987
| 59>  C -0.870074 -1.996266 -0.056955
| 60>  C -1.888836 -1.797010 0.849629
| 61>  C -0.988029 -3.077000 -0.967311
| 62>  C -3.031257 -2.621960 0.885340
| 63>  H -1.824023 -0.984223 1.564456
| 64>  C -2.086501 -3.892243 -0.967036
| 65>  H -0.190854 -3.243703 -1.679910
| 66>  C -3.140148 -3.696765 -0.046492
| 67>  H -2.163437 -4.705839 -1.679713
| 68>  C 4.156124 -1.309270 0.013768
| 69>  C 5.139404 -0.534617 0.689918
| 70>  C 4.551412 -2.509256 -0.546396
| 71>  C 6.438026 -0.950427 0.781717
| 72>  H 4.840235 0.395836 1.164806
| 73>  C 5.884479 -2.962508 -0.471454
| 74>  H 3.827403 -3.121419 -1.065402
| 75>  H 7.166748 -0.347365 1.312293
| 76>  C -7.029321 0.492512 0.920290
| 77>  C -8.007660 -0.456400 0.775371
| 78>  H -8.882038 -0.435276 1.414160
| 79>  C -7.885633 -1.460763 -0.202991
| 80>  H -8.666019 -2.204260 -0.308811
| 81>  C -6.782354 -1.499895 -1.015957
| 82>  H -6.678993 -2.274082 -1.768377
| 83>  H -7.123034 1.268798 1.671286
| 84>  C -4.077842 -2.418145 1.813783
| 85>  C -5.178066 -3.234617 1.823916
| 86>  H -5.972498 -3.066478 2.540762
| 87>  C -5.286567 -4.291480 0.900246
| 88>  H -6.163920 -4.926542 0.914017
| 89>  C -4.289926 -4.514856 -0.014351
| 90>  H -4.368994 -5.327981 -0.727267
| 91>  H -3.992801 -1.599218 2.519792
| 92>  C 6.857695 -2.170690 0.207824
| 93>  C 8.188019 -2.634201 0.284332
| 94>  C 8.551314 -3.825776 -0.288032
| 95>  H 9.575875 -4.170440 -0.223255
| 96>  C 7.594642 -4.606959 -0.963257
| 97>  H 7.892053 -5.546462 -1.412562
| 98>  C 6.294091 -4.185260 -1.051863
| 99>  H 5.555063 -4.786601 -1.569286
|100>  H 8.919964 -2.027592 0.805834
|101> *
|102>
|103>
|104>
|105>
|106>                          ****END OF INPUT****

CARTESIAN COORDINATES (ANGSTROEM)
---------------------------------
  C     -3.021889    3.845082   -0.412279
  C     -2.670618    2.435301   -0.435900
  C     -1.338877    2.078139   -0.351790
  C     -0.261988    3.002393   -0.306931
  C     -0.618807    4.377008   -0.290805
  C     -1.915100    4.774589   -0.336421
  C      1.056534    2.527055   -0.248409
  C      1.287357    1.141094   -0.197827
  C      0.183866    0.251934   -0.177149
  C      0.314103   -1.117620   -0.097666
  C      1.633556   -1.716982   -0.043436
  C      2.779347   -0.801316   -0.075467
  C      2.568460    0.550215   -0.156436
  H      0.173164    5.113184   -0.225871
  H     -2.170444    5.827748   -0.312236
  H      3.425754    1.209587   -0.204065
  O     -1.079149    0.744841   -0.276092
  O      1.773266   -2.954258    0.058640
  O     -4.202988    4.251775   -0.462231
  C      2.194005    3.472354   -0.317641
  C      2.350359    4.234695   -1.477882
  C      3.141981    3.585655    0.711389
  C      3.411829    5.113435   -1.622431
  H      1.627795    4.125491   -2.278755
  C      4.214877    4.457657    0.538758
  C      4.347900    5.229337   -0.604349
  H      3.508708    5.698645   -2.528336
  H      4.950074    4.523332    1.332256
  H      5.181035    5.914540   -0.704903
  C      3.017901    2.812974    2.015765
  O      4.075858    2.295506    2.445559
  O      1.881980    2.793400    2.539240
  C     -3.723706    1.413628   -0.561330
  C     -4.853997    1.442244    0.228035
  C     -3.618021    0.387959   -1.537322
  C     -5.879397    0.482015    0.098398
  H     -4.965003    2.217489    0.975750
  C     -4.596796   -0.552469   -1.696734
  H     -2.744588    0.362525   -2.177147
  C     -5.754480   -0.542060   -0.887587
  H     -4.497315   -1.322590   -2.453987
  C     -0.870074   -1.996266   -0.056955
  C     -1.888836   -1.797010    0.849629
  C     -0.988029   -3.077000   -0.967311
  C     -3.031257   -2.621960    0.885340
  H     -1.824023   -0.984223    1.564456
  C     -2.086501   -3.892243   -0.967036
  H     -0.190854   -3.243703   -1.679910
  C     -3.140148   -3.696765   -0.046492
  H     -2.163437   -4.705839   -1.679713
  C      4.156124   -1.309270    0.013768
  C      5.139404   -0.534617    0.689918
  C      4.551412   -2.509256   -0.546396
  C      6.438026   -0.950427    0.781717
  H      4.840235    0.395836    1.164806
  C      5.884479   -2.962508   -0.471454
  H      3.827403   -3.121419   -1.065402
  H      7.166748   -0.347365    1.312293
  C     -7.029321    0.492512    0.920290
  C     -8.007660   -0.456400    0.775371
  H     -8.882038   -0.435276    1.414160
  C     -7.885633   -1.460763   -0.202991
  H     -8.666019   -2.204260   -0.308811
  C     -6.782354   -1.499895   -1.015957
  H     -6.678993   -2.274082   -1.768377
  H     -7.123034    1.268798    1.671286
  C     -4.077842   -2.418145    1.813783
  C     -5.178066   -3.234617    1.823916
  H     -5.972498   -3.066478    2.540762
  C     -5.286567   -4.291480    0.900246
  H     -6.163920   -4.926542    0.914017
  C     -4.289926   -4.514856   -0.014351
  H     -4.368994   -5.327981   -0.727267
  H     -3.992801   -1.599218    2.519792
  C      6.857695   -2.170690    0.207824
  C      8.188019   -2.634201    0.284332
  C      8.551314   -3.825776   -0.288032
  H      9.575875   -4.170440   -0.223255
  C      7.594642   -4.606959   -0.963257
  H      7.892053   -5.546462   -1.412562
  C      6.294091   -4.185260   -1.051863
  H      5.555063   -4.786601   -1.569286
  H      8.919964   -2.027592    0.805834

 Total Charge           Charge          ....   -2
 Multiplicity           Mult            ....    1
 Number of Electrons    NEL             ....  370
 Basis Dimension        Dim             .... 1873

ORBITAL ENERGIES
----------------

  NO   OCC          E(Eh)            E(eV)
   0   2.0000     -19.779317      -538.2226
   1   2.0000     -19.652770      -534.7791
   2   2.0000     -19.652541      -534.7728
   3   2.0000     -19.635536      -534.3101
   4   2.0000     -19.635277      -534.3030
   5   2.0000     -10.689362      -290.8723
   6   2.0000     -10.687791      -290.8296
   7   2.0000     -10.682583      -290.6879
   8   2.0000     -10.669769      -290.3392
   9   2.0000     -10.667254      -290.2707
  10   2.0000     -10.657763      -290.0125
  11   2.0000     -10.624876      -289.1176
  12   2.0000     -10.617593      -288.9194
  13   2.0000     -10.617249      -288.9100
  14   2.0000     -10.617247      -288.9100
  15   2.0000     -10.617057      -288.9048
  16   2.0000     -10.617012      -288.9036
  17   2.0000     -10.616851      -288.8992
  18   2.0000     -10.616804      -288.8979
  19   2.0000     -10.616242      -288.8826
  20   2.0000     -10.616108      -288.8790
  21   2.0000     -10.616049      -288.8774
  22   2.0000     -10.613688      -288.8131
  23   2.0000     -10.613350      -288.8039
  24   2.0000     -10.612706      -288.7864
  25   2.0000     -10.612146      -288.7712
  26   2.0000     -10.611933      -288.7654
  27   2.0000     -10.610352      -288.7224
  28   2.0000     -10.610021      -288.7133
  29   2.0000     -10.609931      -288.7109
  30   2.0000     -10.609363      -288.6954
  31   2.0000     -10.609199      -288.6910
  32   2.0000     -10.609123      -288.6889
  33   2.0000     -10.609082      -288.6878
  34   2.0000     -10.608799      -288.6801
  35   2.0000     -10.608565      -288.6737
  36   2.0000     -10.608536      -288.6729
  37   2.0000     -10.608369      -288.6684
  38   2.0000     -10.607900      -288.6556
  39   2.0000     -10.607520      -288.6453
  40   2.0000     -10.607025      -288.6318
  41   2.0000     -10.606382      -288.6143
  42   2.0000     -10.606250      -288.6107
  43   2.0000     -10.606115      -288.6071
  44   2.0000     -10.605950      -288.6026
  45   2.0000     -10.605024      -288.5774
  46   2.0000     -10.604936      -288.5750
  47   2.0000     -10.604765      -288.5703
  48   2.0000     -10.603686      -288.5410
  49   2.0000     -10.603201      -288.5278
  50   2.0000     -10.602827      -288.5176
  51   2.0000     -10.601746      -288.4882
  52   2.0000     -10.598463      -288.3988
  53   2.0000     -10.597622      -288.3759
  54   2.0000     -10.592133      -288.2266
  55   2.0000      -1.248600       -33.9761
  56   2.0000      -1.145809       -31.1791
  57   2.0000      -1.126240       -30.6466
  58   2.0000      -1.122866       -30.5547
  59   2.0000      -1.051110       -28.6022
  60   2.0000      -0.999205       -27.1897
  61   2.0000      -0.997584       -27.1456
  62   2.0000      -0.997235       -27.1361
  63   2.0000      -0.995978       -27.1019
  64   2.0000      -0.976181       -26.5632
  65   2.0000      -0.967006       -26.3136
  66   2.0000      -0.945425       -25.7263
  67   2.0000      -0.943930       -25.6856
  68   2.0000      -0.935185       -25.4477
  69   2.0000      -0.906009       -24.6538
  70   2.0000      -0.894836       -24.3497
  71   2.0000      -0.885426       -24.0937
  72   2.0000      -0.882136       -24.0041
  73   2.0000      -0.878559       -23.9068
  74   2.0000      -0.868630       -23.6366
  75   2.0000      -0.858346       -23.3568
  76   2.0000      -0.857604       -23.3366
  77   2.0000      -0.847126       -23.0515
  78   2.0000      -0.836592       -22.7648
  79   2.0000      -0.829185       -22.5633
  80   2.0000      -0.826757       -22.4972
  81   2.0000      -0.820176       -22.3181
  82   2.0000      -0.808658       -22.0047
  83   2.0000      -0.804228       -21.8842
  84   2.0000      -0.745721       -20.2921
  85   2.0000      -0.741818       -20.1859
  86   2.0000      -0.726397       -19.7663
  87   2.0000      -0.719926       -19.5902
  88   2.0000      -0.710157       -19.3244
  89   2.0000      -0.707370       -19.2485
  90   2.0000      -0.703778       -19.1508
  91   2.0000      -0.700335       -19.0571
  92   2.0000      -0.695474       -18.9248
  93   2.0000      -0.686419       -18.6784
  94   2.0000      -0.678907       -18.4740
  95   2.0000      -0.678218       -18.4553
  96   2.0000      -0.676840       -18.4177
  97   2.0000      -0.661268       -17.9940
  98   2.0000      -0.657372       -17.8880
  99   2.0000      -0.620947       -16.8968
 100   2.0000      -0.611439       -16.6381
 101   2.0000      -0.607599       -16.5336
 102   2.0000      -0.595202       -16.1963
 103   2.0000      -0.584412       -15.9026
 104   2.0000      -0.583649       -15.8819
 105   2.0000      -0.583163       -15.8687
 106   2.0000      -0.582202       -15.8425
 107   2.0000      -0.575545       -15.6614
 108   2.0000      -0.573776       -15.6132
 109   2.0000      -0.567986       -15.4557
 110   2.0000      -0.553890       -15.0721
 111   2.0000      -0.551143       -14.9974
 112   2.0000      -0.548260       -14.9189
 113   2.0000      -0.539715       -14.6864
 114   2.0000      -0.537374       -14.6227
 115   2.0000      -0.525547       -14.3009
 116   2.0000      -0.523971       -14.2580
 117   2.0000      -0.515848       -14.0369
 118   2.0000      -0.512280       -13.9399
 119   2.0000      -0.509194       -13.8559
 120   2.0000      -0.508988       -13.8503
 121   2.0000      -0.508056       -13.8249
 122   2.0000      -0.504378       -13.7248
 123   2.0000      -0.501156       -13.6372
 124   2.0000      -0.493776       -13.4363
 125   2.0000      -0.492196       -13.3933
 126   2.0000      -0.490678       -13.3520
 127   2.0000      -0.485747       -13.2179
 128   2.0000      -0.480512       -13.0754
 129   2.0000      -0.478959       -13.0331
 130   2.0000      -0.476941       -12.9782
 131   2.0000      -0.474973       -12.9247
 132   2.0000      -0.474569       -12.9137
 133   2.0000      -0.472686       -12.8624
 134   2.0000      -0.467518       -12.7218
 135   2.0000      -0.466135       -12.6842
 136   2.0000      -0.464616       -12.6428
 137   2.0000      -0.462020       -12.5722
 138   2.0000      -0.459052       -12.4914
 139   2.0000      -0.451783       -12.2937
 140   2.0000      -0.449601       -12.2343
 141   2.0000      -0.446126       -12.1397
 142   2.0000      -0.443457       -12.0671
 143   2.0000      -0.442335       -12.0366
 144   2.0000      -0.435175       -11.8417
 145   2.0000      -0.433861       -11.8060
 146   2.0000      -0.429585       -11.6896
 147   2.0000      -0.425722       -11.5845
 148   2.0000      -0.423454       -11.5228
 149   2.0000      -0.421646       -11.4736
 150   2.0000      -0.419324       -11.4104
 151   2.0000      -0.414034       -11.2664
 152   2.0000      -0.407004       -11.0752
 153   2.0000      -0.399279       -10.8649
 154   2.0000      -0.394043       -10.7225
 155   2.0000      -0.393213       -10.6999
 156   2.0000      -0.389152       -10.5894
 157   2.0000      -0.384855       -10.4724
 158   2.0000      -0.382060       -10.3964
 159   2.0000      -0.381192       -10.3728
 160   2.0000      -0.378706       -10.3051
 161   2.0000      -0.377694       -10.2776
 162   2.0000      -0.372809       -10.1446
 163   2.0000      -0.369281       -10.0486
 164   2.0000      -0.366941        -9.9850
 165   2.0000      -0.329487        -8.9658
 166   2.0000      -0.326437        -8.8828
 167   2.0000      -0.326376        -8.8811
 168   2.0000      -0.309581        -8.4241
 169   2.0000      -0.304479        -8.2853
 170   2.0000      -0.301127        -8.1941
 171   2.0000      -0.293057        -7.9745
 172   2.0000      -0.289518        -7.8782
 173   2.0000      -0.288492        -7.8503
 174   2.0000      -0.285243        -7.7618
 175   2.0000      -0.283074        -7.7028
 176   2.0000      -0.277661        -7.5555
 177   2.0000      -0.268996        -7.3197
 178   2.0000      -0.266848        -7.2613
 179   2.0000      -0.259582        -7.0636
 180   2.0000      -0.253135        -6.8882
 181   2.0000      -0.243320        -6.6211
 182   2.0000      -0.236567        -6.4373
 183   2.0000      -0.225421        -6.1340
 184   2.0000      -0.195880        -5.3302
 185   0.0000      -0.023598        -0.6421
 186   0.0000       0.008047         0.2190
 187   0.0000       0.012071         0.3285
 188   0.0000       0.014404         0.3919
 189   0.0000       0.029597         0.8054

MULLIKEN ATOMIC CHARGES
-----------------------
   0 C :    0.299399
   1 C :   -0.161348
   2 C :    0.287817
   3 C :    0.075012
   4 C :   -0.223643
   5 C :   -0.348661
   6 C :    0.413702
   7 C :    0.104287
   8 C :    0.247426
   9 C :   -0.071997
  10 C :    0.230674
  11 C :   -0.000525
  12 C :   -0.305967
  13 H :    0.170414
  14 H :    0.119688
  15 H :    0.188168
  16 O :   -0.280401
  17 O :   -0.546226
  18 O :   -0.551969
  19 C :   -0.009394
  20 C :   -0.352094
  21 C :   -0.112645
  22 C :   -0.132919
  23 H :    0.154444
  24 C :   -0.191039
  25 C :   -0.174877
  26 H :    0.155803
  27 H :    0.146229
  28 H :    0.154028
  29 C :    0.320044
  30 O :   -0.583491
  31 O :   -0.580965
  32 C :    0.128051
  33 C :   -0.276575
  34 C :   -0.185306
  35 C :    0.146482
  36 H :    0.125819
  37 C :   -0.297231
  38 H :    0.143202
  39 C :    0.206366
  40 H :    0.143072
  41 C :    0.059672
  42 C :   -0.296490
  43 C :   -0.208366
  44 C :    0.217802
  45 H :    0.136196
  46 C :   -0.284357
  47 H :    0.138587
  48 C :    0.157058
  49 H :    0.144696
  50 C :    0.093918
  51 C :   -0.242975
  52 C :   -0.281210
  53 C :   -0.282571
  54 H :    0.175829
  55 C :    0.177704
  56 H :    0.133247
  57 H :    0.144689
  58 C :   -0.287772
  59 C :   -0.148375
  60 H :    0.153202
  61 C :   -0.152284
  62 H :    0.152508
  63 C :   -0.242646
  64 H :    0.147967
  65 H :    0.150903
  66 C :   -0.330871
  67 C :   -0.114121
  68 H :    0.151729
  69 C :   -0.168389
  70 H :    0.151794
  71 C :   -0.239262
  72 H :    0.149558
  73 H :    0.146890
  74 C :    0.154908
  75 C :   -0.247877
  76 C :   -0.150702
  77 H :    0.155255
  78 C :   -0.145318
  79 H :    0.154679
  80 C :   -0.300247
  81 H :    0.150304
  82 H :    0.151880
Sum of atomic charges:   -2.0000000

LOEWDIN ATOMIC CHARGES
----------------------
   0 C :   -0.327483
   1 C :   -0.097844
   2 C :   -0.126797
   3 C :   -0.115507
   4 C :   -0.096728
   5 C :   -0.152958
   6 C :    0.029979
   7 C :   -0.111637
   8 C :   -0.129198
   9 C :   -0.095572
  10 C :   -0.281091
  11 C :   -0.100273
  12 C :   -0.045988
  13 H :    0.161894
  14 H :    0.144271
  15 H :    0.169295
  16 O :    0.372995
  17 O :   -0.047014
  18 O :   -0.070677
  19 C :   -0.068826
  20 C :   -0.099639
  21 C :   -0.080191
  22 C :   -0.149613
  23 H :    0.158535
  24 C :   -0.114078
  25 C :   -0.145148
  26 H :    0.150381
  27 H :    0.152621
  28 H :    0.149951
  29 C :   -0.614203
  30 O :   -0.120840
  31 O :   -0.108849
  32 C :   -0.108377
  33 C :   -0.062931
  34 C :   -0.102047
  35 C :   -0.104981
  36 H :    0.156356
  37 C :   -0.111756
  38 H :    0.154248
  39 C :   -0.107880
  40 H :    0.154088
  41 C :   -0.106073
  42 C :   -0.063295
  43 C :   -0.102102
  44 C :   -0.105306
  45 H :    0.157908
  46 C :   -0.116040
  47 H :    0.153498
  48 C :   -0.107849
  49 H :    0.153007
  50 C :   -0.109879
  51 C :   -0.111237
  52 C :   -0.068484
  53 C :   -0.115265
  54 H :    0.155264
  55 C :   -0.105236
  56 H :    0.155657
  57 H :    0.153688
  58 C :   -0.111362
  59 C :   -0.154932
  60 H :    0.149350
  61 C :   -0.154388
  62 H :    0.149138
  63 C :   -0.108712
  64 H :    0.153678
  65 H :    0.153503
  66 C :   -0.106968
  67 C :   -0.151675
  68 H :    0.149370
  69 C :   -0.153125
  70 H :    0.149160
  71 C :   -0.112517
  72 H :    0.153366
  73 H :    0.154174
  74 C :   -0.107958
  75 C :   -0.111617
  76 C :   -0.154969
  77 H :    0.149361
  78 C :   -0.154393
  79 H :    0.149622
  80 C :   -0.110395
  81 H :    0.153664
  82 H :    0.153881

  Mayer bond orders larger than 0.100000
B(  0-C ,  1-C ) :   0.9953 B(  0-C ,  5-C ) :   1.1872 B(  0-C , 18-O ) :   1.9349
B(  1-C ,  2-C ) :   1.3309 B(  1-C , 18-O ) :  -0.1310 B(  1-C , 32-C ) :   0.8595
B(  2-C ,  3-C ) :   1.2648 B(  2-C , 16-O ) :   1.0515 B(  3-C ,  4-C ) :   1.1514
B(  3-C ,  6-C ) :   1.1917 B(  4-C ,  5-C ) :   1.6252 B(  4-C , 13-H ) :   0.9613
B(  5-C , 14-H ) :   1.0086 B(  6-C ,  7-C ) :   1.1389 B(  6-C , 19-C ) :   0.6745
B(  6-C , 21-C ) :  -0.1285 B(  7-C ,  8-C ) :   1.2619 B(  7-C , 12-C ) :   1.1640
B(  8-C ,  9-C ) :   1.4349 B(  8-C , 16-O ) :   1.0795 B(  9-C , 10-C ) :   1.0828
B(  9-C , 17-O ) :  -0.1839 B(  9-C , 41-C ) :   0.8173 B( 10-C , 11-C ) :   1.0956
B( 10-C , 17-O ) :   1.9914 B( 11-C , 12-C ) :   1.5485 B( 11-C , 17-O ) :  -0.1441
B( 11-C , 50-C ) :   0.8750 B( 12-C , 15-H ) :   0.9395 B( 19-C , 20-C ) :   1.3863
B( 19-C , 21-C ) :   1.3384 B( 20-C , 22-C ) :   1.4336 B( 20-C , 23-H ) :   0.9966
B( 21-C , 24-C ) :   1.4028 B( 21-C , 29-C ) :   0.8646 B( 21-C , 30-O ) :  -0.1534
B( 22-C , 25-C ) :   1.3793 B( 22-C , 26-H ) :   0.9843 B( 24-C , 25-C ) :   1.4046
B( 24-C , 27-H ) :   0.9819 B( 25-C , 28-H ) :   0.9846 B( 29-C , 30-O ) :   1.8004
B( 29-C , 31-O ) :   1.8706 B( 30-O , 54-H ) :   0.1012 B( 32-C , 33-C ) :   1.4979
B( 32-C , 34-C ) :   1.1835 B( 33-C , 35-C ) :   1.2376 B( 33-C , 36-H ) :   0.9982
B( 34-C , 37-C ) :   1.5749 B( 34-C , 38-H ) :   0.9925 B( 35-C , 39-C ) :   1.2166
B( 35-C , 58-C ) :   1.2264 B( 37-C , 39-C ) :   1.1647 B( 37-C , 40-H ) :   1.0072
B( 39-C , 63-C ) :   1.2135 B( 41-C , 42-C ) :   1.4842 B( 41-C , 43-C ) :   1.2165
B( 42-C , 44-C ) :   1.2401 B( 42-C , 45-H ) :   1.0006 B( 43-C , 46-C ) :   1.5706
B( 43-C , 47-H ) :   0.9930 B( 44-C , 48-C ) :   1.2175 B( 44-C , 66-C ) :   1.1940
B( 46-C , 48-C ) :   1.1895 B( 46-C , 49-H ) :   1.0031 B( 48-C , 71-C ) :   1.2237
B( 50-C , 51-C ) :   1.2202 B( 50-C , 52-C ) :   1.4845 B( 51-C , 53-C ) :   1.6031
B( 51-C , 54-H ) :   0.9207 B( 52-C , 55-C ) :   1.2257 B( 52-C , 56-H ) :   0.9876
B( 53-C , 57-H ) :   1.0017 B( 53-C , 74-C ) :   1.1904 B( 55-C , 74-C ) :   1.2479
B( 55-C , 80-C ) :   1.2172 B( 58-C , 59-C ) :   1.5498 B( 58-C , 65-H ) :   0.9892
B( 59-C , 60-H ) :   0.9856 B( 59-C , 61-C ) :   1.2403 B( 61-C , 62-H ) :   0.9866
B( 61-C , 63-C ) :   1.5294 B( 63-C , 64-H ) :   0.9947 B( 66-C , 67-C ) :   1.5401
B( 66-C , 73-H ) :   0.9956 B( 67-C , 68-H ) :   0.9873 B( 67-C , 69-C ) :   1.2326
B( 69-C , 70-H ) :   0.9894 B( 69-C , 71-C ) :   1.5318 B( 71-C , 72-H ) :   0.9940
B( 74-C , 75-C ) :   1.2314 B( 75-C , 76-C ) :   1.5402 B( 75-C , 82-H ) :   0.9878
B( 76-C , 77-H ) :   0.9821 B( 76-C , 78-C ) :   1.2437 B( 78-C , 79-H ) :   0.9828
B( 78-C , 80-C ) :   1.5561 B( 80-C , 81-H ) :   0.9895

MP2 TOTAL ENERGY:    -2297.622095169 Eh

-----------------------------------------------------------------------------
         ABSORPTION SPECTRUM VIA TRANSITION ELECTRIC DIPOLE MOMENTS
-----------------------------------------------------------------------------
State   Energy    Wavelength  fosc         T2        TX        TY        TZ
        (cm-1)      (nm)                 (au**2)    (au)      (au)      (au)
-----------------------------------------------------------------------------
   1   19240.2    519.7   0.932312991  15.95244   2.82517  -2.81531   0.21185
   2   24201.2    413.2   0.127731174   1.73754  -1.28946  -0.16402   0.21894
   3   25358.7    394.3   0.204372484   2.65320   1.59338  -0.05285  -0.33401
   4   27545.6    363.0   0.079613646   0.95150  -0.61447  -0.75223   0.08994
   5   29161.9    342.9   0.069872262   0.78880   0.50084   0.72914  -0.07942
   6   28743.5    347.9   0.129213883   1.47994  -0.84826  -0.86660   0.09696
   7   30655.2    326.2   0.103747181   1.11416  -0.59198  -0.80459  -0.34113
   8   29520.0    338.8   0.047012460   0.52429   0.71255  -0.02198  -0.12681
   9   30133.4    331.9   0.024785684   0.27079  -0.22637  -0.45869  -0.09563
  10   30867.7    324.0   0.029713445   0.31690   0.41866  -0.32750   0.18539
  11   32520.6    307.5   0.016618454   0.16823   0.13399   0.27399   0.27425
  12   33352.7    299.8   0.147827122   1.45915  -0.89914   0.46821   0.65687
  13   28560.7    350.1   0.036333328   0.41880  -0.32225  -0.48715  -0.27865
  14   30067.5    332.6   0.068806655   0.75337  -0.71642  -0.45241  -0.18827
  15   32169.8    310.9   0.034806568   0.35620  -0.48249  -0.32792  -0.12595
  16   29412.5    340.0   0.062457911   0.69909   0.73872   0.38553  -0.06890
  17   32061.9    311.9   0.101323226   1.04039   1.00732   0.02261   0.15870
  18   32907.7    303.9   0.058450727   0.58475   0.39847   0.65263   0.00634
  19   33474.5    298.7   0.168913161   1.66121  -0.21547   1.26438  -0.12697
  20   32511.2    307.6   0.052547423   0.53210   0.71252   0.14757  -0.05139
  21   32663.6    306.2   0.096996319   0.97761   0.69276   0.70021   0.08602
  22   33559.1    298.0   0.068483603   0.67182   0.81877  -0.03780   0.00285
  23   33332.8    300.0   0.050780620   0.50154   0.67565   0.00792   0.21205
  24   32606.3    306.7   0.033798864   0.34125   0.25464   0.50905   0.13145
  25   34579.5    289.2   0.133954166   1.27530  -0.72318  -0.86551  -0.05654
  26   34797.3    287.4   0.027304764   0.25833  -0.23778   0.44906  -0.01142
  27   35179.1    284.3   0.458767369   4.29322  -2.06772   0.08186   0.10512
  28   36191.2    276.3   0.414606101   3.77145  -1.47275   1.26585  -0.01011
  29   32440.8    308.3   0.002165870   0.02198   0.05470  -0.02290   0.13588
  30   36161.6    276.5   0.004970425   0.04525  -0.11348  -0.13502  -0.11892

Dispersion correction           -0.117721810
FINAL SINGLE POINT ENERGY     -2294.712066754342

DIPOLE MOMENT
-------------
                                X             Y             Z
Electronic contribution:      1.84044       9.06377       0.52020
Nuclear contribution   :     -3.62887     -12.98899      -4.91127
                        -----------------------------------------
Total Dipole Moment    :     -1.78844      -3.92522      -4.39106
                        -----------------------------------------
Magnitude (a.u.)       :      6.15527
Magnitude (Debye)      :     15.64544

Rotational constants in cm-1:     0.002528     0.001161     0.000850
Rotational constants in MHz :    75.778822    34.796270    25.496660

                             ****ORCA TERMINATED NORMALLY****
TOTAL RUN TIME: 0 days 20 hours 16 minutes 58 seconds 729 msec
