                         Program Version 5.0.2 -  RELEASE  -
|  1> %maxcore 20000
|  2> %pal
|  3>  nprocs= 4
|  4> end
|  5> ! RI-wPBEPP86   def2-TZVP def2/J def2-TZVP/C RIJCOSX CPCM TightSCF
|  6> %TDDFT
|  7>    NROOTS   30
|  8>    dcorr 1
|  9>    TDA      FALSE
| 10> END
| 11>
| 12>  %CPCM
| 13>    SMD          TRUE
| 14>    SMDsolvent   "ACETONITRILE"
| 15>  END
| 16>
| 17>
| 18> * xyz -2 1
| 19>  C -3.021889 3.845082 -0.412279
| 20>  C -2.670618 2.435301 -0.435900
| 21>  C -1.338877 2.078139 -0.351790
| 22>  C -0.261988 3.002393 -0.306931
| 23>  C -0.618807 4.377008 -0.290805
| 24>  C -1.915100 4.774589 -0.336421
| 25>  C 1.056534 2.527055 -0.248409
| 26>  C 1.287357 1.141094 -0.197827
| 27>  C 0.183866 0.251934 -0.177149
| 28>  C 0.314103 -1.117620 -0.097666
| 29>  C 1.633556 -1.716982 -0.043436
| 30>  C 2.779347 -0.801316 -0.075467
| 31>  C 2.568460 0.550215 -0.156436
| 32>  H 0.173164 5.113184 -0.225871
| 33>  H -2.170444 5.827748 -0.312236
| 34>  H 3.425754 1.209587 -0.204065
| 35>  O -1.079149 0.744841 -0.276092
| 36>  O 1.773266 -2.954258 0.058640
| 37>  O -4.202988 4.251775 -0.462231
| 38>  C 2.194005 3.472354 -0.317641
| 39>  C 2.350359 4.234695 -1.477882
| 40>  C 3.141981 3.585655 0.711389
| 41>  C 3.411829 5.113435 -1.622431
| 42>  H 1.627795 4.125491 -2.278755
| 43>  C 4.214877 4.457657 0.538758
| 44>  C 4.347900 5.229337 -0.604349
| 45>  H 3.508708 5.698645 -2.528336
| 46>  H 4.950074 4.523332 1.332256
| 47>  H 5.181035 5.914540 -0.704903
| 48>  C 3.017901 2.812974 2.015765
| 49>  O 4.075858 2.295506 2.445559
| 50>  O 1.881980 2.793400 2.539240
| 51>  C -3.723706 1.413628 -0.561330
| 52>  C -4.853997 1.442244 0.228035
| 53>  C -3.618021 0.387959 -1.537322
| 54>  C -5.879397 0.482015 0.098398
| 55>  H -4.965003 2.217489 0.975750
| 56>  C -4.596796 -0.552469 -1.696734
| 57>  H -2.744588 0.362525 -2.177147
| 58>  C -5.754480 -0.542060 -0.887587
| 59>  H -4.497315 -1.322590 -2.453987
| 60>  C -0.870074 -1.996266 -0.056955
| 61>  C -1.888836 -1.797010 0.849629
| 62>  C -0.988029 -3.077000 -0.967311
| 63>  C -3.031257 -2.621960 0.885340
| 64>  H -1.824023 -0.984223 1.564456
| 65>  C -2.086501 -3.892243 -0.967036
| 66>  H -0.190854 -3.243703 -1.679910
| 67>  C -3.140148 -3.696765 -0.046492
| 68>  H -2.163437 -4.705839 -1.679713
| 69>  C 4.156124 -1.309270 0.013768
| 70>  C 5.139404 -0.534617 0.689918
| 71>  C 4.551412 -2.509256 -0.546396
| 72>  C 6.438026 -0.950427 0.781717
| 73>  H 4.840235 0.395836 1.164806
| 74>  C 5.884479 -2.962508 -0.471454
| 75>  H 3.827403 -3.121419 -1.065402
| 76>  H 7.166748 -0.347365 1.312293
| 77>  C -7.029321 0.492512 0.920290
| 78>  C -8.007660 -0.456400 0.775371
| 79>  H -8.882038 -0.435276 1.414160
| 80>  C -7.885633 -1.460763 -0.202991
| 81>  H -8.666019 -2.204260 -0.308811
| 82>  C -6.782354 -1.499895 -1.015957
| 83>  H -6.678993 -2.274082 -1.768377
| 84>  H -7.123034 1.268798 1.671286
| 85>  C -4.077842 -2.418145 1.813783
| 86>  C -5.178066 -3.234617 1.823916
| 87>  H -5.972498 -3.066478 2.540762
| 88>  C -5.286567 -4.291480 0.900246
| 89>  H -6.163920 -4.926542 0.914017
| 90>  C -4.289926 -4.514856 -0.014351
| 91>  H -4.368994 -5.327981 -0.727267
| 92>  H -3.992801 -1.599218 2.519792
| 93>  C 6.857695 -2.170690 0.207824
| 94>  C 8.188019 -2.634201 0.284332
| 95>  C 8.551314 -3.825776 -0.288032
| 96>  H 9.575875 -4.170440 -0.223255
| 97>  C 7.594642 -4.606959 -0.963257
| 98>  H 7.892053 -5.546462 -1.412562
| 99>  C 6.294091 -4.185260 -1.051863
|100>  H 5.555063 -4.786601 -1.569286
|101>  H 8.919964 -2.027592 0.805834
|102> *
|103>
|104>
|105>
|106>
|107>                          ****END OF INPUT****

CARTESIAN COORDINATES (ANGSTROEM)
---------------------------------
  C     -3.021889    3.845082   -0.412279
  C     -2.670618    2.435301   -0.435900
  C     -1.338877    2.078139   -0.351790
  C     -0.261988    3.002393   -0.306931
  C     -0.618807    4.377008   -0.290805
  C     -1.915100    4.774589   -0.336421
  C      1.056534    2.527055   -0.248409
  C      1.287357    1.141094   -0.197827
  C      0.183866    0.251934   -0.177149
  C      0.314103   -1.117620   -0.097666
  C      1.633556   -1.716982   -0.043436
  C      2.779347   -0.801316   -0.075467
  C      2.568460    0.550215   -0.156436
  H      0.173164    5.113184   -0.225871
  H     -2.170444    5.827748   -0.312236
  H      3.425754    1.209587   -0.204065
  O     -1.079149    0.744841   -0.276092
  O      1.773266   -2.954258    0.058640
  O     -4.202988    4.251775   -0.462231
  C      2.194005    3.472354   -0.317641
  C      2.350359    4.234695   -1.477882
  C      3.141981    3.585655    0.711389
  C      3.411829    5.113435   -1.622431
  H      1.627795    4.125491   -2.278755
  C      4.214877    4.457657    0.538758
  C      4.347900    5.229337   -0.604349
  H      3.508708    5.698645   -2.528336
  H      4.950074    4.523332    1.332256
  H      5.181035    5.914540   -0.704903
  C      3.017901    2.812974    2.015765
  O      4.075858    2.295506    2.445559
  O      1.881980    2.793400    2.539240
  C     -3.723706    1.413628   -0.561330
  C     -4.853997    1.442244    0.228035
  C     -3.618021    0.387959   -1.537322
  C     -5.879397    0.482015    0.098398
  H     -4.965003    2.217489    0.975750
  C     -4.596796   -0.552469   -1.696734
  H     -2.744588    0.362525   -2.177147
  C     -5.754480   -0.542060   -0.887587
  H     -4.497315   -1.322590   -2.453987
  C     -0.870074   -1.996266   -0.056955
  C     -1.888836   -1.797010    0.849629
  C     -0.988029   -3.077000   -0.967311
  C     -3.031257   -2.621960    0.885340
  H     -1.824023   -0.984223    1.564456
  C     -2.086501   -3.892243   -0.967036
  H     -0.190854   -3.243703   -1.679910
  C     -3.140148   -3.696765   -0.046492
  H     -2.163437   -4.705839   -1.679713
  C      4.156124   -1.309270    0.013768
  C      5.139404   -0.534617    0.689918
  C      4.551412   -2.509256   -0.546396
  C      6.438026   -0.950427    0.781717
  H      4.840235    0.395836    1.164806
  C      5.884479   -2.962508   -0.471454
  H      3.827403   -3.121419   -1.065402
  H      7.166748   -0.347365    1.312293
  C     -7.029321    0.492512    0.920290
  C     -8.007660   -0.456400    0.775371
  H     -8.882038   -0.435276    1.414160
  C     -7.885633   -1.460763   -0.202991
  H     -8.666019   -2.204260   -0.308811
  C     -6.782354   -1.499895   -1.015957
  H     -6.678993   -2.274082   -1.768377
  H     -7.123034    1.268798    1.671286
  C     -4.077842   -2.418145    1.813783
  C     -5.178066   -3.234617    1.823916
  H     -5.972498   -3.066478    2.540762
  C     -5.286567   -4.291480    0.900246
  H     -6.163920   -4.926542    0.914017
  C     -4.289926   -4.514856   -0.014351
  H     -4.368994   -5.327981   -0.727267
  H     -3.992801   -1.599218    2.519792
  C      6.857695   -2.170690    0.207824
  C      8.188019   -2.634201    0.284332
  C      8.551314   -3.825776   -0.288032
  H      9.575875   -4.170440   -0.223255
  C      7.594642   -4.606959   -0.963257
  H      7.892053   -5.546462   -1.412562
  C      6.294091   -4.185260   -1.051863
  H      5.555063   -4.786601   -1.569286
  H      8.919964   -2.027592    0.805834

 Total Charge           Charge          ....   -2
 Multiplicity           Mult            ....    1
 Number of Electrons    NEL             ....  370
 Basis Dimension        Dim             .... 1873

ORBITAL ENERGIES
----------------

  NO   OCC          E(Eh)            E(eV)
   0   2.0000     -20.119715      -547.4853
   1   2.0000     -19.987896      -543.8983
   2   2.0000     -19.987095      -543.8765
   3   2.0000     -19.969841      -543.4070
   4   2.0000     -19.969483      -543.3973
   5   2.0000     -10.948545      -297.9251
   6   2.0000     -10.946846      -297.8788
   7   2.0000     -10.937265      -297.6181
   8   2.0000     -10.927215      -297.3446
   9   2.0000     -10.924090      -297.2596
  10   2.0000     -10.919860      -297.1445
  11   2.0000     -10.880455      -296.0722
  12   2.0000     -10.871994      -295.8420
  13   2.0000     -10.871581      -295.8307
  14   2.0000     -10.871493      -295.8284
  15   2.0000     -10.871364      -295.8249
  16   2.0000     -10.870940      -295.8133
  17   2.0000     -10.870900      -295.8122
  18   2.0000     -10.870846      -295.8108
  19   2.0000     -10.870632      -295.8049
  20   2.0000     -10.869945      -295.7862
  21   2.0000     -10.869797      -295.7822
  22   2.0000     -10.869764      -295.7813
  23   2.0000     -10.867102      -295.7089
  24   2.0000     -10.866418      -295.6903
  25   2.0000     -10.865316      -295.6603
  26   2.0000     -10.864003      -295.6246
  27   2.0000     -10.862803      -295.5919
  28   2.0000     -10.862309      -295.5785
  29   2.0000     -10.861874      -295.5666
  30   2.0000     -10.861749      -295.5632
  31   2.0000     -10.861666      -295.5610
  32   2.0000     -10.861574      -295.5584
  33   2.0000     -10.861319      -295.5515
  34   2.0000     -10.861276      -295.5503
  35   2.0000     -10.860875      -295.5394
  36   2.0000     -10.860533      -295.5301
  37   2.0000     -10.860206      -295.5212
  38   2.0000     -10.860148      -295.5197
  39   2.0000     -10.859647      -295.5060
  40   2.0000     -10.859268      -295.4957
  41   2.0000     -10.859152      -295.4925
  42   2.0000     -10.858860      -295.4846
  43   2.0000     -10.858828      -295.4837
  44   2.0000     -10.858699      -295.4802
  45   2.0000     -10.857977      -295.4606
  46   2.0000     -10.857662      -295.4520
  47   2.0000     -10.857531      -295.4485
  48   2.0000     -10.856801      -295.4286
  49   2.0000     -10.856331      -295.4158
  50   2.0000     -10.855720      -295.3992
  51   2.0000     -10.854542      -295.3671
  52   2.0000     -10.850756      -295.2641
  53   2.0000     -10.850168      -295.2481
  54   2.0000     -10.843281      -295.0607
  55   2.0000      -1.375103       -37.4185
  56   2.0000      -1.268481       -34.5171
  57   2.0000      -1.247825       -33.9550
  58   2.0000      -1.243995       -33.8508
  59   2.0000      -1.169274       -31.8176
  60   2.0000      -1.113884       -30.3103
  61   2.0000      -1.111451       -30.2441
  62   2.0000      -1.111171       -30.2365
  63   2.0000      -1.109960       -30.2035
  64   2.0000      -1.089369       -29.6432
  65   2.0000      -1.079748       -29.3814
  66   2.0000      -1.056081       -28.7374
  67   2.0000      -1.054593       -28.6969
  68   2.0000      -1.045205       -28.4415
  69   2.0000      -1.015056       -27.6211
  70   2.0000      -1.002564       -27.2812
  71   2.0000      -0.992353       -27.0033
  72   2.0000      -0.988704       -26.9040
  73   2.0000      -0.984958       -26.8021
  74   2.0000      -0.974601       -26.5202
  75   2.0000      -0.964020       -26.2323
  76   2.0000      -0.963234       -26.2109
  77   2.0000      -0.951870       -25.9017
  78   2.0000      -0.940351       -25.5882
  79   2.0000      -0.932384       -25.3715
  80   2.0000      -0.929924       -25.3045
  81   2.0000      -0.922559       -25.1041
  82   2.0000      -0.911207       -24.7952
  83   2.0000      -0.906477       -24.6665
  84   2.0000      -0.843973       -22.9657
  85   2.0000      -0.838728       -22.8229
  86   2.0000      -0.822953       -22.3937
  87   2.0000      -0.815212       -22.1830
  88   2.0000      -0.804726       -21.8977
  89   2.0000      -0.801370       -21.8064
  90   2.0000      -0.798441       -21.7267
  91   2.0000      -0.794203       -21.6114
  92   2.0000      -0.789009       -21.4700
  93   2.0000      -0.779678       -21.2161
  94   2.0000      -0.770483       -20.9659
  95   2.0000      -0.769667       -20.9437
  96   2.0000      -0.768251       -20.9052
  97   2.0000      -0.753369       -20.5002
  98   2.0000      -0.748931       -20.3795
  99   2.0000      -0.710714       -19.3395
 100   2.0000      -0.700388       -19.0585
 101   2.0000      -0.695914       -18.9368
 102   2.0000      -0.683570       -18.6009
 103   2.0000      -0.669551       -18.2194
 104   2.0000      -0.668098       -18.1799
 105   2.0000      -0.667616       -18.1667
 106   2.0000      -0.666918       -18.1478
 107   2.0000      -0.660296       -17.9676
 108   2.0000      -0.657980       -17.9045
 109   2.0000      -0.652860       -17.7652
 110   2.0000      -0.639227       -17.3942
 111   2.0000      -0.634554       -17.2671
 112   2.0000      -0.631899       -17.1948
 113   2.0000      -0.626449       -17.0465
 114   2.0000      -0.621071       -16.9002
 115   2.0000      -0.608456       -16.5569
 116   2.0000      -0.607088       -16.5197
 117   2.0000      -0.597261       -16.2523
 118   2.0000      -0.595976       -16.2173
 119   2.0000      -0.588153       -16.0044
 120   2.0000      -0.587831       -15.9957
 121   2.0000      -0.586901       -15.9704
 122   2.0000      -0.584177       -15.8963
 123   2.0000      -0.581175       -15.8146
 124   2.0000      -0.575934       -15.6720
 125   2.0000      -0.572235       -15.5713
 126   2.0000      -0.571362       -15.5476
 127   2.0000      -0.564248       -15.3540
 128   2.0000      -0.559484       -15.2243
 129   2.0000      -0.556842       -15.1524
 130   2.0000      -0.554600       -15.0914
 131   2.0000      -0.551603       -15.0099
 132   2.0000      -0.550821       -14.9886
 133   2.0000      -0.550206       -14.9719
 134   2.0000      -0.548620       -14.9287
 135   2.0000      -0.545387       -14.8407
 136   2.0000      -0.542589       -14.7646
 137   2.0000      -0.540826       -14.7166
 138   2.0000      -0.537895       -14.6369
 139   2.0000      -0.529775       -14.4159
 140   2.0000      -0.526567       -14.3286
 141   2.0000      -0.525195       -14.2913
 142   2.0000      -0.521112       -14.1802
 143   2.0000      -0.519874       -14.1465
 144   2.0000      -0.512825       -13.9547
 145   2.0000      -0.510383       -13.8882
 146   2.0000      -0.504012       -13.7149
 147   2.0000      -0.501035       -13.6339
 148   2.0000      -0.497141       -13.5279
 149   2.0000      -0.495599       -13.4859
 150   2.0000      -0.494038       -13.4435
 151   2.0000      -0.488000       -13.2792
 152   2.0000      -0.480403       -13.0724
 153   2.0000      -0.471026       -12.8173
 154   2.0000      -0.465655       -12.6711
 155   2.0000      -0.464984       -12.6529
 156   2.0000      -0.463062       -12.6006
 157   2.0000      -0.456875       -12.4322
 158   2.0000      -0.452756       -12.3201
 159   2.0000      -0.451372       -12.2825
 160   2.0000      -0.448784       -12.2120
 161   2.0000      -0.448677       -12.2091
 162   2.0000      -0.444744       -12.1021
 163   2.0000      -0.440577       -11.9887
 164   2.0000      -0.438830       -11.9412
 165   2.0000      -0.394907       -10.7460
 166   2.0000      -0.391934       -10.6651
 167   2.0000      -0.391637       -10.6570
 168   2.0000      -0.378948       -10.3117
 169   2.0000      -0.373175       -10.1546
 170   2.0000      -0.371016       -10.0959
 171   2.0000      -0.368875       -10.0376
 172   2.0000      -0.365299        -9.9403
 173   2.0000      -0.361395        -9.8341
 174   2.0000      -0.353334        -9.6147
 175   2.0000      -0.345588        -9.4039
 176   2.0000      -0.338290        -9.2053
 177   2.0000      -0.333008        -9.0616
 178   2.0000      -0.327426        -8.9097
 179   2.0000      -0.316752        -8.6192
 180   2.0000      -0.311324        -8.4716
 181   2.0000      -0.299021        -8.1368
 182   2.0000      -0.291513        -7.9325
 183   2.0000      -0.281258        -7.6534
 184   2.0000      -0.248037        -6.7494
 185   0.0000       0.005129         0.1396
 186   0.0000       0.040173         1.0932
 187   0.0000       0.044776         1.2184
 188   0.0000       0.047547         1.2938
 189   0.0000       0.062509         1.7010

MULLIKEN ATOMIC CHARGES
-----------------------
   0 C :    0.345372
   1 C :   -0.189275
   2 C :    0.312057
   3 C :    0.059959
   4 C :   -0.233554
   5 C :   -0.394660
   6 C :    0.355496
   7 C :    0.101526
   8 C :    0.285953
   9 C :   -0.121921
  10 C :    0.290953
  11 C :   -0.010781
  12 C :   -0.333104
  13 H :    0.206112
  14 H :    0.157032
  15 H :    0.235363
  16 O :   -0.251940
  17 O :   -0.572495
  18 O :   -0.579344
  19 C :   -0.043360
  20 C :   -0.379241
  21 C :   -0.125970
  22 C :   -0.153902
  23 H :    0.192459
  24 C :   -0.199662
  25 C :   -0.203902
  26 H :    0.185832
  27 H :    0.180780
  28 H :    0.183760
  29 C :    0.348633
  30 O :   -0.607066
  31 O :   -0.597889
  32 C :    0.105980
  33 C :   -0.295656
  34 C :   -0.220124
  35 C :    0.139640
  36 H :    0.167555
  37 C :   -0.331681
  38 H :    0.179385
  39 C :    0.201477
  40 H :    0.178678
  41 C :    0.034478
  42 C :   -0.329961
  43 C :   -0.235162
  44 C :    0.222210
  45 H :    0.177214
  46 C :   -0.309189
  47 H :    0.175571
  48 C :    0.147205
  49 H :    0.177399
  50 C :    0.094739
  51 C :   -0.256043
  52 C :   -0.301599
  53 C :   -0.308424
  54 H :    0.170553
  55 C :    0.166605
  56 H :    0.173165
  57 H :    0.177983
  58 C :   -0.316320
  59 C :   -0.171910
  60 H :    0.182716
  61 C :   -0.177148
  62 H :    0.182335
  63 C :   -0.287029
  64 H :    0.183438
  65 H :    0.182432
  66 C :   -0.366901
  67 C :   -0.152635
  68 H :    0.184196
  69 C :   -0.197332
  70 H :    0.182672
  71 C :   -0.260128
  72 H :    0.180814
  73 H :    0.181407
  74 C :    0.144298
  75 C :   -0.273691
  76 C :   -0.177118
  77 H :    0.184535
  78 C :   -0.171414
  79 H :    0.183880
  80 C :   -0.330927
  81 H :    0.181677
  82 H :    0.182933
Sum of atomic charges:   -2.0000000

LOEWDIN ATOMIC CHARGES
----------------------
   0 C :   -0.321945
   1 C :   -0.105672
   2 C :   -0.120729
   3 C :   -0.125780
   4 C :   -0.094004
   5 C :   -0.158732
   6 C :    0.037125
   7 C :   -0.121882
   8 C :   -0.123431
   9 C :   -0.103284
  10 C :   -0.275826
  11 C :   -0.107284
  12 C :   -0.042357
  13 H :    0.168688
  14 H :    0.151571
  15 H :    0.175357
  16 O :    0.368633
  17 O :   -0.055724
  18 O :   -0.078170
  19 C :   -0.074210
  20 C :   -0.101922
  21 C :   -0.082617
  22 C :   -0.151391
  23 H :    0.165674
  24 C :   -0.115612
  25 C :   -0.146048
  26 H :    0.157150
  27 H :    0.159740
  28 H :    0.156758
  29 C :   -0.607454
  30 O :   -0.128749
  31 O :   -0.115630
  32 C :   -0.114880
  33 C :   -0.065089
  34 C :   -0.106536
  35 C :   -0.110647
  36 H :    0.163235
  37 C :   -0.116787
  38 H :    0.160904
  39 C :   -0.114198
  40 H :    0.161119
  41 C :   -0.112656
  42 C :   -0.066971
  43 C :   -0.105109
  44 C :   -0.111520
  45 H :    0.164822
  46 C :   -0.118891
  47 H :    0.160184
  48 C :   -0.113626
  49 H :    0.159870
  50 C :   -0.115212
  51 C :   -0.114416
  52 C :   -0.071249
  53 C :   -0.117705
  54 H :    0.158848
  55 C :   -0.110486
  56 H :    0.162026
  57 H :    0.160516
  58 C :   -0.114423
  59 C :   -0.158325
  60 H :    0.155909
  61 C :   -0.158075
  62 H :    0.155843
  63 C :   -0.114075
  64 H :    0.160558
  65 H :    0.160226
  66 C :   -0.111686
  67 C :   -0.157097
  68 H :    0.156124
  69 C :   -0.157298
  70 H :    0.155942
  71 C :   -0.115764
  72 H :    0.160144
  73 H :    0.161118
  74 C :   -0.113542
  75 C :   -0.115179
  76 C :   -0.158508
  77 H :    0.155726
  78 C :   -0.157968
  79 H :    0.155980
  80 C :   -0.113978
  81 H :    0.160172
  82 H :    0.160389

  Mayer bond orders larger than 0.100000
B(  0-C ,  1-C ) :   1.0145 B(  0-C ,  5-C ) :   1.1783 B(  0-C , 18-O ) :   1.8887
B(  1-C ,  2-C ) :   1.3518 B(  1-C , 18-O ) :  -0.1171 B(  1-C , 32-C ) :   0.8459
B(  2-C ,  3-C ) :   1.2800 B(  2-C , 16-O ) :   1.0730 B(  3-C ,  4-C ) :   1.1472
B(  3-C ,  6-C ) :   1.2198 B(  4-C ,  5-C ) :   1.6540 B(  4-C , 13-H ) :   0.9456
B(  5-C , 14-H ) :   0.9920 B(  6-C ,  7-C ) :   1.1515 B(  6-C , 19-C ) :   0.6705
B(  6-C , 20-C ) :  -0.1186 B(  6-C , 21-C ) :  -0.1337 B(  7-C ,  8-C ) :   1.2851
B(  7-C , 12-C ) :   1.1659 B(  7-C , 19-C ) :  -0.1068 B(  8-C ,  9-C ) :   1.4380
B(  8-C , 16-O ) :   1.0971 B(  9-C , 10-C ) :   1.0822 B(  9-C , 17-O ) :  -0.1618
B(  9-C , 41-C ) :   0.8134 B( 10-C , 11-C ) :   1.1080 B( 10-C , 17-O ) :   1.9425
B( 11-C , 12-C ) :   1.5628 B( 11-C , 17-O ) :  -0.1266 B( 11-C , 50-C ) :   0.8517
B( 12-C , 15-H ) :   0.9062 B( 19-C , 20-C ) :   1.4191 B( 19-C , 21-C ) :   1.3361
B( 20-C , 22-C ) :   1.4385 B( 20-C , 23-H ) :   0.9781 B( 21-C , 24-C ) :   1.4250
B( 21-C , 29-C ) :   0.9047 B( 21-C , 30-O ) :  -0.1215 B( 22-C , 25-C ) :   1.3824
B( 22-C , 26-H ) :   0.9770 B( 24-C , 25-C ) :   1.4062 B( 24-C , 27-H ) :   0.9663
B( 25-C , 28-H ) :   0.9781 B( 29-C , 30-O ) :   1.7674 B( 29-C , 31-O ) :   1.8367
B( 32-C , 33-C ) :   1.5151 B( 32-C , 34-C ) :   1.1779 B( 33-C , 35-C ) :   1.2503
B( 33-C , 36-H ) :   0.9749 B( 34-C , 37-C ) :   1.5892 B( 34-C , 38-H ) :   0.9818
B( 35-C , 39-C ) :   1.2346 B( 35-C , 58-C ) :   1.2357 B( 37-C , 39-C ) :   1.1634
B( 37-C , 40-H ) :   0.9959 B( 39-C , 63-C ) :   1.2121 B( 41-C , 42-C ) :   1.4928
B( 41-C , 43-C ) :   1.2165 B( 42-C , 44-C ) :   1.2443 B( 42-C , 45-H ) :   0.9824
B( 43-C , 46-C ) :   1.5851 B( 43-C , 47-H ) :   0.9811 B( 44-C , 48-C ) :   1.2367
B( 44-C , 66-C ) :   1.1911 B( 46-C , 48-C ) :   1.2014 B( 46-C , 49-H ) :   0.9864
B( 48-C , 71-C ) :   1.2335 B( 50-C , 51-C ) :   1.2187 B( 50-C , 52-C ) :   1.4920
B( 51-C , 53-C ) :   1.6272 B( 51-C , 54-H ) :   0.9277 B( 52-C , 55-C ) :   1.2424
B( 52-C , 56-H ) :   0.9626 B( 53-C , 57-H ) :   0.9820 B( 53-C , 74-C ) :   1.2026
B( 55-C , 74-C ) :   1.2723 B( 55-C , 80-C ) :   1.2234 B( 58-C , 59-C ) :   1.5570
B( 58-C , 65-H ) :   0.9785 B( 59-C , 60-H ) :   0.9808 B( 59-C , 61-C ) :   1.2282
B( 61-C , 62-H ) :   0.9840 B( 61-C , 63-C ) :   1.5346 B( 63-C , 64-H ) :   0.9884
B( 66-C , 67-C ) :   1.5447 B( 66-C , 73-H ) :   0.9876 B( 67-C , 68-H ) :   0.9848
B( 67-C , 69-C ) :   1.2143 B( 69-C , 70-H ) :   0.9874 B( 69-C , 71-C ) :   1.5366
B( 71-C , 72-H ) :   0.9840 B( 74-C , 75-C ) :   1.2407 B( 75-C , 76-C ) :   1.5523
B( 75-C , 82-H ) :   0.9757 B( 76-C , 77-H ) :   0.9764 B( 76-C , 78-C ) :   1.2352
B( 78-C , 79-H ) :   0.9771 B( 78-C , 80-C ) :   1.5669 B( 80-C , 81-H ) :   0.9778

MP2 TOTAL ENERGY:    -2297.718603934 Eh

-----------------------------------------------------------------------------
         ABSORPTION SPECTRUM VIA TRANSITION ELECTRIC DIPOLE MOMENTS
-----------------------------------------------------------------------------
State   Energy    Wavelength  fosc         T2        TX        TY        TZ
        (cm-1)      (nm)                 (au**2)    (au)      (au)      (au)
-----------------------------------------------------------------------------
   1   19637.4    509.2   0.980114659  16.43118   2.84879  -2.87521   0.22077
   2   28280.5    353.6   0.290510695   3.38182  -1.79596   0.03516   0.39384
   3   31505.9    317.4   0.049102570   0.51308  -0.24841  -0.67160  -0.01810
   4   28995.1    344.9   0.118178189   1.34180  -1.06109   0.17551   0.43021
   5   34674.5    288.4   0.141043156   1.33912   0.89670   0.67856  -0.27313
   6   33159.5    301.6   0.012372735   0.12284   0.17668   0.20091  -0.22640
   7   33523.7    298.3   0.024477824   0.24038  -0.33133  -0.36137   0.00302
   8   33925.6    294.8   0.003498502   0.03395   0.07191   0.16409   0.04305
   9   36105.1    277.0   0.122104476   1.11337   0.34201   0.74739   0.66167
  10   35654.7    280.5   0.062460445   0.57672   0.12597  -0.68054  -0.31259
  11   33610.4    297.5   0.795845851   7.79528   2.32037   1.54898   0.10872
  12   31241.2    320.1   0.012920719   0.13616   0.31354   0.19129  -0.03546
  13   32062.5    311.9   0.040589734   0.41677  -0.56245  -0.29923  -0.10427
  14   36052.6    277.4   0.146547334   1.33819   1.13676  -0.07668   0.20019
  15   36819.9    271.6   0.307269522   2.74734  -0.46795   1.58909   0.05626
  16   36369.3    275.0   0.132661139   1.20084   0.51291   0.92376  -0.29056
  17   36630.5    273.0   0.189571060   1.70374  -1.10393   0.64171  -0.27074
  18   38437.6    260.2   0.178384122   1.52783  -0.63918  -1.05013   0.12849
  19   37401.6    267.4   0.042607416   0.37503   0.05969   0.59587   0.12809
  20   40091.5    249.4   1.112214697   9.13297   2.95821  -0.43336  -0.44063
  21   37509.9    266.6   0.216218077   1.89768  -0.17725  -1.30581  -0.40141
  22   39524.6    253.0   0.535704922   4.46205  -2.11157   0.02786  -0.05026
  23   40145.1    249.1   0.127482365   1.04543  -0.71288   0.72931   0.07302
  24   39555.8    252.8   0.181489648   1.51049   1.04189  -0.65102   0.03365
  25   41932.0    238.5   0.130172806   1.02200   0.64301   0.62029  -0.47305
  26   39252.6    254.8   0.106529056   0.89346  -0.89689   0.17928   0.23854
  27   40530.0    246.7   0.649339232   5.27436  -2.03334  -0.85967   0.63315
  28   38448.8    260.1   0.005708682   0.04888  -0.16278  -0.12740   0.07844
  29   40712.7    245.6   0.193457732   1.56434  -0.11234  -1.18639  -0.37974
  30   39655.3    252.2   0.060515165   0.50239  -0.28342   0.64328  -0.09081

FINAL SINGLE POINT ENERGY     -2293.001255101977

DIPOLE MOMENT
-------------
                                X             Y             Z
Electronic contribution:      1.94985       9.19086       0.46061
Nuclear contribution   :     -3.62887     -12.98899      -4.91127
                        -----------------------------------------
Total Dipole Moment    :     -1.67902      -3.79813      -4.45066
                        -----------------------------------------
Magnitude (a.u.)       :      6.08714
Magnitude (Debye)      :     15.47228

Rotational constants in cm-1:     0.002528     0.001161     0.000850
Rotational constants in MHz :    75.778822    34.796270    25.496660

                             ****ORCA TERMINATED NORMALLY****
TOTAL RUN TIME: 4 days 13 hours 30 minutes 33 seconds 38 msec
