                         Program Version 5.0.2 -  RELEASE  -
|  1> %maxcore 19200
|  2> %pal
|  3>  nprocs= 8
|  4> end
|  5> ! RI-wB2PLYP def2-TZVP def2/J def2-TZVP/C RIJCOSX CPCM TightSCF
|  6> %TDDFT DCORR 1
|  7>    NROOTS   30
|  8>   TDA      FALSE
|  9> END
| 10>
| 11>  %CPCM
| 12>    SMD          TRUE
| 13>    SMDsolvent   "ACETONITRILE"
| 14>  END
| 15>
| 16>
| 17> * xyz -2 1
| 18>  C -3.021889 3.845082 -0.412279
| 19>  C -2.670618 2.435301 -0.435900
| 20>  C -1.338877 2.078139 -0.351790
| 21>  C -0.261988 3.002393 -0.306931
| 22>  C -0.618807 4.377008 -0.290805
| 23>  C -1.915100 4.774589 -0.336421
| 24>  C 1.056534 2.527055 -0.248409
| 25>  C 1.287357 1.141094 -0.197827
| 26>  C 0.183866 0.251934 -0.177149
| 27>  C 0.314103 -1.117620 -0.097666
| 28>  C 1.633556 -1.716982 -0.043436
| 29>  C 2.779347 -0.801316 -0.075467
| 30>  C 2.568460 0.550215 -0.156436
| 31>  H 0.173164 5.113184 -0.225871
| 32>  H -2.170444 5.827748 -0.312236
| 33>  H 3.425754 1.209587 -0.204065
| 34>  O -1.079149 0.744841 -0.276092
| 35>  O 1.773266 -2.954258 0.058640
| 36>  O -4.202988 4.251775 -0.462231
| 37>  C 2.194005 3.472354 -0.317641
| 38>  C 2.350359 4.234695 -1.477882
| 39>  C 3.141981 3.585655 0.711389
| 40>  C 3.411829 5.113435 -1.622431
| 41>  H 1.627795 4.125491 -2.278755
| 42>  C 4.214877 4.457657 0.538758
| 43>  C 4.347900 5.229337 -0.604349
| 44>  H 3.508708 5.698645 -2.528336
| 45>  H 4.950074 4.523332 1.332256
| 46>  H 5.181035 5.914540 -0.704903
| 47>  C 3.017901 2.812974 2.015765
| 48>  O 4.075858 2.295506 2.445559
| 49>  O 1.881980 2.793400 2.539240
| 50>  C -3.723706 1.413628 -0.561330
| 51>  C -4.853997 1.442244 0.228035
| 52>  C -3.618021 0.387959 -1.537322
| 53>  C -5.879397 0.482015 0.098398
| 54>  H -4.965003 2.217489 0.975750
| 55>  C -4.596796 -0.552469 -1.696734
| 56>  H -2.744588 0.362525 -2.177147
| 57>  C -5.754480 -0.542060 -0.887587
| 58>  H -4.497315 -1.322590 -2.453987
| 59>  C -0.870074 -1.996266 -0.056955
| 60>  C -1.888836 -1.797010 0.849629
| 61>  C -0.988029 -3.077000 -0.967311
| 62>  C -3.031257 -2.621960 0.885340
| 63>  H -1.824023 -0.984223 1.564456
| 64>  C -2.086501 -3.892243 -0.967036
| 65>  H -0.190854 -3.243703 -1.679910
| 66>  C -3.140148 -3.696765 -0.046492
| 67>  H -2.163437 -4.705839 -1.679713
| 68>  C 4.156124 -1.309270 0.013768
| 69>  C 5.139404 -0.534617 0.689918
| 70>  C 4.551412 -2.509256 -0.546396
| 71>  C 6.438026 -0.950427 0.781717
| 72>  H 4.840235 0.395836 1.164806
| 73>  C 5.884479 -2.962508 -0.471454
| 74>  H 3.827403 -3.121419 -1.065402
| 75>  H 7.166748 -0.347365 1.312293
| 76>  C -7.029321 0.492512 0.920290
| 77>  C -8.007660 -0.456400 0.775371
| 78>  H -8.882038 -0.435276 1.414160
| 79>  C -7.885633 -1.460763 -0.202991
| 80>  H -8.666019 -2.204260 -0.308811
| 81>  C -6.782354 -1.499895 -1.015957
| 82>  H -6.678993 -2.274082 -1.768377
| 83>  H -7.123034 1.268798 1.671286
| 84>  C -4.077842 -2.418145 1.813783
| 85>  C -5.178066 -3.234617 1.823916
| 86>  H -5.972498 -3.066478 2.540762
| 87>  C -5.286567 -4.291480 0.900246
| 88>  H -6.163920 -4.926542 0.914017
| 89>  C -4.289926 -4.514856 -0.014351
| 90>  H -4.368994 -5.327981 -0.727267
| 91>  H -3.992801 -1.599218 2.519792
| 92>  C 6.857695 -2.170690 0.207824
| 93>  C 8.188019 -2.634201 0.284332
| 94>  C 8.551314 -3.825776 -0.288032
| 95>  H 9.575875 -4.170440 -0.223255
| 96>  C 7.594642 -4.606959 -0.963257
| 97>  H 7.892053 -5.546462 -1.412562
| 98>  C 6.294091 -4.185260 -1.051863
| 99>  H 5.555063 -4.786601 -1.569286
|100>  H 8.919964 -2.027592 0.805834
|101> *
|102>
|103>
|104>
|105>
|106>                          ****END OF INPUT****

CARTESIAN COORDINATES (ANGSTROEM)
---------------------------------
  C     -3.021889    3.845082   -0.412279
  C     -2.670618    2.435301   -0.435900
  C     -1.338877    2.078139   -0.351790
  C     -0.261988    3.002393   -0.306931
  C     -0.618807    4.377008   -0.290805
  C     -1.915100    4.774589   -0.336421
  C      1.056534    2.527055   -0.248409
  C      1.287357    1.141094   -0.197827
  C      0.183866    0.251934   -0.177149
  C      0.314103   -1.117620   -0.097666
  C      1.633556   -1.716982   -0.043436
  C      2.779347   -0.801316   -0.075467
  C      2.568460    0.550215   -0.156436
  H      0.173164    5.113184   -0.225871
  H     -2.170444    5.827748   -0.312236
  H      3.425754    1.209587   -0.204065
  O     -1.079149    0.744841   -0.276092
  O      1.773266   -2.954258    0.058640
  O     -4.202988    4.251775   -0.462231
  C      2.194005    3.472354   -0.317641
  C      2.350359    4.234695   -1.477882
  C      3.141981    3.585655    0.711389
  C      3.411829    5.113435   -1.622431
  H      1.627795    4.125491   -2.278755
  C      4.214877    4.457657    0.538758
  C      4.347900    5.229337   -0.604349
  H      3.508708    5.698645   -2.528336
  H      4.950074    4.523332    1.332256
  H      5.181035    5.914540   -0.704903
  C      3.017901    2.812974    2.015765
  O      4.075858    2.295506    2.445559
  O      1.881980    2.793400    2.539240
  C     -3.723706    1.413628   -0.561330
  C     -4.853997    1.442244    0.228035
  C     -3.618021    0.387959   -1.537322
  C     -5.879397    0.482015    0.098398
  H     -4.965003    2.217489    0.975750
  C     -4.596796   -0.552469   -1.696734
  H     -2.744588    0.362525   -2.177147
  C     -5.754480   -0.542060   -0.887587
  H     -4.497315   -1.322590   -2.453987
  C     -0.870074   -1.996266   -0.056955
  C     -1.888836   -1.797010    0.849629
  C     -0.988029   -3.077000   -0.967311
  C     -3.031257   -2.621960    0.885340
  H     -1.824023   -0.984223    1.564456
  C     -2.086501   -3.892243   -0.967036
  H     -0.190854   -3.243703   -1.679910
  C     -3.140148   -3.696765   -0.046492
  H     -2.163437   -4.705839   -1.679713
  C      4.156124   -1.309270    0.013768
  C      5.139404   -0.534617    0.689918
  C      4.551412   -2.509256   -0.546396
  C      6.438026   -0.950427    0.781717
  H      4.840235    0.395836    1.164806
  C      5.884479   -2.962508   -0.471454
  H      3.827403   -3.121419   -1.065402
  H      7.166748   -0.347365    1.312293
  C     -7.029321    0.492512    0.920290
  C     -8.007660   -0.456400    0.775371
  H     -8.882038   -0.435276    1.414160
  C     -7.885633   -1.460763   -0.202991
  H     -8.666019   -2.204260   -0.308811
  C     -6.782354   -1.499895   -1.015957
  H     -6.678993   -2.274082   -1.768377
  H     -7.123034    1.268798    1.671286
  C     -4.077842   -2.418145    1.813783
  C     -5.178066   -3.234617    1.823916
  H     -5.972498   -3.066478    2.540762
  C     -5.286567   -4.291480    0.900246
  H     -6.163920   -4.926542    0.914017
  C     -4.289926   -4.514856   -0.014351
  H     -4.368994   -5.327981   -0.727267
  H     -3.992801   -1.599218    2.519792
  C      6.857695   -2.170690    0.207824
  C      8.188019   -2.634201    0.284332
  C      8.551314   -3.825776   -0.288032
  H      9.575875   -4.170440   -0.223255
  C      7.594642   -4.606959   -0.963257
  H      7.892053   -5.546462   -1.412562
  C      6.294091   -4.185260   -1.051863
  H      5.555063   -4.786601   -1.569286
  H      8.919964   -2.027592    0.805834

 Total Charge           Charge          ....   -2
 Multiplicity           Mult            ....    1
 Number of Electrons    NEL             ....  370
 Basis Dimension        Dim             .... 1873

ORBITAL ENERGIES
----------------

  NO   OCC          E(Eh)            E(eV)
   0   2.0000     -19.855257      -540.2890
   1   2.0000     -19.725902      -536.7691
   2   2.0000     -19.725661      -536.7625
   3   2.0000     -19.709289      -536.3170
   4   2.0000     -19.709016      -536.3096
   5   2.0000     -10.766276      -292.9653
   6   2.0000     -10.764433      -292.9151
   7   2.0000     -10.758005      -292.7402
   8   2.0000     -10.745817      -292.4086
   9   2.0000     -10.743238      -292.3384
  10   2.0000     -10.737151      -292.1727
  11   2.0000     -10.698937      -291.1329
  12   2.0000     -10.690935      -290.9151
  13   2.0000     -10.689980      -290.8891
  14   2.0000     -10.689943      -290.8881
  15   2.0000     -10.689894      -290.8868
  16   2.0000     -10.689621      -290.8794
  17   2.0000     -10.689561      -290.8777
  18   2.0000     -10.689297      -290.8706
  19   2.0000     -10.689083      -290.8647
  20   2.0000     -10.689072      -290.8644
  21   2.0000     -10.688568      -290.8507
  22   2.0000     -10.688503      -290.8489
  23   2.0000     -10.686239      -290.7873
  24   2.0000     -10.685781      -290.7749
  25   2.0000     -10.683946      -290.7249
  26   2.0000     -10.682539      -290.6867
  27   2.0000     -10.682498      -290.6855
  28   2.0000     -10.682155      -290.6762
  29   2.0000     -10.681691      -290.6636
  30   2.0000     -10.681307      -290.6531
  31   2.0000     -10.681201      -290.6503
  32   2.0000     -10.681200      -290.6502
  33   2.0000     -10.681106      -290.6477
  34   2.0000     -10.680820      -290.6399
  35   2.0000     -10.680648      -290.6352
  36   2.0000     -10.680254      -290.6245
  37   2.0000     -10.680195      -290.6229
  38   2.0000     -10.679808      -290.6123
  39   2.0000     -10.679375      -290.6006
  40   2.0000     -10.678922      -290.5882
  41   2.0000     -10.678870      -290.5868
  42   2.0000     -10.678383      -290.5736
  43   2.0000     -10.678065      -290.5649
  44   2.0000     -10.678021      -290.5637
  45   2.0000     -10.676990      -290.5357
  46   2.0000     -10.676976      -290.5353
  47   2.0000     -10.676508      -290.5226
  48   2.0000     -10.675728      -290.5013
  49   2.0000     -10.675273      -290.4890
  50   2.0000     -10.674976      -290.4809
  51   2.0000     -10.673692      -290.4459
  52   2.0000     -10.669264      -290.3254
  53   2.0000     -10.668525      -290.3053
  54   2.0000     -10.663209      -290.1607
  55   2.0000      -1.333644       -36.2903
  56   2.0000      -1.229494       -33.4562
  57   2.0000      -1.208882       -32.8954
  58   2.0000      -1.205404       -32.8007
  59   2.0000      -1.132140       -30.8071
  60   2.0000      -1.085111       -29.5274
  61   2.0000      -1.082860       -29.4661
  62   2.0000      -1.082421       -29.4542
  63   2.0000      -1.081551       -29.4305
  64   2.0000      -1.061336       -28.8804
  65   2.0000      -1.051997       -28.6263
  66   2.0000      -1.029486       -28.0137
  67   2.0000      -1.027929       -27.9714
  68   2.0000      -1.018912       -27.7260
  69   2.0000      -0.989748       -26.9324
  70   2.0000      -0.977752       -26.6060
  71   2.0000      -0.967769       -26.3343
  72   2.0000      -0.964373       -26.2419
  73   2.0000      -0.960710       -26.1422
  74   2.0000      -0.950542       -25.8656
  75   2.0000      -0.940329       -25.5876
  76   2.0000      -0.939754       -25.5720
  77   2.0000      -0.928447       -25.2643
  78   2.0000      -0.917418       -24.9642
  79   2.0000      -0.909593       -24.7513
  80   2.0000      -0.907181       -24.6857
  81   2.0000      -0.900339       -24.4995
  82   2.0000      -0.888862       -24.1872
  83   2.0000      -0.884297       -24.0629
  84   2.0000      -0.824442       -22.4342
  85   2.0000      -0.820327       -22.3222
  86   2.0000      -0.804707       -21.8972
  87   2.0000      -0.797712       -21.7068
  88   2.0000      -0.787259       -21.4224
  89   2.0000      -0.784065       -21.3355
  90   2.0000      -0.781359       -21.2619
  91   2.0000      -0.777054       -21.1447
  92   2.0000      -0.772068       -21.0090
  93   2.0000      -0.762781       -20.7563
  94   2.0000      -0.755397       -20.5554
  95   2.0000      -0.754717       -20.5369
  96   2.0000      -0.753264       -20.4973
  97   2.0000      -0.737552       -20.0698
  98   2.0000      -0.733023       -19.9466
  99   2.0000      -0.696000       -18.9391
 100   2.0000      -0.686676       -18.6854
 101   2.0000      -0.682580       -18.5739
 102   2.0000      -0.670280       -18.2392
 103   2.0000      -0.657812       -17.9000
 104   2.0000      -0.656792       -17.8722
 105   2.0000      -0.656049       -17.8520
 106   2.0000      -0.655110       -17.8265
 107   2.0000      -0.648536       -17.6476
 108   2.0000      -0.646088       -17.5810
 109   2.0000      -0.641385       -17.4530
 110   2.0000      -0.626937       -17.0598
 111   2.0000      -0.623337       -16.9619
 112   2.0000      -0.620464       -16.8837
 113   2.0000      -0.616042       -16.7634
 114   2.0000      -0.609886       -16.5958
 115   2.0000      -0.598213       -16.2782
 116   2.0000      -0.595883       -16.2148
 117   2.0000      -0.586530       -15.9603
 118   2.0000      -0.584001       -15.8915
 119   2.0000      -0.578858       -15.7515
 120   2.0000      -0.578514       -15.7422
 121   2.0000      -0.577514       -15.7150
 122   2.0000      -0.574658       -15.6372
 123   2.0000      -0.571306       -15.5460
 124   2.0000      -0.565632       -15.3916
 125   2.0000      -0.562292       -15.3007
 126   2.0000      -0.561258       -15.2726
 127   2.0000      -0.555367       -15.1123
 128   2.0000      -0.550594       -14.9824
 129   2.0000      -0.547801       -14.9064
 130   2.0000      -0.545707       -14.8494
 131   2.0000      -0.543005       -14.7759
 132   2.0000      -0.542558       -14.7638
 133   2.0000      -0.541405       -14.7324
 134   2.0000      -0.539066       -14.6687
 135   2.0000      -0.537071       -14.6144
 136   2.0000      -0.533483       -14.5168
 137   2.0000      -0.532595       -14.4927
 138   2.0000      -0.531403       -14.4602
 139   2.0000      -0.523422       -14.2430
 140   2.0000      -0.518777       -14.1166
 141   2.0000      -0.518575       -14.1111
 142   2.0000      -0.515745       -14.0341
 143   2.0000      -0.513537       -13.9740
 144   2.0000      -0.506853       -13.7922
 145   2.0000      -0.502346       -13.6695
 146   2.0000      -0.496535       -13.5114
 147   2.0000      -0.493045       -13.4164
 148   2.0000      -0.490280       -13.3412
 149   2.0000      -0.488573       -13.2947
 150   2.0000      -0.487345       -13.2613
 151   2.0000      -0.480689       -13.0802
 152   2.0000      -0.473275       -12.8785
 153   2.0000      -0.464139       -12.6299
 154   2.0000      -0.458890       -12.4870
 155   2.0000      -0.458449       -12.4750
 156   2.0000      -0.456895       -12.4327
 157   2.0000      -0.451967       -12.2986
 158   2.0000      -0.447868       -12.1871
 159   2.0000      -0.445076       -12.1111
 160   2.0000      -0.443909       -12.0794
 161   2.0000      -0.442898       -12.0519
 162   2.0000      -0.437605       -11.9078
 163   2.0000      -0.436352       -11.8738
 164   2.0000      -0.433893       -11.8068
 165   2.0000      -0.392199       -10.6723
 166   2.0000      -0.388941       -10.5836
 167   2.0000      -0.388900       -10.5825
 168   2.0000      -0.372298       -10.1308
 169   2.0000      -0.367808       -10.0086
 170   2.0000      -0.365535        -9.9467
 171   2.0000      -0.359865        -9.7924
 172   2.0000      -0.356173        -9.6919
 173   2.0000      -0.354331        -9.6418
 174   2.0000      -0.348007        -9.4698
 175   2.0000      -0.341868        -9.3027
 176   2.0000      -0.334569        -9.1041
 177   2.0000      -0.328258        -8.9323
 178   2.0000      -0.324133        -8.8201
 179   2.0000      -0.313741        -8.5373
 180   2.0000      -0.308017        -8.3816
 181   2.0000      -0.296299        -8.0627
 182   2.0000      -0.288724        -7.8566
 183   2.0000      -0.277909        -7.5623
 184   2.0000      -0.243668        -6.6305
 185   0.0000       0.012180         0.3314
 186   0.0000       0.047254         1.2858
 187   0.0000       0.051887         1.4119
 188   0.0000       0.054494         1.4829
 189   0.0000       0.069370         1.8877

MULLIKEN ATOMIC CHARGES
-----------------------
   0 C :    0.275639
   1 C :   -0.163579
   2 C :    0.283698
   3 C :    0.039055
   4 C :   -0.217615
   5 C :   -0.360629
   6 C :    0.345847
   7 C :    0.068741
   8 C :    0.262817
   9 C :   -0.108710
  10 C :    0.235287
  11 C :   -0.026585
  12 C :   -0.300349
  13 H :    0.197465
  14 H :    0.143958
  15 H :    0.228556
  16 O :   -0.265174
  17 O :   -0.527811
  18 O :   -0.532833
  19 C :   -0.039180
  20 C :   -0.339110
  21 C :   -0.115511
  22 C :   -0.154998
  23 H :    0.182795
  24 C :   -0.194225
  25 C :   -0.195042
  26 H :    0.179043
  27 H :    0.169430
  28 H :    0.177268
  29 C :    0.281036
  30 O :   -0.565502
  31 O :   -0.559269
  32 C :    0.088629
  33 C :   -0.252547
  34 C :   -0.198959
  35 C :    0.102414
  36 H :    0.155536
  37 C :   -0.309914
  38 H :    0.171009
  39 C :    0.171097
  40 H :    0.169823
  41 C :    0.023777
  42 C :   -0.278508
  43 C :   -0.214264
  44 C :    0.169699
  45 H :    0.166921
  46 C :   -0.280143
  47 H :    0.165907
  48 C :    0.119841
  49 H :    0.169725
  50 C :    0.073306
  51 C :   -0.244650
  52 C :   -0.266192
  53 C :   -0.279647
  54 H :    0.176345
  55 C :    0.130520
  56 H :    0.160220
  57 H :    0.170553
  58 C :   -0.281857
  59 C :   -0.171656
  60 H :    0.175399
  61 C :   -0.177954
  62 H :    0.175200
  63 C :   -0.251320
  64 H :    0.174015
  65 H :    0.174429
  66 C :   -0.329767
  67 C :   -0.149995
  68 H :    0.176014
  69 C :   -0.193565
  70 H :    0.175082
  71 C :   -0.234421
  72 H :    0.172912
  73 H :    0.172824
  74 C :    0.112862
  75 C :   -0.245846
  76 C :   -0.176708
  77 H :    0.177184
  78 C :   -0.172148
  79 H :    0.176734
  80 C :   -0.291627
  81 H :    0.174073
  82 H :    0.175123
Sum of atomic charges:   -2.0000000

LOEWDIN ATOMIC CHARGES
----------------------
   0 C :   -0.325386
   1 C :   -0.104738
   2 C :   -0.123174
   3 C :   -0.123496
   4 C :   -0.094047
   5 C :   -0.159020
   6 C :    0.037497
   7 C :   -0.119791
   8 C :   -0.126101
   9 C :   -0.102320
  10 C :   -0.279062
  11 C :   -0.105312
  12 C :   -0.043080
  13 H :    0.166828
  14 H :    0.148742
  15 H :    0.173922
  16 O :    0.374521
  17 O :   -0.049829
  18 O :   -0.072521
  19 C :   -0.071222
  20 C :   -0.101132
  21 C :   -0.081833
  22 C :   -0.151135
  23 H :    0.163428
  24 C :   -0.115745
  25 C :   -0.145988
  26 H :    0.154932
  27 H :    0.157236
  28 H :    0.154593
  29 C :   -0.617529
  30 O :   -0.121477
  31 O :   -0.108879
  32 C :   -0.111658
  33 C :   -0.065805
  34 C :   -0.105671
  35 C :   -0.107348
  36 H :    0.160570
  37 C :   -0.115422
  38 H :    0.158414
  39 C :   -0.110711
  40 H :    0.158569
  41 C :   -0.109472
  42 C :   -0.066638
  43 C :   -0.105199
  44 C :   -0.108039
  45 H :    0.162209
  46 C :   -0.118746
  47 H :    0.157653
  48 C :   -0.110371
  49 H :    0.157459
  50 C :   -0.112119
  51 C :   -0.114313
  52 C :   -0.071778
  53 C :   -0.117619
  54 H :    0.157680
  55 C :   -0.107451
  56 H :    0.159516
  57 H :    0.158137
  58 C :   -0.113971
  59 C :   -0.157674
  60 H :    0.153663
  61 C :   -0.157412
  62 H :    0.153501
  63 C :   -0.112141
  64 H :    0.158131
  65 H :    0.157916
  66 C :   -0.110317
  67 C :   -0.155382
  68 H :    0.153709
  69 C :   -0.156304
  70 H :    0.153545
  71 C :   -0.115173
  72 H :    0.157816
  73 H :    0.158649
  74 C :   -0.110439
  75 C :   -0.114257
  76 C :   -0.157823
  77 H :    0.153574
  78 C :   -0.157189
  79 H :    0.153837
  80 C :   -0.113186
  81 H :    0.157983
  82 H :    0.158211

  Mayer bond orders larger than 0.100000
B(  0-C ,  1-C ) :   1.0023 B(  0-C ,  5-C ) :   1.1864 B(  0-C , 18-O ) :   1.9778
B(  1-C ,  2-C ) :   1.3544 B(  1-C , 18-O ) :  -0.1317 B(  1-C , 32-C ) :   0.8656
B(  2-C ,  3-C ) :   1.2588 B(  2-C , 16-O ) :   1.0565 B(  3-C ,  4-C ) :   1.1418
B(  3-C ,  6-C ) :   1.2267 B(  4-C ,  5-C ) :   1.6512 B(  4-C , 13-H ) :   0.9453
B(  5-C , 14-H ) :   0.9959 B(  6-C ,  7-C ) :   1.1696 B(  6-C , 19-C ) :   0.7125
B(  6-C , 21-C ) :  -0.1070 B(  7-C ,  8-C ) :   1.2596 B(  7-C , 12-C ) :   1.1674
B(  8-C ,  9-C ) :   1.4462 B(  8-C , 16-O ) :   1.0845 B(  9-C , 10-C ) :   1.0878
B(  9-C , 17-O ) :  -0.1860 B(  9-C , 41-C ) :   0.8337 B( 10-C , 11-C ) :   1.0928
B( 10-C , 17-O ) :   2.0299 B( 11-C , 12-C ) :   1.5736 B( 11-C , 17-O ) :  -0.1431
B( 11-C , 50-C ) :   0.8798 B( 12-C , 15-H ) :   0.9172 B( 19-C , 20-C ) :   1.3972
B( 19-C , 21-C ) :   1.3372 B( 20-C , 22-C ) :   1.4402 B( 20-C , 23-H ) :   0.9800
B( 21-C , 24-C ) :   1.4153 B( 21-C , 29-C ) :   0.8731 B( 21-C , 30-O ) :  -0.1443
B( 22-C , 25-C ) :   1.3877 B( 22-C , 26-H ) :   0.9768 B( 24-C , 25-C ) :   1.4128
B( 24-C , 27-H ) :   0.9695 B( 25-C , 28-H ) :   0.9773 B( 29-C , 30-O ) :   1.8193
B( 29-C , 31-O ) :   1.8987 B( 30-O , 54-H ) :   0.1116 B( 32-C , 33-C ) :   1.5342
B( 32-C , 34-C ) :   1.1767 B( 33-C , 35-C ) :   1.2466 B( 33-C , 36-H ) :   0.9704
B( 34-C , 37-C ) :   1.5980 B( 34-C , 38-H ) :   0.9868 B( 35-C , 39-C ) :   1.2167
B( 35-C , 58-C ) :   1.2262 B( 37-C , 39-C ) :   1.1519 B( 37-C , 40-H ) :   0.9971
B( 39-C , 63-C ) :   1.1978 B( 41-C , 42-C ) :   1.5078 B( 41-C , 43-C ) :   1.2144
B( 42-C , 44-C ) :   1.2325 B( 42-C , 45-H ) :   0.9834 B( 43-C , 46-C ) :   1.6051
B( 43-C , 47-H ) :   0.9803 B( 44-C , 48-C ) :   1.2188 B( 44-C , 66-C ) :   1.1814
B( 46-C , 48-C ) :   1.1932 B( 46-C , 49-H ) :   0.9823 B( 48-C , 71-C ) :   1.2197
B( 50-C , 51-C ) :   1.2181 B( 50-C , 52-C ) :   1.5249 B( 51-C , 53-C ) :   1.6400
B( 51-C , 54-H ) :   0.9164 B( 52-C , 55-C ) :   1.2368 B( 52-C , 56-H ) :   0.9582
B( 53-C , 57-H ) :   0.9779 B( 53-C , 74-C ) :   1.2007 B( 55-C , 74-C ) :   1.2552
B( 55-C , 80-C ) :   1.2172 B( 58-C , 59-C ) :   1.5723 B( 58-C , 65-H ) :   0.9738
B( 59-C , 60-H ) :   0.9809 B( 59-C , 61-C ) :   1.2351 B( 61-C , 62-H ) :   0.9830
B( 61-C , 63-C ) :   1.5499 B( 63-C , 64-H ) :   0.9861 B( 66-C , 67-C ) :   1.5552
B( 66-C , 73-H ) :   0.9868 B( 67-C , 68-H ) :   0.9863 B( 67-C , 69-C ) :   1.2239
B( 69-C , 70-H ) :   0.9864 B( 69-C , 71-C ) :   1.5535 B( 71-C , 72-H ) :   0.9793
B( 74-C , 75-C ) :   1.2281 B( 75-C , 76-C ) :   1.5648 B( 75-C , 82-H ) :   0.9721
B( 76-C , 77-H ) :   0.9765 B( 76-C , 78-C ) :   1.2411 B( 78-C , 79-H ) :   0.9772
B( 78-C , 80-C ) :   1.5790 B( 80-C , 81-H ) :   0.9729

MP2 TOTAL ENERGY:    -2295.083001098 Eh

-----------------------------------------------------------------------------
         ABSORPTION SPECTRUM VIA TRANSITION ELECTRIC DIPOLE MOMENTS
-----------------------------------------------------------------------------
State   Energy    Wavelength  fosc         T2        TX        TY        TZ
        (cm-1)      (nm)                 (au**2)    (au)      (au)      (au)
-----------------------------------------------------------------------------
   1   21334.7    468.7   1.059653651  16.35133   2.83389  -2.87585   0.22330
   2   30011.9    333.2   0.310431413   3.40524   1.80664   0.00211  -0.37588
   3   32823.9    304.7   0.048729819   0.48874  -0.21870  -0.66302  -0.03637
   4   31677.5    315.7   0.138915871   1.44370  -1.12207   0.10245   0.41733
   5   35203.2    284.1   0.118813430   1.11111  -0.77757  -0.67753   0.21786
   6   34781.5    287.5   0.018680013   0.17681   0.23340   0.28150  -0.20759
   7   35060.0    285.2   0.028485253   0.26748  -0.34180  -0.38738   0.02408
   8   35462.7    282.0   0.005627456   0.05224   0.11192   0.19921  -0.00564
   9   37209.2    268.8   0.118507175   1.04850  -0.16589  -0.72363  -0.70522
  10   37129.6    269.3   0.057512596   0.50994   0.15190  -0.62220  -0.31580
  11   35918.5    278.4   0.793610464   7.27385   2.22574   1.51783   0.12701
  12   34949.8    286.1   0.078270297   0.73727  -0.72896  -0.45366   0.00855
  13   35289.7    283.4   0.057118585   0.53285   0.62270   0.37349   0.07482
  14   38728.4    258.2   0.151478215   1.28764   1.10437  -0.11249   0.23528
  15   39167.5    255.3   0.265859849   2.23461   0.52644  -1.39340  -0.12609
  16   39246.3    254.8   0.203732385   1.70898   0.38417   1.22074  -0.26680
  17   40020.3    249.9   0.284666975   2.34170  -1.43093   0.49227  -0.22764
  18   40637.4    246.1   0.218568072   1.77066  -0.52324  -1.21365   0.15470
  19   40773.0    245.3   0.058852447   0.47519  -0.22641   0.64351   0.09911
  20   42587.1    234.8   1.246516707   9.63597   3.00907  -0.58971  -0.48344
  21   41391.6    241.6   0.221821362   1.76428   0.48060   1.18333   0.36474
  22   42370.3    236.0   0.438572467   3.40766   1.84365   0.01690   0.09115
  23   43457.2    230.1   0.113120052   0.85695  -0.49426   0.75670   0.20014
  24   43268.4    231.1   0.085324564   0.64920  -0.03969  -0.69085   0.41273
  25   43115.1    231.9   0.284623965   2.17329   1.45655  -0.21747  -0.06686
  26   43445.5    230.2   0.094230152   0.71404   0.73240   0.41512  -0.07282
  27   44174.8    226.4   0.788740263   5.87808   2.11217   0.91655  -0.75944
  28   44244.1    226.0   0.239081532   1.77896  -0.23451   1.28496   0.26991
  29   43434.9    230.2   0.031721086   0.24043  -0.41383   0.05116   0.25798
  30   44335.6    225.6   0.062312396   0.46270   0.17194   0.41286   0.51252

FINAL SINGLE POINT ENERGY     -2292.339508366310

DIPOLE MOMENT
-------------
                                X             Y             Z
Electronic contribution:      1.94682       9.17788       0.46405
Nuclear contribution   :     -3.62887     -12.98899      -4.91127
                        -----------------------------------------
Total Dipole Moment    :     -1.68205      -3.81111      -4.44722
                        -----------------------------------------
Magnitude (a.u.)       :      6.09357
Magnitude (Debye)      :     15.48863

Rotational constants in cm-1:     0.002528     0.001161     0.000850
Rotational constants in MHz :    75.778822    34.796270    25.496660

                             ****ORCA TERMINATED NORMALLY****
TOTAL RUN TIME: 0 days 22 hours 41 minutes 8 seconds 418 msec
