                         Program Version 5.0.2 -  RELEASE  -
|  1> %maxcore 19200
|  2> %pal
|  3>  nprocs= 8
|  4> end
|  5> ! RI-DSD-BLYP D3BJ def2-TZVP def2/J def2-TZVP/C RIJCOSX CPCM TightSCF
|  6> %TDDFT DCORR 4
|  7>    NROOTS   30
|  8>   TDA      FALSE
|  9> END
| 10>
| 11>  %CPCM
| 12>    SMD          TRUE
| 13>    SMDsolvent   "ACETONITRILE"
| 14>  END
| 15>
| 16>
| 17> * xyz -2 1
| 18>  C -3.021889 3.845082 -0.412279
| 19>  C -2.670618 2.435301 -0.435900
| 20>  C -1.338877 2.078139 -0.351790
| 21>  C -0.261988 3.002393 -0.306931
| 22>  C -0.618807 4.377008 -0.290805
| 23>  C -1.915100 4.774589 -0.336421
| 24>  C 1.056534 2.527055 -0.248409
| 25>  C 1.287357 1.141094 -0.197827
| 26>  C 0.183866 0.251934 -0.177149
| 27>  C 0.314103 -1.117620 -0.097666
| 28>  C 1.633556 -1.716982 -0.043436
| 29>  C 2.779347 -0.801316 -0.075467
| 30>  C 2.568460 0.550215 -0.156436
| 31>  H 0.173164 5.113184 -0.225871
| 32>  H -2.170444 5.827748 -0.312236
| 33>  H 3.425754 1.209587 -0.204065
| 34>  O -1.079149 0.744841 -0.276092
| 35>  O 1.773266 -2.954258 0.058640
| 36>  O -4.202988 4.251775 -0.462231
| 37>  C 2.194005 3.472354 -0.317641
| 38>  C 2.350359 4.234695 -1.477882
| 39>  C 3.141981 3.585655 0.711389
| 40>  C 3.411829 5.113435 -1.622431
| 41>  H 1.627795 4.125491 -2.278755
| 42>  C 4.214877 4.457657 0.538758
| 43>  C 4.347900 5.229337 -0.604349
| 44>  H 3.508708 5.698645 -2.528336
| 45>  H 4.950074 4.523332 1.332256
| 46>  H 5.181035 5.914540 -0.704903
| 47>  C 3.017901 2.812974 2.015765
| 48>  O 4.075858 2.295506 2.445559
| 49>  O 1.881980 2.793400 2.539240
| 50>  C -3.723706 1.413628 -0.561330
| 51>  C -4.853997 1.442244 0.228035
| 52>  C -3.618021 0.387959 -1.537322
| 53>  C -5.879397 0.482015 0.098398
| 54>  H -4.965003 2.217489 0.975750
| 55>  C -4.596796 -0.552469 -1.696734
| 56>  H -2.744588 0.362525 -2.177147
| 57>  C -5.754480 -0.542060 -0.887587
| 58>  H -4.497315 -1.322590 -2.453987
| 59>  C -0.870074 -1.996266 -0.056955
| 60>  C -1.888836 -1.797010 0.849629
| 61>  C -0.988029 -3.077000 -0.967311
| 62>  C -3.031257 -2.621960 0.885340
| 63>  H -1.824023 -0.984223 1.564456
| 64>  C -2.086501 -3.892243 -0.967036
| 65>  H -0.190854 -3.243703 -1.679910
| 66>  C -3.140148 -3.696765 -0.046492
| 67>  H -2.163437 -4.705839 -1.679713
| 68>  C 4.156124 -1.309270 0.013768
| 69>  C 5.139404 -0.534617 0.689918
| 70>  C 4.551412 -2.509256 -0.546396
| 71>  C 6.438026 -0.950427 0.781717
| 72>  H 4.840235 0.395836 1.164806
| 73>  C 5.884479 -2.962508 -0.471454
| 74>  H 3.827403 -3.121419 -1.065402
| 75>  H 7.166748 -0.347365 1.312293
| 76>  C -7.029321 0.492512 0.920290
| 77>  C -8.007660 -0.456400 0.775371
| 78>  H -8.882038 -0.435276 1.414160
| 79>  C -7.885633 -1.460763 -0.202991
| 80>  H -8.666019 -2.204260 -0.308811
| 81>  C -6.782354 -1.499895 -1.015957
| 82>  H -6.678993 -2.274082 -1.768377
| 83>  H -7.123034 1.268798 1.671286
| 84>  C -4.077842 -2.418145 1.813783
| 85>  C -5.178066 -3.234617 1.823916
| 86>  H -5.972498 -3.066478 2.540762
| 87>  C -5.286567 -4.291480 0.900246
| 88>  H -6.163920 -4.926542 0.914017
| 89>  C -4.289926 -4.514856 -0.014351
| 90>  H -4.368994 -5.327981 -0.727267
| 91>  H -3.992801 -1.599218 2.519792
| 92>  C 6.857695 -2.170690 0.207824
| 93>  C 8.188019 -2.634201 0.284332
| 94>  C 8.551314 -3.825776 -0.288032
| 95>  H 9.575875 -4.170440 -0.223255
| 96>  C 7.594642 -4.606959 -0.963257
| 97>  H 7.892053 -5.546462 -1.412562
| 98>  C 6.294091 -4.185260 -1.051863
| 99>  H 5.555063 -4.786601 -1.569286
|100>  H 8.919964 -2.027592 0.805834
|101> *
|102>
|103>
|104>
|105>
|106>                          ****END OF INPUT****

CARTESIAN COORDINATES (ANGSTROEM)
---------------------------------
  C     -3.021889    3.845082   -0.412279
  C     -2.670618    2.435301   -0.435900
  C     -1.338877    2.078139   -0.351790
  C     -0.261988    3.002393   -0.306931
  C     -0.618807    4.377008   -0.290805
  C     -1.915100    4.774589   -0.336421
  C      1.056534    2.527055   -0.248409
  C      1.287357    1.141094   -0.197827
  C      0.183866    0.251934   -0.177149
  C      0.314103   -1.117620   -0.097666
  C      1.633556   -1.716982   -0.043436
  C      2.779347   -0.801316   -0.075467
  C      2.568460    0.550215   -0.156436
  H      0.173164    5.113184   -0.225871
  H     -2.170444    5.827748   -0.312236
  H      3.425754    1.209587   -0.204065
  O     -1.079149    0.744841   -0.276092
  O      1.773266   -2.954258    0.058640
  O     -4.202988    4.251775   -0.462231
  C      2.194005    3.472354   -0.317641
  C      2.350359    4.234695   -1.477882
  C      3.141981    3.585655    0.711389
  C      3.411829    5.113435   -1.622431
  H      1.627795    4.125491   -2.278755
  C      4.214877    4.457657    0.538758
  C      4.347900    5.229337   -0.604349
  H      3.508708    5.698645   -2.528336
  H      4.950074    4.523332    1.332256
  H      5.181035    5.914540   -0.704903
  C      3.017901    2.812974    2.015765
  O      4.075858    2.295506    2.445559
  O      1.881980    2.793400    2.539240
  C     -3.723706    1.413628   -0.561330
  C     -4.853997    1.442244    0.228035
  C     -3.618021    0.387959   -1.537322
  C     -5.879397    0.482015    0.098398
  H     -4.965003    2.217489    0.975750
  C     -4.596796   -0.552469   -1.696734
  H     -2.744588    0.362525   -2.177147
  C     -5.754480   -0.542060   -0.887587
  H     -4.497315   -1.322590   -2.453987
  C     -0.870074   -1.996266   -0.056955
  C     -1.888836   -1.797010    0.849629
  C     -0.988029   -3.077000   -0.967311
  C     -3.031257   -2.621960    0.885340
  H     -1.824023   -0.984223    1.564456
  C     -2.086501   -3.892243   -0.967036
  H     -0.190854   -3.243703   -1.679910
  C     -3.140148   -3.696765   -0.046492
  H     -2.163437   -4.705839   -1.679713
  C      4.156124   -1.309270    0.013768
  C      5.139404   -0.534617    0.689918
  C      4.551412   -2.509256   -0.546396
  C      6.438026   -0.950427    0.781717
  H      4.840235    0.395836    1.164806
  C      5.884479   -2.962508   -0.471454
  H      3.827403   -3.121419   -1.065402
  H      7.166748   -0.347365    1.312293
  C     -7.029321    0.492512    0.920290
  C     -8.007660   -0.456400    0.775371
  H     -8.882038   -0.435276    1.414160
  C     -7.885633   -1.460763   -0.202991
  H     -8.666019   -2.204260   -0.308811
  C     -6.782354   -1.499895   -1.015957
  H     -6.678993   -2.274082   -1.768377
  H     -7.123034    1.268798    1.671286
  C     -4.077842   -2.418145    1.813783
  C     -5.178066   -3.234617    1.823916
  H     -5.972498   -3.066478    2.540762
  C     -5.286567   -4.291480    0.900246
  H     -6.163920   -4.926542    0.914017
  C     -4.289926   -4.514856   -0.014351
  H     -4.368994   -5.327981   -0.727267
  H     -3.992801   -1.599218    2.519792
  C      6.857695   -2.170690    0.207824
  C      8.188019   -2.634201    0.284332
  C      8.551314   -3.825776   -0.288032
  H      9.575875   -4.170440   -0.223255
  C      7.594642   -4.606959   -0.963257
  H      7.892053   -5.546462   -1.412562
  C      6.294091   -4.185260   -1.051863
  H      5.555063   -4.786601   -1.569286
  H      8.919964   -2.027592    0.805834

 Total Charge           Charge          ....   -2
 Multiplicity           Mult            ....    1
 Number of Electrons    NEL             ....  370
 Basis Dimension        Dim             .... 1873

ORBITAL ENERGIES
----------------

  NO   OCC          E(Eh)            E(eV)
   0   2.0000     -20.065319      -546.0051
   1   2.0000     -19.936256      -542.4931
   2   2.0000     -19.936174      -542.4909
   3   2.0000     -19.919495      -542.0370
   4   2.0000     -19.919311      -542.0320
   5   2.0000     -10.904890      -296.7371
   6   2.0000     -10.903142      -296.6896
   7   2.0000     -10.898197      -296.5550
   8   2.0000     -10.884752      -296.1892
   9   2.0000     -10.882206      -296.1199
  10   2.0000     -10.874464      -295.9092
  11   2.0000     -10.837558      -294.9049
  12   2.0000     -10.829914      -294.6969
  13   2.0000     -10.829023      -294.6727
  14   2.0000     -10.828820      -294.6672
  15   2.0000     -10.828580      -294.6606
  16   2.0000     -10.828383      -294.6553
  17   2.0000     -10.828295      -294.6529
  18   2.0000     -10.828150      -294.6490
  19   2.0000     -10.828077      -294.6469
  20   2.0000     -10.827590      -294.6337
  21   2.0000     -10.827283      -294.6254
  22   2.0000     -10.827243      -294.6243
  23   2.0000     -10.825118      -294.5664
  24   2.0000     -10.824732      -294.5559
  25   2.0000     -10.823155      -294.5130
  26   2.0000     -10.822230      -294.4879
  27   2.0000     -10.821932      -294.4797
  28   2.0000     -10.821710      -294.4737
  29   2.0000     -10.821472      -294.4672
  30   2.0000     -10.820875      -294.4510
  31   2.0000     -10.820780      -294.4484
  32   2.0000     -10.820671      -294.4454
  33   2.0000     -10.820567      -294.4426
  34   2.0000     -10.820540      -294.4418
  35   2.0000     -10.820014      -294.4276
  36   2.0000     -10.819857      -294.4233
  37   2.0000     -10.819735      -294.4200
  38   2.0000     -10.819230      -294.4062
  39   2.0000     -10.818775      -294.3938
  40   2.0000     -10.818340      -294.3820
  41   2.0000     -10.818244      -294.3794
  42   2.0000     -10.817844      -294.3685
  43   2.0000     -10.817462      -294.3581
  44   2.0000     -10.817273      -294.3530
  45   2.0000     -10.816247      -294.3250
  46   2.0000     -10.816113      -294.3214
  47   2.0000     -10.815210      -294.2968
  48   2.0000     -10.814851      -294.2870
  49   2.0000     -10.814391      -294.2745
  50   2.0000     -10.814194      -294.2692
  51   2.0000     -10.812941      -294.2351
  52   2.0000     -10.808435      -294.1125
  53   2.0000     -10.807597      -294.0897
  54   2.0000     -10.802466      -293.9500
  55   2.0000      -1.320849       -35.9421
  56   2.0000      -1.216699       -33.1081
  57   2.0000      -1.195223       -32.5237
  58   2.0000      -1.191799       -32.4305
  59   2.0000      -1.118896       -30.4467
  60   2.0000      -1.061412       -28.8825
  61   2.0000      -1.059103       -28.8197
  62   2.0000      -1.058772       -28.8106
  63   2.0000      -1.057847       -28.7855
  64   2.0000      -1.036771       -28.2120
  65   2.0000      -1.027846       -27.9691
  66   2.0000      -1.004609       -27.3368
  67   2.0000      -1.002968       -27.2922
  68   2.0000      -0.993808       -27.0429
  69   2.0000      -0.963668       -26.2227
  70   2.0000      -0.951562       -25.8933
  71   2.0000      -0.941968       -25.6322
  72   2.0000      -0.938527       -25.5386
  73   2.0000      -0.934621       -25.4323
  74   2.0000      -0.924295       -25.1513
  75   2.0000      -0.914064       -24.8729
  76   2.0000      -0.913474       -24.8569
  77   2.0000      -0.901870       -24.5411
  78   2.0000      -0.890704       -24.2373
  79   2.0000      -0.883055       -24.0291
  80   2.0000      -0.880559       -23.9612
  81   2.0000      -0.873340       -23.7648
  82   2.0000      -0.861712       -23.4484
  83   2.0000      -0.857097       -23.3228
  84   2.0000      -0.795116       -21.6362
  85   2.0000      -0.789225       -21.4759
  86   2.0000      -0.774145       -21.0655
  87   2.0000      -0.766785       -20.8653
  88   2.0000      -0.756875       -20.5956
  89   2.0000      -0.753777       -20.5113
  90   2.0000      -0.750789       -20.4300
  91   2.0000      -0.746466       -20.3124
  92   2.0000      -0.741326       -20.1725
  93   2.0000      -0.732173       -19.9234
  94   2.0000      -0.723078       -19.6759
  95   2.0000      -0.722277       -19.6542
  96   2.0000      -0.720828       -19.6147
  97   2.0000      -0.705903       -19.2086
  98   2.0000      -0.701782       -19.0965
  99   2.0000      -0.663337       -18.0503
 100   2.0000      -0.653094       -17.7716
 101   2.0000      -0.648082       -17.6352
 102   2.0000      -0.636197       -17.3118
 103   2.0000      -0.624124       -16.9833
 104   2.0000      -0.622235       -16.9319
 105   2.0000      -0.621629       -16.9154
 106   2.0000      -0.620891       -16.8953
 107   2.0000      -0.614360       -16.7176
 108   2.0000      -0.612735       -16.6734
 109   2.0000      -0.606609       -16.5067
 110   2.0000      -0.593457       -16.1488
 111   2.0000      -0.588917       -16.0252
 112   2.0000      -0.586372       -15.9560
 113   2.0000      -0.577969       -15.7273
 114   2.0000      -0.575046       -15.6478
 115   2.0000      -0.562793       -15.3144
 116   2.0000      -0.561846       -15.2886
 117   2.0000      -0.552630       -15.0378
 118   2.0000      -0.550977       -14.9929
 119   2.0000      -0.545193       -14.8354
 120   2.0000      -0.544884       -14.8270
 121   2.0000      -0.543926       -14.8010
 122   2.0000      -0.539915       -14.6918
 123   2.0000      -0.536756       -14.6059
 124   2.0000      -0.531255       -14.4562
 125   2.0000      -0.528035       -14.3686
 126   2.0000      -0.527090       -14.3429
 127   2.0000      -0.521236       -14.1835
 128   2.0000      -0.515223       -14.0199
 129   2.0000      -0.513598       -13.9757
 130   2.0000      -0.511374       -13.9152
 131   2.0000      -0.508980       -13.8501
 132   2.0000      -0.508725       -13.8431
 133   2.0000      -0.507359       -13.8059
 134   2.0000      -0.503917       -13.7123
 135   2.0000      -0.500172       -13.6104
 136   2.0000      -0.499599       -13.5948
 137   2.0000      -0.497813       -13.5462
 138   2.0000      -0.490525       -13.3479
 139   2.0000      -0.483357       -13.1528
 140   2.0000      -0.482670       -13.1341
 141   2.0000      -0.478948       -13.0328
 142   2.0000      -0.474731       -12.9181
 143   2.0000      -0.472763       -12.8645
 144   2.0000      -0.467918       -12.7327
 145   2.0000      -0.465063       -12.6550
 146   2.0000      -0.461879       -12.5684
 147   2.0000      -0.458605       -12.4793
 148   2.0000      -0.455602       -12.3976
 149   2.0000      -0.454051       -12.3554
 150   2.0000      -0.450387       -12.2557
 151   2.0000      -0.445208       -12.1147
 152   2.0000      -0.438757       -11.9392
 153   2.0000      -0.430486       -11.7141
 154   2.0000      -0.424892       -11.5619
 155   2.0000      -0.424073       -11.5396
 156   2.0000      -0.418075       -11.3764
 157   2.0000      -0.413716       -11.2578
 158   2.0000      -0.411754       -11.2044
 159   2.0000      -0.410521       -11.1709
 160   2.0000      -0.406730       -11.0677
 161   2.0000      -0.403860       -10.9896
 162   2.0000      -0.402798       -10.9607
 163   2.0000      -0.394677       -10.7397
 164   2.0000      -0.393047       -10.6954
 165   2.0000      -0.350727        -9.5438
 166   2.0000      -0.347522        -9.4566
 167   2.0000      -0.347354        -9.4520
 168   2.0000      -0.334939        -9.1142
 169   2.0000      -0.329481        -8.9656
 170   2.0000      -0.327477        -8.9111
 171   2.0000      -0.325658        -8.8616
 172   2.0000      -0.322331        -8.7711
 173   2.0000      -0.318175        -8.6580
 174   2.0000      -0.310766        -8.4564
 175   2.0000      -0.303218        -8.2510
 176   2.0000      -0.296179        -8.0594
 177   2.0000      -0.291110        -7.9215
 178   2.0000      -0.285670        -7.7735
 179   2.0000      -0.275680        -7.5016
 180   2.0000      -0.269992        -7.3469
 181   2.0000      -0.258524        -7.0348
 182   2.0000      -0.251225        -6.8362
 183   2.0000      -0.240909        -6.5555
 184   2.0000      -0.209498        -5.7007
 185   0.0000      -0.000997        -0.0271
 186   0.0000       0.032245         0.8774
 187   0.0000       0.036535         0.9942
 188   0.0000       0.038954         1.0600
 189   0.0000       0.054015         1.4698

MULLIKEN ATOMIC CHARGES
-----------------------
   0 C :    0.339464
   1 C :   -0.178909
   2 C :    0.316523
   3 C :    0.081336
   4 C :   -0.225237
   5 C :   -0.371381
   6 C :    0.440450
   7 C :    0.115641
   8 C :    0.273790
   9 C :   -0.087505
  10 C :    0.270285
  11 C :    0.000938
  12 C :   -0.314955
  13 H :    0.175387
  14 H :    0.126397
  15 H :    0.190501
  16 O :   -0.292988
  17 O :   -0.582012
  18 O :   -0.587722
  19 C :   -0.005466
  20 C :   -0.372716
  21 C :   -0.112653
  22 C :   -0.134301
  23 H :    0.160758
  24 C :   -0.191147
  25 C :   -0.179231
  26 H :    0.160843
  27 H :    0.153924
  28 H :    0.159084
  29 C :    0.361569
  30 O :   -0.617392
  31 O :   -0.614124
  32 C :    0.131183
  33 C :   -0.287897
  34 C :   -0.194727
  35 C :    0.162250
  36 H :    0.131546
  37 C :   -0.309231
  38 H :    0.147006
  39 C :    0.219054
  40 H :    0.148583
  41 C :    0.061569
  42 C :   -0.315156
  43 C :   -0.217806
  44 C :    0.243326
  45 H :    0.140833
  46 C :   -0.298548
  47 H :    0.143014
  48 C :    0.166717
  49 H :    0.150509
  50 C :    0.093955
  51 C :   -0.250844
  52 C :   -0.288500
  53 C :   -0.294333
  54 H :    0.173752
  55 C :    0.192995
  56 H :    0.140459
  57 H :    0.150991
  58 C :   -0.308374
  59 C :   -0.149191
  60 H :    0.157758
  61 C :   -0.155555
  62 H :    0.156956
  63 C :   -0.255229
  64 H :    0.153528
  65 H :    0.156756
  66 C :   -0.354936
  67 C :   -0.113351
  68 H :    0.156052
  69 C :   -0.171995
  70 H :    0.156464
  71 C :   -0.252372
  72 H :    0.155242
  73 H :    0.152152
  74 C :    0.166970
  75 C :   -0.261328
  76 C :   -0.152978
  77 H :    0.159791
  78 C :   -0.146460
  79 H :    0.159162
  80 C :   -0.322167
  81 H :    0.155773
  82 H :    0.157482
Sum of atomic charges:   -2.0000000

LOEWDIN ATOMIC CHARGES
----------------------
   0 C :   -0.316292
   1 C :   -0.101383
   2 C :   -0.118118
   3 C :   -0.120480
   4 C :   -0.091001
   5 C :   -0.156059
   6 C :    0.038906
   7 C :   -0.116758
   8 C :   -0.120863
   9 C :   -0.099050
  10 C :   -0.270630
  11 C :   -0.103277
  12 C :   -0.040547
  13 H :    0.162302
  14 H :    0.144166
  15 H :    0.169539
  16 O :    0.361878
  17 O :   -0.062498
  18 O :   -0.085637
  19 C :   -0.067993
  20 C :   -0.097753
  21 C :   -0.077802
  22 C :   -0.148010
  23 H :    0.158752
  24 C :   -0.112429
  25 C :   -0.142845
  26 H :    0.150473
  27 H :    0.153072
  28 H :    0.150109
  29 C :   -0.596735
  30 O :   -0.134569
  31 O :   -0.122796
  32 C :   -0.108405
  33 C :   -0.062234
  34 C :   -0.101534
  35 C :   -0.105187
  36 H :    0.156298
  37 C :   -0.111690
  38 H :    0.153964
  39 C :   -0.108247
  40 H :    0.153896
  41 C :   -0.106019
  42 C :   -0.063055
  43 C :   -0.101115
  44 C :   -0.105591
  45 H :    0.157666
  46 C :   -0.116090
  47 H :    0.153352
  48 C :   -0.108176
  49 H :    0.152837
  50 C :   -0.109933
  51 C :   -0.110692
  52 C :   -0.068102
  53 C :   -0.114976
  54 H :    0.155271
  55 C :   -0.105427
  56 H :    0.155862
  57 H :    0.153594
  58 C :   -0.111063
  59 C :   -0.154426
  60 H :    0.149161
  61 C :   -0.154001
  62 H :    0.148937
  63 C :   -0.108121
  64 H :    0.153544
  65 H :    0.153388
  66 C :   -0.106551
  67 C :   -0.151274
  68 H :    0.149128
  69 C :   -0.152608
  70 H :    0.148962
  71 C :   -0.112165
  72 H :    0.153242
  73 H :    0.154025
  74 C :   -0.108416
  75 C :   -0.111116
  76 C :   -0.154631
  77 H :    0.149179
  78 C :   -0.153866
  79 H :    0.149445
  80 C :   -0.110062
  81 H :    0.153556
  82 H :    0.153793

  Mayer bond orders larger than 0.100000
B(  0-C ,  1-C ) :   1.0005 B(  0-C ,  5-C ) :   1.1866 B(  0-C , 18-O ) :   1.9084
B(  1-C ,  2-C ) :   1.3369 B(  1-C , 18-O ) :  -0.1290 B(  1-C , 32-C ) :   0.8291
B(  2-C ,  3-C ) :   1.2762 B(  2-C , 16-O ) :   1.0519 B(  3-C ,  4-C ) :   1.1495
B(  3-C ,  6-C ) :   1.1960 B(  4-C ,  5-C ) :   1.6396 B(  4-C , 13-H ) :   0.9635
B(  5-C , 14-H ) :   1.0099 B(  6-C ,  7-C ) :   1.1350 B(  6-C , 19-C ) :   0.6400
B(  6-C , 20-C ) :  -0.1170 B(  6-C , 21-C ) :  -0.1465 B(  7-C ,  8-C ) :   1.2767
B(  7-C , 12-C ) :   1.1498 B(  7-C , 19-C ) :  -0.1089 B(  8-C ,  9-C ) :   1.4370
B(  8-C , 16-O ) :   1.0791 B(  9-C , 10-C ) :   1.0769 B(  9-C , 17-O ) :  -0.1755
B(  9-C , 41-C ) :   0.7887 B( 10-C , 11-C ) :   1.1045 B( 10-C , 17-O ) :   1.9621
B( 11-C , 12-C ) :   1.5579 B( 11-C , 17-O ) :  -0.1404 B( 11-C , 50-C ) :   0.8457
B( 12-C , 15-H ) :   0.9454 B( 19-C , 20-C ) :   1.4036 B( 19-C , 21-C ) :   1.3432
B( 20-C , 22-C ) :   1.4432 B( 20-C , 23-H ) :   0.9949 B( 21-C , 24-C ) :   1.4173
B( 21-C , 29-C ) :   0.8877 B( 21-C , 30-O ) :  -0.1474 B( 22-C , 25-C ) :   1.3844
B( 22-C , 26-H ) :   0.9848 B( 24-C , 25-C ) :   1.4054 B( 24-C , 27-H ) :   0.9811
B( 25-C , 28-H ) :   0.9853 B( 29-C , 30-O ) :   1.7779 B( 29-C , 31-O ) :   1.8433
B( 32-C , 33-C ) :   1.5111 B( 32-C , 34-C ) :   1.1841 B( 33-C , 35-C ) :   1.2379
B( 33-C , 36-H ) :   1.0003 B( 34-C , 37-C ) :   1.5878 B( 34-C , 38-H ) :   0.9926
B( 35-C , 39-C ) :   1.2375 B( 35-C , 58-C ) :   1.2335 B( 37-C , 39-C ) :   1.1706
B( 37-C , 40-H ) :   1.0067 B( 39-C , 63-C ) :   1.2224 B( 41-C , 42-C ) :   1.4987
B( 41-C , 43-C ) :   1.2171 B( 42-C , 44-C ) :   1.2440 B( 42-C , 45-H ) :   1.0008
B( 43-C , 46-C ) :   1.5816 B( 43-C , 47-H ) :   0.9944 B( 44-C , 48-C ) :   1.2397
B( 44-C , 66-C ) :   1.1993 B( 46-C , 48-C ) :   1.1953 B( 46-C , 49-H ) :   1.0027
B( 48-C , 71-C ) :   1.2326 B( 50-C , 51-C ) :   1.2164 B( 50-C , 52-C ) :   1.4915
B( 51-C , 53-C ) :   1.6119 B( 51-C , 54-H ) :   0.9306 B( 52-C , 55-C ) :   1.2236
B( 52-C , 56-H ) :   0.9903 B( 53-C , 57-H ) :   1.0008 B( 53-C , 74-C ) :   1.1940
B( 55-C , 74-C ) :   1.2671 B( 55-C , 80-C ) :   1.2227 B( 58-C , 59-C ) :   1.5630
B( 58-C , 65-H ) :   0.9896 B( 59-C , 60-H ) :   0.9867 B( 59-C , 61-C ) :   1.2357
B( 61-C , 62-H ) :   0.9882 B( 61-C , 63-C ) :   1.5423 B( 63-C , 64-H ) :   0.9951
B( 66-C , 67-C ) :   1.5539 B( 66-C , 73-H ) :   0.9961 B( 67-C , 68-H ) :   0.9885
B( 67-C , 69-C ) :   1.2282 B( 69-C , 70-H ) :   0.9904 B( 69-C , 71-C ) :   1.5443
B( 71-C , 72-H ) :   0.9946 B( 74-C , 75-C ) :   1.2390 B( 75-C , 76-C ) :   1.5529
B( 75-C , 82-H ) :   0.9883 B( 76-C , 77-H ) :   0.9835 B( 76-C , 78-C ) :   1.2388
B( 78-C , 79-H ) :   0.9842 B( 78-C , 80-C ) :   1.5695 B( 80-C , 81-H ) :   0.9905

MP2 TOTAL ENERGY:    -2296.560989274 Eh

-----------------------------------------------------------------------------
         ABSORPTION SPECTRUM VIA TRANSITION ELECTRIC DIPOLE MOMENTS
-----------------------------------------------------------------------------
State   Energy    Wavelength  fosc         T2        TX        TY        TZ
        (cm-1)      (nm)                 (au**2)    (au)      (au)      (au)
-----------------------------------------------------------------------------
   1   12390.6    807.1   0.617603217  16.40943   2.84662  -2.87382   0.21758
   2   19183.6    521.3   0.180509652   3.09775  -1.72271  -0.02944   0.35937
   3   17325.1    577.2   0.042206405   0.80201   0.65177  -0.55868  -0.25509
   4   23021.3    434.4   0.097792840   1.39847   1.06465   0.43185  -0.28019
   5   28739.3    348.0   0.117628303   1.34745  -0.85701  -0.75054   0.22288
   6   24612.5    406.3   0.032916834   0.44029   0.48600   0.37796  -0.24746
   7   25671.8    389.5   0.055945121   0.71743  -0.43605  -0.69805  -0.20005
   8   27260.9    366.8   0.019818362   0.23933   0.07509   0.41908   0.24097
   9   31061.8    321.9   0.083236869   0.88219   0.18467   0.65127   0.65110
  10   29974.9    333.6   0.049509463   0.54376  -0.23123   0.64480   0.27298
  11   22531.7    443.8   0.316201206   4.62003  -1.83521  -1.11552  -0.08752
  12   15934.6    627.6   0.012879467   0.26609  -0.38078  -0.33627  -0.08956
  13   19096.2    523.7   0.079656147   1.37324  -1.02464  -0.54905  -0.14798
  14   19515.8    512.4   0.037958315   0.64032   0.78571   0.12736   0.08221
  15   20924.3    477.9   0.032274814   0.50779  -0.18200   0.68746   0.04545
  16   24910.1    401.4   0.181699914   2.40135   1.02503  -1.15234   0.15090
  17   20953.1    477.3   0.030042970   0.47203  -0.14616  -0.60191   0.29727
  18   21594.5    463.1   0.094817373   1.44551   0.46422   1.10709  -0.06606
  19   23142.6    432.1   0.035222650   0.50106  -0.49116  -0.43108  -0.27200
  20   26106.6    383.0   0.085952689   1.08389   0.67705   0.77537   0.15587
  21   24576.3    406.9   0.048284243   0.64679   0.70064   0.37862  -0.11199
  22   24618.9    406.2   0.358998801   4.80065   2.18485   0.08738  -0.13946
  23   23516.8    425.2   0.037556319   0.52575  -0.71761   0.08918   0.05319
  24   18606.9    537.4   0.018270234   0.32326   0.54996   0.14308   0.01811
  25   24230.6    412.7   0.205247372   2.78862  -0.91163   1.39712   0.07491
  26   27015.8    370.2   0.643461221   7.84115  -2.72833   0.57791   0.25181
  27   25365.4    394.2   0.105070181   1.36369   1.08583   0.01203  -0.42954
  28   27044.0    369.8   0.090666325   1.10370   0.51961   0.85844  -0.31110
  29   22998.0    434.8   0.018892537   0.27044  -0.29515   0.42599  -0.04320
  30   33766.6    296.2   0.054344850   0.52984   0.14615   0.64417  -0.30582

Dispersion correction           -0.095489144
FINAL SINGLE POINT ENERGY     -2292.195211342315

DIPOLE MOMENT
-------------
                                X             Y             Z
Electronic contribution:      1.94422       9.17439       0.46583
Nuclear contribution   :     -3.62887     -12.98899      -4.91127
                        -----------------------------------------
Total Dipole Moment    :     -1.68465      -3.81460      -4.44543
                        -----------------------------------------
Magnitude (a.u.)       :      6.09517
Magnitude (Debye)      :     15.49269

Rotational constants in cm-1:     0.002528     0.001161     0.000850
Rotational constants in MHz :    75.778822    34.796270    25.496660

                             ****ORCA TERMINATED NORMALLY****
TOTAL RUN TIME: 1 days 0 hours 31 minutes 9 seconds 52 msec
