                         Program Version 5.0.2 -  RELEASE  -
|  1> %maxcore 9600
|  2> %pal
|  3>  nprocs= 12
|  4> end
|  5> ! RI-B2GP-PLYP   def2-TZVP def2/J def2-TZVP/C RIJCOSX CPCM TightSCF
|  6> %TDDFT
|  7>    NROOTS   30
|  8>    dcorr 4
|  9>    TDA      FALSE
| 10> END
| 11>
| 12>  %CPCM
| 13>    SMD          TRUE
| 14>    SMDsolvent   "ACETONITRILE"
| 15>  END
| 16>
| 17>
| 18> * xyz -2 1
| 19>  C -3.021889 3.845082 -0.412279
| 20>  C -2.670618 2.435301 -0.435900
| 21>  C -1.338877 2.078139 -0.351790
| 22>  C -0.261988 3.002393 -0.306931
| 23>  C -0.618807 4.377008 -0.290805
| 24>  C -1.915100 4.774589 -0.336421
| 25>  C 1.056534 2.527055 -0.248409
| 26>  C 1.287357 1.141094 -0.197827
| 27>  C 0.183866 0.251934 -0.177149
| 28>  C 0.314103 -1.117620 -0.097666
| 29>  C 1.633556 -1.716982 -0.043436
| 30>  C 2.779347 -0.801316 -0.075467
| 31>  C 2.568460 0.550215 -0.156436
| 32>  H 0.173164 5.113184 -0.225871
| 33>  H -2.170444 5.827748 -0.312236
| 34>  H 3.425754 1.209587 -0.204065
| 35>  O -1.079149 0.744841 -0.276092
| 36>  O 1.773266 -2.954258 0.058640
| 37>  O -4.202988 4.251775 -0.462231
| 38>  C 2.194005 3.472354 -0.317641
| 39>  C 2.350359 4.234695 -1.477882
| 40>  C 3.141981 3.585655 0.711389
| 41>  C 3.411829 5.113435 -1.622431
| 42>  H 1.627795 4.125491 -2.278755
| 43>  C 4.214877 4.457657 0.538758
| 44>  C 4.347900 5.229337 -0.604349
| 45>  H 3.508708 5.698645 -2.528336
| 46>  H 4.950074 4.523332 1.332256
| 47>  H 5.181035 5.914540 -0.704903
| 48>  C 3.017901 2.812974 2.015765
| 49>  O 4.075858 2.295506 2.445559
| 50>  O 1.881980 2.793400 2.539240
| 51>  C -3.723706 1.413628 -0.561330
| 52>  C -4.853997 1.442244 0.228035
| 53>  C -3.618021 0.387959 -1.537322
| 54>  C -5.879397 0.482015 0.098398
| 55>  H -4.965003 2.217489 0.975750
| 56>  C -4.596796 -0.552469 -1.696734
| 57>  H -2.744588 0.362525 -2.177147
| 58>  C -5.754480 -0.542060 -0.887587
| 59>  H -4.497315 -1.322590 -2.453987
| 60>  C -0.870074 -1.996266 -0.056955
| 61>  C -1.888836 -1.797010 0.849629
| 62>  C -0.988029 -3.077000 -0.967311
| 63>  C -3.031257 -2.621960 0.885340
| 64>  H -1.824023 -0.984223 1.564456
| 65>  C -2.086501 -3.892243 -0.967036
| 66>  H -0.190854 -3.243703 -1.679910
| 67>  C -3.140148 -3.696765 -0.046492
| 68>  H -2.163437 -4.705839 -1.679713
| 69>  C 4.156124 -1.309270 0.013768
| 70>  C 5.139404 -0.534617 0.689918
| 71>  C 4.551412 -2.509256 -0.546396
| 72>  C 6.438026 -0.950427 0.781717
| 73>  H 4.840235 0.395836 1.164806
| 74>  C 5.884479 -2.962508 -0.471454
| 75>  H 3.827403 -3.121419 -1.065402
| 76>  H 7.166748 -0.347365 1.312293
| 77>  C -7.029321 0.492512 0.920290
| 78>  C -8.007660 -0.456400 0.775371
| 79>  H -8.882038 -0.435276 1.414160
| 80>  C -7.885633 -1.460763 -0.202991
| 81>  H -8.666019 -2.204260 -0.308811
| 82>  C -6.782354 -1.499895 -1.015957
| 83>  H -6.678993 -2.274082 -1.768377
| 84>  H -7.123034 1.268798 1.671286
| 85>  C -4.077842 -2.418145 1.813783
| 86>  C -5.178066 -3.234617 1.823916
| 87>  H -5.972498 -3.066478 2.540762
| 88>  C -5.286567 -4.291480 0.900246
| 89>  H -6.163920 -4.926542 0.914017
| 90>  C -4.289926 -4.514856 -0.014351
| 91>  H -4.368994 -5.327981 -0.727267
| 92>  H -3.992801 -1.599218 2.519792
| 93>  C 6.857695 -2.170690 0.207824
| 94>  C 8.188019 -2.634201 0.284332
| 95>  C 8.551314 -3.825776 -0.288032
| 96>  H 9.575875 -4.170440 -0.223255
| 97>  C 7.594642 -4.606959 -0.963257
| 98>  H 7.892053 -5.546462 -1.412562
| 99>  C 6.294091 -4.185260 -1.051863
|100>  H 5.555063 -4.786601 -1.569286
|101>  H 8.919964 -2.027592 0.805834
|102> *
|103>
|104>
|105>
|106>
|107>                          ****END OF INPUT****

CARTESIAN COORDINATES (ANGSTROEM)
---------------------------------
  C     -3.021889    3.845082   -0.412279
  C     -2.670618    2.435301   -0.435900
  C     -1.338877    2.078139   -0.351790
  C     -0.261988    3.002393   -0.306931
  C     -0.618807    4.377008   -0.290805
  C     -1.915100    4.774589   -0.336421
  C      1.056534    2.527055   -0.248409
  C      1.287357    1.141094   -0.197827
  C      0.183866    0.251934   -0.177149
  C      0.314103   -1.117620   -0.097666
  C      1.633556   -1.716982   -0.043436
  C      2.779347   -0.801316   -0.075467
  C      2.568460    0.550215   -0.156436
  H      0.173164    5.113184   -0.225871
  H     -2.170444    5.827748   -0.312236
  H      3.425754    1.209587   -0.204065
  O     -1.079149    0.744841   -0.276092
  O      1.773266   -2.954258    0.058640
  O     -4.202988    4.251775   -0.462231
  C      2.194005    3.472354   -0.317641
  C      2.350359    4.234695   -1.477882
  C      3.141981    3.585655    0.711389
  C      3.411829    5.113435   -1.622431
  H      1.627795    4.125491   -2.278755
  C      4.214877    4.457657    0.538758
  C      4.347900    5.229337   -0.604349
  H      3.508708    5.698645   -2.528336
  H      4.950074    4.523332    1.332256
  H      5.181035    5.914540   -0.704903
  C      3.017901    2.812974    2.015765
  O      4.075858    2.295506    2.445559
  O      1.881980    2.793400    2.539240
  C     -3.723706    1.413628   -0.561330
  C     -4.853997    1.442244    0.228035
  C     -3.618021    0.387959   -1.537322
  C     -5.879397    0.482015    0.098398
  H     -4.965003    2.217489    0.975750
  C     -4.596796   -0.552469   -1.696734
  H     -2.744588    0.362525   -2.177147
  C     -5.754480   -0.542060   -0.887587
  H     -4.497315   -1.322590   -2.453987
  C     -0.870074   -1.996266   -0.056955
  C     -1.888836   -1.797010    0.849629
  C     -0.988029   -3.077000   -0.967311
  C     -3.031257   -2.621960    0.885340
  H     -1.824023   -0.984223    1.564456
  C     -2.086501   -3.892243   -0.967036
  H     -0.190854   -3.243703   -1.679910
  C     -3.140148   -3.696765   -0.046492
  H     -2.163437   -4.705839   -1.679713
  C      4.156124   -1.309270    0.013768
  C      5.139404   -0.534617    0.689918
  C      4.551412   -2.509256   -0.546396
  C      6.438026   -0.950427    0.781717
  H      4.840235    0.395836    1.164806
  C      5.884479   -2.962508   -0.471454
  H      3.827403   -3.121419   -1.065402
  H      7.166748   -0.347365    1.312293
  C     -7.029321    0.492512    0.920290
  C     -8.007660   -0.456400    0.775371
  H     -8.882038   -0.435276    1.414160
  C     -7.885633   -1.460763   -0.202991
  H     -8.666019   -2.204260   -0.308811
  C     -6.782354   -1.499895   -1.015957
  H     -6.678993   -2.274082   -1.768377
  H     -7.123034    1.268798    1.671286
  C     -4.077842   -2.418145    1.813783
  C     -5.178066   -3.234617    1.823916
  H     -5.972498   -3.066478    2.540762
  C     -5.286567   -4.291480    0.900246
  H     -6.163920   -4.926542    0.914017
  C     -4.289926   -4.514856   -0.014351
  H     -4.368994   -5.327981   -0.727267
  H     -3.992801   -1.599218    2.519792
  C      6.857695   -2.170690    0.207824
  C      8.188019   -2.634201    0.284332
  C      8.551314   -3.825776   -0.288032
  H      9.575875   -4.170440   -0.223255
  C      7.594642   -4.606959   -0.963257
  H      7.892053   -5.546462   -1.412562
  C      6.294091   -4.185260   -1.051863
  H      5.555063   -4.786601   -1.569286
  H      8.919964   -2.027592    0.805834

 Total Charge           Charge          ....   -2
 Multiplicity           Mult            ....    1
 Number of Electrons    NEL             ....  370
 Basis Dimension        Dim             .... 1873

ORBITAL ENERGIES
----------------

  NO   OCC          E(Eh)            E(eV)
   0   2.0000     -19.995855      -544.1149
   1   2.0000     -19.867304      -540.6168
   2   2.0000     -19.867153      -540.6127
   3   2.0000     -19.850381      -540.1563
   4   2.0000     -19.850163      -540.1504
   5   2.0000     -10.853059      -295.3268
   6   2.0000     -10.851364      -295.2806
   7   2.0000     -10.846324      -295.1435
   8   2.0000     -10.833071      -294.7829
   9   2.0000     -10.830510      -294.7132
  10   2.0000     -10.822360      -294.4914
  11   2.0000     -10.786414      -293.5133
  12   2.0000     -10.778441      -293.2963
  13   2.0000     -10.778144      -293.2882
  14   2.0000     -10.777936      -293.2826
  15   2.0000     -10.777767      -293.2779
  16   2.0000     -10.777550      -293.2721
  17   2.0000     -10.777497      -293.2706
  18   2.0000     -10.777325      -293.2659
  19   2.0000     -10.777237      -293.2635
  20   2.0000     -10.776490      -293.2432
  21   2.0000     -10.776447      -293.2420
  22   2.0000     -10.776100      -293.2326
  23   2.0000     -10.773947      -293.1740
  24   2.0000     -10.773596      -293.1644
  25   2.0000     -10.772795      -293.1427
  26   2.0000     -10.771370      -293.1039
  27   2.0000     -10.771086      -293.0961
  28   2.0000     -10.770928      -293.0919
  29   2.0000     -10.770480      -293.0797
  30   2.0000     -10.769908      -293.0641
  31   2.0000     -10.769720      -293.0590
  32   2.0000     -10.769695      -293.0583
  33   2.0000     -10.769612      -293.0560
  34   2.0000     -10.769576      -293.0551
  35   2.0000     -10.769079      -293.0415
  36   2.0000     -10.768914      -293.0370
  37   2.0000     -10.768801      -293.0340
  38   2.0000     -10.768313      -293.0207
  39   2.0000     -10.767873      -293.0087
  40   2.0000     -10.767356      -292.9946
  41   2.0000     -10.767247      -292.9917
  42   2.0000     -10.766899      -292.9822
  43   2.0000     -10.766556      -292.9729
  44   2.0000     -10.766388      -292.9683
  45   2.0000     -10.765375      -292.9407
  46   2.0000     -10.765263      -292.9377
  47   2.0000     -10.764679      -292.9218
  48   2.0000     -10.764031      -292.9042
  49   2.0000     -10.763570      -292.8916
  50   2.0000     -10.763306      -292.8844
  51   2.0000     -10.762111      -292.8519
  52   2.0000     -10.758017      -292.7405
  53   2.0000     -10.757186      -292.7179
  54   2.0000     -10.751856      -292.5729
  55   2.0000      -1.304647       -35.5013
  56   2.0000      -1.200785       -32.6750
  57   2.0000      -1.179810       -32.1043
  58   2.0000      -1.176387       -32.0111
  59   2.0000      -1.103746       -30.0344
  60   2.0000      -1.047634       -28.5076
  61   2.0000      -1.045493       -28.4493
  62   2.0000      -1.045163       -28.4403
  63   2.0000      -1.044165       -28.4132
  64   2.0000      -1.023441       -27.8492
  65   2.0000      -1.014424       -27.6039
  66   2.0000      -0.991581       -26.9823
  67   2.0000      -0.989982       -26.9388
  68   2.0000      -0.980922       -26.6923
  69   2.0000      -0.951050       -25.8794
  70   2.0000      -0.939167       -25.5560
  71   2.0000      -0.929594       -25.2955
  72   2.0000      -0.926185       -25.2028
  73   2.0000      -0.922372       -25.0990
  74   2.0000      -0.912149       -24.8208
  75   2.0000      -0.901864       -24.5410
  76   2.0000      -0.901299       -24.5256
  77   2.0000      -0.889960       -24.2170
  78   2.0000      -0.878941       -23.9172
  79   2.0000      -0.871342       -23.7104
  80   2.0000      -0.868870       -23.6432
  81   2.0000      -0.861808       -23.4510
  82   2.0000      -0.850230       -23.1359
  83   2.0000      -0.845660       -23.0116
  84   2.0000      -0.784554       -21.3488
  85   2.0000      -0.779217       -21.2036
  86   2.0000      -0.764016       -20.7899
  87   2.0000      -0.756857       -20.5951
  88   2.0000      -0.746967       -20.3260
  89   2.0000      -0.743941       -20.2437
  90   2.0000      -0.740802       -20.1582
  91   2.0000      -0.736719       -20.0471
  92   2.0000      -0.731650       -19.9092
  93   2.0000      -0.722519       -19.6607
  94   2.0000      -0.713799       -19.4235
  95   2.0000      -0.713027       -19.4025
  96   2.0000      -0.711598       -19.3636
  97   2.0000      -0.696538       -18.9538
  98   2.0000      -0.692470       -18.8431
  99   2.0000      -0.654552       -17.8113
 100   2.0000      -0.644467       -17.5368
 101   2.0000      -0.639817       -17.4103
 102   2.0000      -0.627763       -17.0823
 103   2.0000      -0.615866       -16.7586
 104   2.0000      -0.614394       -16.7185
 105   2.0000      -0.613793       -16.7021
 106   2.0000      -0.613005       -16.6807
 107   2.0000      -0.606446       -16.5022
 108   2.0000      -0.604767       -16.4566
 109   2.0000      -0.598737       -16.2925
 110   2.0000      -0.585354       -15.9283
 111   2.0000      -0.581278       -15.8174
 112   2.0000      -0.578642       -15.7457
 113   2.0000      -0.570226       -15.5166
 114   2.0000      -0.567456       -15.4413
 115   2.0000      -0.555286       -15.1101
 116   2.0000      -0.554164       -15.0796
 117   2.0000      -0.545122       -14.8335
 118   2.0000      -0.543126       -14.7792
 119   2.0000      -0.537900       -14.6370
 120   2.0000      -0.537616       -14.6293
 121   2.0000      -0.536674       -14.6036
 122   2.0000      -0.532793       -14.4980
 123   2.0000      -0.529621       -14.4117
 124   2.0000      -0.523669       -14.2497
 125   2.0000      -0.520887       -14.1741
 126   2.0000      -0.519838       -14.1455
 127   2.0000      -0.514100       -13.9894
 128   2.0000      -0.508332       -13.8324
 129   2.0000      -0.506688       -13.7877
 130   2.0000      -0.504512       -13.7285
 131   2.0000      -0.502193       -13.6654
 132   2.0000      -0.501924       -13.6580
 133   2.0000      -0.500393       -13.6164
 134   2.0000      -0.496551       -13.5118
 135   2.0000      -0.493318       -13.4239
 136   2.0000      -0.492630       -13.4051
 137   2.0000      -0.490830       -13.3562
 138   2.0000      -0.484403       -13.1813
 139   2.0000      -0.477228       -12.9860
 140   2.0000      -0.476224       -12.9587
 141   2.0000      -0.472501       -12.8574
 142   2.0000      -0.468653       -12.7527
 143   2.0000      -0.467007       -12.7079
 144   2.0000      -0.461409       -12.5556
 145   2.0000      -0.459162       -12.4944
 146   2.0000      -0.455577       -12.3969
 147   2.0000      -0.452135       -12.3032
 148   2.0000      -0.449293       -12.2259
 149   2.0000      -0.447709       -12.1828
 150   2.0000      -0.444340       -12.0911
 151   2.0000      -0.439186       -11.9509
 152   2.0000      -0.432582       -11.7711
 153   2.0000      -0.424421       -11.5491
 154   2.0000      -0.418933       -11.3998
 155   2.0000      -0.418101       -11.3771
 156   2.0000      -0.412602       -11.2275
 157   2.0000      -0.408146       -11.1062
 158   2.0000      -0.405997       -11.0477
 159   2.0000      -0.404906       -11.0181
 160   2.0000      -0.401462       -10.9243
 161   2.0000      -0.399025       -10.8580
 162   2.0000      -0.397254       -10.8098
 163   2.0000      -0.390023       -10.6131
 164   2.0000      -0.388391       -10.5686
 165   2.0000      -0.347145        -9.4463
 166   2.0000      -0.343961        -9.3597
 167   2.0000      -0.343852        -9.3567
 168   2.0000      -0.329476        -8.9655
 169   2.0000      -0.324709        -8.8358
 170   2.0000      -0.322849        -8.7852
 171   2.0000      -0.319468        -8.6932
 172   2.0000      -0.315915        -8.5965
 173   2.0000      -0.312325        -8.4988
 174   2.0000      -0.306386        -8.3372
 175   2.0000      -0.300262        -8.1706
 176   2.0000      -0.293292        -7.9809
 177   2.0000      -0.287272        -7.8171
 178   2.0000      -0.283207        -7.7065
 179   2.0000      -0.273419        -7.4401
 180   2.0000      -0.267532        -7.2799
 181   2.0000      -0.256450        -6.9784
 182   2.0000      -0.249293        -6.7836
 183   2.0000      -0.238807        -6.4983
 184   2.0000      -0.207802        -5.6546
 185   0.0000      -0.008542        -0.2324
 186   0.0000       0.024449         0.6653
 187   0.0000       0.028685         0.7806
 188   0.0000       0.031096         0.8462
 189   0.0000       0.046192         1.2569

MULLIKEN ATOMIC CHARGES
-----------------------
   0 C :    0.328432
   1 C :   -0.174203
   2 C :    0.308264
   3 C :    0.078967
   4 C :   -0.224811
   5 C :   -0.365097
   6 C :    0.428426
   7 C :    0.112470
   8 C :    0.267066
   9 C :   -0.084667
  10 C :    0.260629
  11 C :    0.000021
  12 C :   -0.313131
  13 H :    0.175520
  14 H :    0.126136
  15 H :    0.191723
  16 O :   -0.290072
  17 O :   -0.572948
  18 O :   -0.578564
  19 C :   -0.008752
  20 C :   -0.367001
  21 C :   -0.113256
  22 C :   -0.134843
  23 H :    0.160644
  24 C :   -0.191093
  25 C :   -0.179157
  26 H :    0.160796
  27 H :    0.153217
  28 H :    0.159023
  29 C :    0.350884
  30 O :   -0.608654
  31 O :   -0.605361
  32 C :    0.128549
  33 C :   -0.284020
  34 C :   -0.192991
  35 C :    0.155483
  36 H :    0.131728
  37 C :   -0.306646
  38 H :    0.147557
  39 C :    0.213915
  40 H :    0.148656
  41 C :    0.059387
  42 C :   -0.309644
  43 C :   -0.215736
  44 C :    0.234365
  45 H :    0.141320
  46 C :   -0.294426
  47 H :    0.143404
  48 C :    0.161839
  49 H :    0.150366
  50 C :    0.093083
  51 C :   -0.248735
  52 C :   -0.285989
  53 C :   -0.290854
  54 H :    0.174295
  55 C :    0.186292
  56 H :    0.140042
  57 H :    0.150767
  58 C :   -0.302306
  59 C :   -0.150316
  60 H :    0.157780
  61 C :   -0.155794
  62 H :    0.157049
  63 C :   -0.252803
  64 H :    0.153532
  65 H :    0.156547
  66 C :   -0.348559
  67 C :   -0.115502
  68 H :    0.156286
  69 C :   -0.172360
  70 H :    0.156518
  71 C :   -0.248598
  72 H :    0.155036
  73 H :    0.152238
  74 C :    0.161325
  75 C :   -0.257615
  76 C :   -0.153649
  77 H :    0.159792
  78 C :   -0.147488
  79 H :    0.159193
  80 C :   -0.315873
  81 H :    0.155663
  82 H :    0.157286
Sum of atomic charges:   -2.0000000

LOEWDIN ATOMIC CHARGES
----------------------
   0 C :   -0.319238
   1 C :   -0.100516
   2 C :   -0.120425
   3 C :   -0.119262
   4 C :   -0.092673
   5 C :   -0.155247
   6 C :    0.036470
   7 C :   -0.115501
   8 C :   -0.123071
   9 C :   -0.098203
  10 C :   -0.273374
  11 C :   -0.102559
  12 C :   -0.042116
  13 H :    0.162498
  14 H :    0.144578
  15 H :    0.169738
  16 O :    0.364457
  17 O :   -0.058736
  18 O :   -0.081953
  19 C :   -0.068453
  20 C :   -0.098449
  21 C :   -0.078576
  22 C :   -0.148550
  23 H :    0.159033
  24 C :   -0.112966
  25 C :   -0.143582
  26 H :    0.150789
  27 H :    0.153295
  28 H :    0.150409
  29 C :   -0.601185
  30 O :   -0.131231
  31 O :   -0.119344
  32 C :   -0.108631
  33 C :   -0.062540
  34 C :   -0.101893
  35 C :   -0.105351
  36 H :    0.156644
  37 C :   -0.111959
  38 H :    0.154368
  39 C :   -0.108377
  40 H :    0.154293
  41 C :   -0.106273
  42 C :   -0.063292
  43 C :   -0.101557
  44 C :   -0.105751
  45 H :    0.158067
  46 C :   -0.116227
  47 H :    0.153718
  48 C :   -0.108301
  49 H :    0.153222
  50 C :   -0.110119
  51 C :   -0.111007
  52 C :   -0.068321
  53 C :   -0.115199
  54 H :    0.155446
  55 C :   -0.105580
  56 H :    0.156105
  57 H :    0.153956
  58 C :   -0.111313
  59 C :   -0.154760
  60 H :    0.149544
  61 C :   -0.154304
  62 H :    0.149332
  63 C :   -0.108571
  64 H :    0.153918
  65 H :    0.153751
  66 C :   -0.106917
  67 C :   -0.151660
  68 H :    0.149534
  69 C :   -0.152976
  70 H :    0.149358
  71 C :   -0.112449
  72 H :    0.153609
  73 H :    0.154406
  74 C :   -0.108490
  75 C :   -0.111460
  76 C :   -0.154904
  77 H :    0.149553
  78 C :   -0.154211
  79 H :    0.149816
  80 C :   -0.110346
  81 H :    0.153908
  82 H :    0.154139

  Mayer bond orders larger than 0.100000
B(  0-C ,  1-C ) :   1.0005 B(  0-C ,  5-C ) :   1.1871 B(  0-C , 18-O ) :   1.9138
B(  1-C ,  2-C ) :   1.3368 B(  1-C , 18-O ) :  -0.1287 B(  1-C , 32-C ) :   0.8387
B(  2-C ,  3-C ) :   1.2731 B(  2-C , 16-O ) :   1.0517 B(  3-C ,  4-C ) :   1.1510
B(  3-C ,  6-C ) :   1.1957 B(  4-C ,  5-C ) :   1.6364 B(  4-C , 13-H ) :   0.9615
B(  5-C , 14-H ) :   1.0083 B(  6-C ,  7-C ) :   1.1367 B(  6-C , 19-C ) :   0.6502
B(  6-C , 20-C ) :  -0.1108 B(  6-C , 21-C ) :  -0.1408 B(  7-C ,  8-C ) :   1.2728
B(  7-C , 12-C ) :   1.1548 B(  7-C , 19-C ) :  -0.1044 B(  8-C ,  9-C ) :   1.4370
B(  8-C , 16-O ) :   1.0790 B(  9-C , 10-C ) :   1.0795 B(  9-C , 17-O ) :  -0.1767
B(  9-C , 41-C ) :   0.7984 B( 10-C , 11-C ) :   1.1026 B( 10-C , 17-O ) :   1.9678
B( 11-C , 12-C ) :   1.5554 B( 11-C , 17-O ) :  -0.1404 B( 11-C , 50-C ) :   0.8548
B( 12-C , 15-H ) :   0.9423 B( 19-C , 20-C ) :   1.3998 B( 19-C , 21-C ) :   1.3422
B( 20-C , 22-C ) :   1.4411 B( 20-C , 23-H ) :   0.9942 B( 21-C , 24-C ) :   1.4143
B( 21-C , 29-C ) :   0.8826 B( 21-C , 30-O ) :  -0.1479 B( 22-C , 25-C ) :   1.3837
B( 22-C , 26-H ) :   0.9838 B( 24-C , 25-C ) :   1.4058 B( 24-C , 27-H ) :   0.9802
B( 25-C , 28-H ) :   0.9842 B( 29-C , 30-O ) :   1.7828 B( 29-C , 31-O ) :   1.8496
B( 32-C , 33-C ) :   1.5081 B( 32-C , 34-C ) :   1.1842 B( 33-C , 35-C ) :   1.2388
B( 33-C , 36-H ) :   0.9981 B( 34-C , 37-C ) :   1.5847 B( 34-C , 38-H ) :   0.9918
B( 35-C , 39-C ) :   1.2323 B( 35-C , 58-C ) :   1.2326 B( 37-C , 39-C ) :   1.1694
B( 37-C , 40-H ) :   1.0058 B( 39-C , 63-C ) :   1.2202 B( 41-C , 42-C ) :   1.4948
B( 41-C , 43-C ) :   1.2174 B( 42-C , 44-C ) :   1.2431 B( 42-C , 45-H ) :   0.9996
B( 43-C , 46-C ) :   1.5793 B( 43-C , 47-H ) :   0.9930 B( 44-C , 48-C ) :   1.2343
B( 44-C , 66-C ) :   1.1982 B( 46-C , 48-C ) :   1.1948 B( 46-C , 49-H ) :   1.0012
B( 48-C , 71-C ) :   1.2310 B( 50-C , 51-C ) :   1.2181 B( 50-C , 52-C ) :   1.4902
B( 51-C , 53-C ) :   1.6103 B( 51-C , 54-H ) :   0.9277 B( 52-C , 55-C ) :   1.2251
B( 52-C , 56-H ) :   0.9879 B( 53-C , 57-H ) :   0.9993 B( 53-C , 74-C ) :   1.1942
B( 55-C , 74-C ) :   1.2628 B( 55-C , 80-C ) :   1.2223 B( 58-C , 59-C ) :   1.5600
B( 58-C , 65-H ) :   0.9882 B( 59-C , 60-H ) :   0.9857 B( 59-C , 61-C ) :   1.2374
B( 61-C , 62-H ) :   0.9871 B( 61-C , 63-C ) :   1.5393 B( 63-C , 64-H ) :   0.9942
B( 66-C , 67-C ) :   1.5504 B( 66-C , 73-H ) :   0.9950 B( 67-C , 68-H ) :   0.9877
B( 67-C , 69-C ) :   1.2296 B( 69-C , 70-H ) :   0.9895 B( 69-C , 71-C ) :   1.5413
B( 71-C , 72-H ) :   0.9932 B( 74-C , 75-C ) :   1.2378 B( 75-C , 76-C ) :   1.5501
B( 75-C , 82-H ) :   0.9869 B( 76-C , 77-H ) :   0.9824 B( 76-C , 78-C ) :   1.2407
B( 78-C , 79-H ) :   0.9831 B( 78-C , 80-C ) :   1.5665 B( 80-C , 81-H ) :   0.9888

MP2 TOTAL ENERGY:    -2297.161705084 Eh

-----------------------------------------------------------------------------
         ABSORPTION SPECTRUM VIA TRANSITION ELECTRIC DIPOLE MOMENTS
-----------------------------------------------------------------------------
State   Energy    Wavelength  fosc         T2        TX        TY        TZ
        (cm-1)      (nm)                 (au**2)    (au)      (au)      (au)
-----------------------------------------------------------------------------
   1   19449.6    514.1   0.963527241  16.30905  -2.84212   2.86085  -0.21661
   2   26199.2    381.7   0.226217347   2.84259  -1.65257  -0.07417   0.32571
   3   26457.4    378.0   0.107200714   1.33391  -1.05025   0.36664   0.31058
   4   29709.7    336.6   0.109712601   1.21572   0.89480   0.61520  -0.19125
   5   32075.8    311.8   0.122061892   1.25279  -0.77785  -0.78400   0.18188
   6   31216.7    320.3   0.071674964   0.75588   0.65198   0.52970  -0.22412
   7   32430.8    308.3   0.095322651   0.96764  -0.46856  -0.82435  -0.26179
   8   33285.8    300.4   0.019615217   0.19400  -0.02946  -0.40444  -0.17194
   9   35006.7    285.7   0.105916688   0.99607   0.17534   0.69218   0.69729
  10   31828.0    314.2   0.310654750   3.21325  -1.56789  -0.86765  -0.04636
  11   34717.5    288.0   0.057040537   0.54089   0.41166  -0.54237  -0.27797
  12   29477.2    339.2   0.012299580   0.13737   0.21891   0.28779   0.08137
  13   30959.9    323.0   0.107986533   1.14827   0.90288   0.55804   0.14721
  14   31992.0    312.6   0.096621261   0.99428   0.90785   0.39665   0.11292
  15   32400.7    308.6   0.013672263   0.13892  -0.22175   0.29575   0.04775
  16   34702.6    288.2   0.236256940   2.24129   1.09189  -1.01450   0.14086
  17   32549.0    307.2   0.024228482   0.24506  -0.12576  -0.40755   0.25128
  18   34036.3    293.8   0.224656664   2.17296  -0.55961  -1.36337   0.03185
  19   34647.0    288.6   0.028158562   0.26756   0.46053  -0.04227   0.23170
  20   35140.2    284.6   0.005579092   0.05227  -0.11913   0.02571   0.19343
  21   35960.5    278.1   0.129066420   1.18158   0.77916   0.75639   0.04871
  22   35353.9    282.9   0.317329641   2.95494  -1.69804  -0.26203   0.05417
  23   34532.9    289.6   0.101402082   0.96669   0.92797   0.32415   0.02224
  24   35714.7    280.0   0.016197374   0.14930  -0.35014  -0.13721   0.08877
  25   36026.9    277.6   0.136253300   1.24507   0.29557  -1.07422  -0.06137
  26   38098.2    262.5   1.112737982   9.61534  -2.95787   0.90288   0.22615
  27   36823.0    271.6   0.118194796   1.05671   0.98431  -0.08913  -0.28266
  28   37882.9    264.0   0.118900636   1.03328  -0.11525  -0.97277   0.27149
  29   37472.1    266.9   0.037744645   0.33161   0.46722  -0.31482  -0.11918
  30   40608.5    246.3   0.047668310   0.38645  -0.03011   0.53115  -0.32158

FINAL SINGLE POINT ENERGY     -2293.365662348936

DIPOLE MOMENT
-------------
                                X             Y             Z
Electronic contribution:      1.91909       9.14754       0.47727
Nuclear contribution   :     -3.62887     -12.98899      -4.91127
                        -----------------------------------------
Total Dipole Moment    :     -1.70978      -3.84145      -4.43399
                        -----------------------------------------
Magnitude (a.u.)       :      6.11068
Magnitude (Debye)      :     15.53211

Rotational constants in cm-1:     0.002528     0.001161     0.000850
Rotational constants in MHz :    75.778822    34.796270    25.496660

                             ****ORCA TERMINATED NORMALLY****
TOTAL RUN TIME: 5 days 8 hours 40 minutes 30 seconds 680 msec
