                         Program Version 5.0.2 -  RELEASE  -
|  1> %maxcore 20000
|  2> %pal
|  3>  nprocs= 4
|  4> end
|  5> ! RI-B2GP-PLYP   def2-TZVP def2/J def2-TZVP/C RIJCOSX CPCM TightSCF
|  6> %TDDFT
|  7>    NROOTS   60
|  8>    dcorr 4
|  9>    TDA      FALSE
| 10> END
| 11>
| 12> %CPCM
| 13>    SMD          TRUE
| 14>    SMDsolvent   "ACETONITRILE"
| 15>  END
| 16>
| 17>
| 18> * xyz 0 1
| 19> C                  -0.09813300    1.39242200    0.01340000
| 20> C                  -1.20637900    0.60874400   -0.29352100
| 21> C                  -1.19524300   -0.78207400   -0.27236200
| 22> C                   0.03211700   -1.43179700    0.00936000
| 23> C                   1.18254600   -0.68059500    0.30053400
| 24> C                   1.10095000    0.71991200    0.34893500
| 25> C                   0.10905800   -2.84191600    0.00152300
| 26> C                   2.20820800    1.44917600    0.83684900
| 27> F                  -2.32243000    1.22148900   -0.69634000
| 28> N                   0.18172800   -3.99861900    0.00279700
| 29> N                   3.11213500    2.03242400    1.26805200
| 30> N                   2.40257400   -1.31501700    0.58267100
| 31> C                   3.54736000   -0.93505600   -0.15925700
| 32> C                   2.47202700   -2.26177900    1.63312100
| 33> C                   3.41016000   -0.56535400   -1.49760300
| 34> C                   4.80666700   -0.88523200    0.43791100
| 35> C                   1.67530700   -2.10006700    2.76587800
| 36> C                   3.30954700   -3.37277600    1.53715400
| 37> C                   4.51316200   -0.13516200   -2.21728600
| 38> H                   2.43702300   -0.61638900   -1.97148600
| 39> C                   5.90440100   -0.47135100   -0.29617700
| 40> H                   4.91794500   -1.15275100    1.48064200
| 41> C                   1.70763900   -3.04523900    3.77860500
| 42> H                   1.02969900   -1.23392500    2.84858600
| 43> C                   3.34553300   -4.30174200    2.56190900
| 44> H                   3.91866800   -3.51091500    0.65322400
| 45> C                   5.76637200   -0.08683400   -1.62395500
| 46> H                   4.38942700    0.15208700   -3.25410100
| 47> H                   6.87487800   -0.43099800    0.18245000
| 48> C                   2.54325600   -4.14863000    3.68589500
| 49> H                   1.08216200   -2.90774000    4.65167500
| 50> H                   3.99637400   -5.16250000    2.47269900
| 51> H                   6.62742400    0.24434000   -2.18951600
| 52> H                   2.57091600   -4.88227700    4.48085000
| 53> N                  -2.35461600   -1.48622000   -0.58604000
| 54> C                  -2.31584000   -2.51804500   -1.55954300
| 55> C                  -3.57137900   -1.12006900    0.04154900
| 56> C                  -1.50701900   -2.37888600   -2.68521200
| 57> C                  -3.06545300   -3.67977300   -1.38688900
| 58> C                  -3.56216100   -0.67398200    1.36251700
| 59> C                  -4.77810200   -1.18220100   -0.65382800
| 60> C                  -1.43563900   -3.40256300   -3.61632400
| 61> H                  -0.93421300   -1.46968200   -2.82465500
| 62> C                  -2.99855800   -4.68925100   -2.33086700
| 63> H                  -3.68574500   -3.79106700   -0.50680900
| 64> C                  -4.74379600   -0.28414300    1.97131600
| 65> H                  -2.62844600   -0.63768700    1.91099700
| 66> C                  -5.95480100   -0.80638400   -0.02939600
| 67> H                  -4.78865300   -1.51533000   -1.68337700
| 68> C                  -2.18018800   -4.56065900   -3.44620000
| 69> H                  -0.80179000   -3.28570600   -4.48622600
| 70> H                  -3.57954700   -5.59114600   -2.18485000
| 71> C                  -5.94648400   -0.35120600    1.28278700
| 72> H                  -4.72219800    0.06114700    2.99744800
| 73> H                  -6.88524500   -0.85588300   -0.58096000
| 74> H                  -2.12586800   -5.35662500   -4.17733100
| 75> H                  -6.86900700   -0.05323500    1.76357000
| 76> N                  -0.17654800    2.77809700   -0.02664800
| 77> C                   0.85731900    3.52236800   -0.65521300
| 78> C                  -1.28859700    3.43307200    0.56225100
| 79> C                   1.46649000    3.02592900   -1.80608100
| 80> C                   1.28606100    4.73255100   -0.11468100
| 81> C                  -1.85516300    2.92207900    1.72844200
| 82> C                  -1.83117100    4.57461600   -0.02474200
| 83> C                   2.50727300    3.72558000   -2.39474400
| 84> H                   1.12482800    2.09134900   -2.23419700
| 85> C                   2.31513300    5.43169000   -0.72110600
| 86> H                   0.82204500    5.11235400    0.78639000
| 87> C                  -2.95931500    3.54115700    2.29096900
| 88> H                  -1.42557100    2.04255400    2.19312000
| 89> C                  -2.92451700    5.19430400    0.55527800
| 90> H                  -1.39963600    4.96699800   -0.93645900
| 91> C                   2.93594500    4.93123000   -1.85846700
| 92> H                   2.97500800    3.32907900   -3.28717600
| 93> H                   2.64520400    6.36837200   -0.28997600
| 94> C                  -3.49782600    4.68107700    1.71163900
| 95> H                  -3.39081900    3.13471700    3.19710400
| 96> H                  -3.34016700    6.07894600    0.08956200
| 97> H                   3.74567900    5.47816800   -2.32338400
| 98> H                  -4.35599900    5.16686100    2.15721800
| 99> *
|100>
|101>
|102>                          ****END OF INPUT****

CARTESIAN COORDINATES (ANGSTROEM)
---------------------------------
  C     -0.098133    1.392422    0.013400
  C     -1.206379    0.608744   -0.293521
  C     -1.195243   -0.782074   -0.272362
  C      0.032117   -1.431797    0.009360
  C      1.182546   -0.680595    0.300534
  C      1.100950    0.719912    0.348935
  C      0.109058   -2.841916    0.001523
  C      2.208208    1.449176    0.836849
  F     -2.322430    1.221489   -0.696340
  N      0.181728   -3.998619    0.002797
  N      3.112135    2.032424    1.268052
  N      2.402574   -1.315017    0.582671
  C      3.547360   -0.935056   -0.159257
  C      2.472027   -2.261779    1.633121
  C      3.410160   -0.565354   -1.497603
  C      4.806667   -0.885232    0.437911
  C      1.675307   -2.100067    2.765878
  C      3.309547   -3.372776    1.537154
  C      4.513162   -0.135162   -2.217286
  H      2.437023   -0.616389   -1.971486
  C      5.904401   -0.471351   -0.296177
  H      4.917945   -1.152751    1.480642
  C      1.707639   -3.045239    3.778605
  H      1.029699   -1.233925    2.848586
  C      3.345533   -4.301742    2.561909
  H      3.918668   -3.510915    0.653224
  C      5.766372   -0.086834   -1.623955
  H      4.389427    0.152087   -3.254101
  H      6.874878   -0.430998    0.182450
  C      2.543256   -4.148630    3.685895
  H      1.082162   -2.907740    4.651675
  H      3.996374   -5.162500    2.472699
  H      6.627424    0.244340   -2.189516
  H      2.570916   -4.882277    4.480850
  N     -2.354616   -1.486220   -0.586040
  C     -2.315840   -2.518045   -1.559543
  C     -3.571379   -1.120069    0.041549
  C     -1.507019   -2.378886   -2.685212
  C     -3.065453   -3.679773   -1.386889
  C     -3.562161   -0.673982    1.362517
  C     -4.778102   -1.182201   -0.653828
  C     -1.435639   -3.402563   -3.616324
  H     -0.934213   -1.469682   -2.824655
  C     -2.998558   -4.689251   -2.330867
  H     -3.685745   -3.791067   -0.506809
  C     -4.743796   -0.284143    1.971316
  H     -2.628446   -0.637687    1.910997
  C     -5.954801   -0.806384   -0.029396
  H     -4.788653   -1.515330   -1.683377
  C     -2.180188   -4.560659   -3.446200
  H     -0.801790   -3.285706   -4.486226
  H     -3.579547   -5.591146   -2.184850
  C     -5.946484   -0.351206    1.282787
  H     -4.722198    0.061147    2.997448
  H     -6.885245   -0.855883   -0.580960
  H     -2.125868   -5.356625   -4.177331
  H     -6.869007   -0.053235    1.763570
  N     -0.176548    2.778097   -0.026648
  C      0.857319    3.522368   -0.655213
  C     -1.288597    3.433072    0.562251
  C      1.466490    3.025929   -1.806081
  C      1.286061    4.732551   -0.114681
  C     -1.855163    2.922079    1.728442
  C     -1.831171    4.574616   -0.024742
  C      2.507273    3.725580   -2.394744
  H      1.124828    2.091349   -2.234197
  C      2.315133    5.431690   -0.721106
  H      0.822045    5.112354    0.786390
  C     -2.959315    3.541157    2.290969
  H     -1.425571    2.042554    2.193120
  C     -2.924517    5.194304    0.555278
  H     -1.399636    4.966998   -0.936459
  C      2.935945    4.931230   -1.858467
  H      2.975008    3.329079   -3.287176
  H      2.645204    6.368372   -0.289976
  C     -3.497826    4.681077    1.711639
  H     -3.390819    3.134717    3.197104
  H     -3.340167    6.078946    0.089562
  H      3.745679    5.478168   -2.323384
  H     -4.355999    5.166861    2.157218

 Total Charge           Charge          ....    0
 Multiplicity           Mult            ....    1
 Number of Electrons    NEL             ....  338
 Basis Dimension        Dim             .... 1730

ORBITAL ENERGIES
----------------

  NO   OCC          E(Eh)            E(eV)
   0   2.0000     -25.632124      -697.4855
   1   2.0000     -15.077478      -410.2790
   2   2.0000     -15.074933      -410.2098
   3   2.0000     -15.070850      -410.0987
   4   2.0000     -15.041564      -409.3018
   5   2.0000     -15.041507      -409.3002
   6   2.0000     -10.885396      -296.2067
   7   2.0000     -10.874620      -295.9135
   8   2.0000     -10.873772      -295.8904
   9   2.0000     -10.873384      -295.8798
  10   2.0000     -10.836875      -294.8864
  11   2.0000     -10.836653      -294.8803
  12   2.0000     -10.833383      -294.7913
  13   2.0000     -10.833304      -294.7892
  14   2.0000     -10.828819      -294.6672
  15   2.0000     -10.828788      -294.6663
  16   2.0000     -10.828640      -294.6623
  17   2.0000     -10.828199      -294.6503
  18   2.0000     -10.827825      -294.6401
  19   2.0000     -10.827758      -294.6383
  20   2.0000     -10.779774      -293.3326
  21   2.0000     -10.779548      -293.3264
  22   2.0000     -10.779393      -293.3222
  23   2.0000     -10.779383      -293.3219
  24   2.0000     -10.779318      -293.3201
  25   2.0000     -10.779190      -293.3167
  26   2.0000     -10.779105      -293.3144
  27   2.0000     -10.779011      -293.3118
  28   2.0000     -10.778737      -293.3043
  29   2.0000     -10.778564      -293.2996
  30   2.0000     -10.778558      -293.2995
  31   2.0000     -10.778384      -293.2947
  32   2.0000     -10.778357      -293.2940
  33   2.0000     -10.778009      -293.2845
  34   2.0000     -10.777757      -293.2777
  35   2.0000     -10.777480      -293.2701
  36   2.0000     -10.777245      -293.2637
  37   2.0000     -10.777076      -293.2592
  38   2.0000     -10.776916      -293.2548
  39   2.0000     -10.776755      -293.2504
  40   2.0000     -10.776566      -293.2453
  41   2.0000     -10.776458      -293.2423
  42   2.0000     -10.775465      -293.2153
  43   2.0000     -10.775444      -293.2147
  44   2.0000     -10.774294      -293.1834
  45   2.0000     -10.773986      -293.1751
  46   2.0000     -10.773511      -293.1621
  47   2.0000     -10.772762      -293.1418
  48   2.0000     -10.772284      -293.1287
  49   2.0000     -10.772156      -293.1253
  50   2.0000      -1.482419       -40.3387
  51   2.0000      -1.186050       -32.2741
  52   2.0000      -1.176700       -32.0196
  53   2.0000      -1.172805       -31.9136
  54   2.0000      -1.102109       -29.9899
  55   2.0000      -1.101496       -29.9732
  56   2.0000      -1.062576       -28.9142
  57   2.0000      -1.037401       -28.2291
  58   2.0000      -1.036853       -28.2142
  59   2.0000      -1.035941       -28.1894
  60   2.0000      -1.025630       -27.9088
  61   2.0000      -1.023646       -27.8548
  62   2.0000      -1.010029       -27.4843
  63   2.0000      -0.967608       -26.3300
  64   2.0000      -0.951040       -25.8791
  65   2.0000      -0.921063       -25.0634
  66   2.0000      -0.920303       -25.0427
  67   2.0000      -0.919640       -25.0247
  68   2.0000      -0.910876       -24.7862
  69   2.0000      -0.910292       -24.7703
  70   2.0000      -0.908108       -24.7109
  71   2.0000      -0.905873       -24.6501
  72   2.0000      -0.905227       -24.6325
  73   2.0000      -0.904218       -24.6050
  74   2.0000      -0.887489       -24.1498
  75   2.0000      -0.877770       -23.8853
  76   2.0000      -0.875612       -23.8266
  77   2.0000      -0.820508       -22.3272
  78   2.0000      -0.806131       -21.9360
  79   2.0000      -0.762816       -20.7573
  80   2.0000      -0.761914       -20.7327
  81   2.0000      -0.758774       -20.6473
  82   2.0000      -0.757320       -20.6077
  83   2.0000      -0.746400       -20.3106
  84   2.0000      -0.743476       -20.2310
  85   2.0000      -0.737523       -20.0690
  86   2.0000      -0.736294       -20.0356
  87   2.0000      -0.735259       -20.0074
  88   2.0000      -0.733863       -19.9694
  89   2.0000      -0.722305       -19.6549
  90   2.0000      -0.705999       -19.2112
  91   2.0000      -0.700920       -19.0730
  92   2.0000      -0.685216       -18.6457
  93   2.0000      -0.664231       -18.0746
  94   2.0000      -0.657075       -17.8799
  95   2.0000      -0.652495       -17.7553
  96   2.0000      -0.644509       -17.5380
  97   2.0000      -0.644317       -17.5328
  98   2.0000      -0.642690       -17.4885
  99   2.0000      -0.625588       -17.0231
 100   2.0000      -0.616358       -16.7720
 101   2.0000      -0.612834       -16.6761
 102   2.0000      -0.606709       -16.5094
 103   2.0000      -0.597714       -16.2646
 104   2.0000      -0.591732       -16.1019
 105   2.0000      -0.587818       -15.9954
 106   2.0000      -0.586559       -15.9611
 107   2.0000      -0.586016       -15.9463
 108   2.0000      -0.568106       -15.4590
 109   2.0000      -0.565331       -15.3834
 110   2.0000      -0.562520       -15.3069
 111   2.0000      -0.556629       -15.1466
 112   2.0000      -0.555949       -15.1281
 113   2.0000      -0.551182       -14.9984
 114   2.0000      -0.543562       -14.7911
 115   2.0000      -0.540543       -14.7089
 116   2.0000      -0.539555       -14.6820
 117   2.0000      -0.536607       -14.6018
 118   2.0000      -0.534236       -14.5373
 119   2.0000      -0.530397       -14.4328
 120   2.0000      -0.525931       -14.3113
 121   2.0000      -0.525232       -14.2923
 122   2.0000      -0.522975       -14.2309
 123   2.0000      -0.522247       -14.2111
 124   2.0000      -0.521082       -14.1794
 125   2.0000      -0.520336       -14.1591
 126   2.0000      -0.520005       -14.1501
 127   2.0000      -0.506253       -13.7758
 128   2.0000      -0.501209       -13.6386
 129   2.0000      -0.495227       -13.4758
 130   2.0000      -0.484507       -13.1841
 131   2.0000      -0.483438       -13.1550
 132   2.0000      -0.480389       -13.0721
 133   2.0000      -0.476184       -12.9576
 134   2.0000      -0.466898       -12.7049
 135   2.0000      -0.461671       -12.5627
 136   2.0000      -0.459049       -12.4914
 137   2.0000      -0.457531       -12.4501
 138   2.0000      -0.456787       -12.4298
 139   2.0000      -0.454792       -12.3755
 140   2.0000      -0.448321       -12.1994
 141   2.0000      -0.447406       -12.1745
 142   2.0000      -0.446873       -12.1600
 143   2.0000      -0.439581       -11.9616
 144   2.0000      -0.438004       -11.9187
 145   2.0000      -0.436912       -11.8890
 146   2.0000      -0.435163       -11.8414
 147   2.0000      -0.433458       -11.7950
 148   2.0000      -0.432231       -11.7616
 149   2.0000      -0.430352       -11.7105
 150   2.0000      -0.425377       -11.5751
 151   2.0000      -0.423048       -11.5117
 152   2.0000      -0.409393       -11.1401
 153   2.0000      -0.405703       -11.0397
 154   2.0000      -0.390336       -10.6216
 155   2.0000      -0.337998        -9.1974
 156   2.0000      -0.336529        -9.1574
 157   2.0000      -0.322173        -8.7668
 158   2.0000      -0.318796        -8.6749
 159   2.0000      -0.317565        -8.6414
 160   2.0000      -0.316431        -8.6105
 161   2.0000      -0.314665        -8.5625
 162   2.0000      -0.313989        -8.5441
 163   2.0000      -0.311619        -8.4796
 164   2.0000      -0.308482        -8.3942
 165   2.0000      -0.306938        -8.3522
 166   2.0000      -0.259545        -7.0626
 167   2.0000      -0.254235        -6.9181
 168   2.0000      -0.250298        -6.8110
 169   0.0000      -0.015839        -0.4310
 170   0.0000       0.006426         0.1749
 171   0.0000       0.041232         1.1220
 172   0.0000       0.042355         1.1525
 173   0.0000       0.045656         1.2424

MULLIKEN ATOMIC CHARGES
-----------------------
   0 C :   -0.091154
   1 C :    0.417317
   2 C :   -0.155827
   3 C :    0.310943
   4 C :   -0.209103
   5 C :    0.276679
   6 C :   -0.127612
   7 C :   -0.121130
   8 F :   -0.264165
   9 N :   -0.188325
  10 N :   -0.188070
  11 N :    0.072524
  12 C :    0.186972
  13 C :    0.176699
  14 C :   -0.266525
  15 C :   -0.302700
  16 C :   -0.261036
  17 C :   -0.305212
  18 C :   -0.159067
  19 H :    0.177181
  20 C :   -0.109164
  21 H :    0.169878
  22 C :   -0.146849
  23 H :    0.173702
  24 C :   -0.115359
  25 H :    0.170104
  26 C :   -0.177121
  27 H :    0.162785
  28 H :    0.162711
  29 C :   -0.177404
  30 H :    0.162430
  31 H :    0.162423
  32 H :    0.162147
  33 H :    0.161325
  34 N :    0.090183
  35 C :    0.125366
  36 C :    0.206523
  37 C :   -0.242818
  38 C :   -0.267648
  39 C :   -0.268842
  40 C :   -0.301734
  41 C :   -0.151206
  42 H :    0.175515
  43 C :   -0.128586
  44 H :    0.171673
  45 C :   -0.155598
  46 H :    0.177216
  47 C :   -0.120732
  48 H :    0.172616
  49 C :   -0.164562
  50 H :    0.162921
  51 H :    0.163627
  52 C :   -0.174221
  53 H :    0.163656
  54 H :    0.162970
  55 H :    0.162423
  56 H :    0.162446
  57 N :    0.095716
  58 C :    0.131903
  59 C :    0.196835
  60 C :   -0.242427
  61 C :   -0.268334
  62 C :   -0.262065
  63 C :   -0.302058
  64 C :   -0.149630
  65 H :    0.173067
  66 C :   -0.124599
  67 H :    0.171973
  68 C :   -0.149261
  69 H :    0.176294
  70 C :   -0.116876
  71 H :    0.172420
  72 C :   -0.167300
  73 H :    0.163667
  74 H :    0.163480
  75 C :   -0.176221
  76 H :    0.163451
  77 H :    0.163318
  78 H :    0.163050
  79 H :    0.162412
Sum of atomic charges:   -0.0000000

LOEWDIN ATOMIC CHARGES
----------------------
   0 C :   -0.080101
   1 C :   -0.185200
   2 C :   -0.077664
   3 C :   -0.089073
   4 C :   -0.060149
   5 C :   -0.089320
   6 C :   -0.122618
   7 C :   -0.122194
   8 F :    0.202358
   9 N :    0.008923
  10 N :    0.008402
  11 N :    0.283191
  12 C :   -0.166497
  13 C :   -0.167986
  14 C :   -0.112353
  15 C :   -0.111704
  16 C :   -0.111831
  17 C :   -0.111199
  18 C :   -0.140085
  19 H :    0.160487
  20 C :   -0.140226
  21 H :    0.159843
  22 C :   -0.140022
  23 H :    0.160745
  24 C :   -0.139920
  25 H :    0.159606
  26 C :   -0.156201
  27 H :    0.153093
  28 H :    0.153019
  29 C :   -0.154977
  30 H :    0.152965
  31 H :    0.152971
  32 H :    0.149706
  33 H :    0.149712
  34 N :    0.287097
  35 C :   -0.168027
  36 C :   -0.163454
  37 C :   -0.108464
  38 C :   -0.108096
  39 C :   -0.112923
  40 C :   -0.112988
  41 C :   -0.138804
  42 H :    0.160997
  43 C :   -0.138470
  44 H :    0.160121
  45 C :   -0.139932
  46 H :    0.160864
  47 C :   -0.139355
  48 H :    0.159810
  49 C :   -0.150920
  50 H :    0.153225
  51 H :    0.153264
  52 C :   -0.155403
  53 H :    0.153171
  54 H :    0.153125
  55 H :    0.150365
  56 H :    0.149897
  57 N :    0.290241
  58 C :   -0.166148
  59 C :   -0.163871
  60 C :   -0.107965
  61 C :   -0.107845
  62 C :   -0.111518
  63 C :   -0.111414
  64 C :   -0.138202
  65 H :    0.160965
  66 C :   -0.138045
  67 H :    0.160423
  68 C :   -0.139524
  69 H :    0.160953
  70 C :   -0.138899
  71 H :    0.159915
  72 C :   -0.150410
  73 H :    0.153295
  74 H :    0.153390
  75 C :   -0.153236
  76 H :    0.153150
  77 H :    0.153215
  78 H :    0.150541
  79 H :    0.150192

  Mayer bond orders larger than 0.100000
B(  0-C ,  1-C ) :   1.4260 B(  0-C ,  5-C ) :   1.1933 B(  0-C , 57-N ) :   1.0905
B(  1-C ,  2-C ) :   1.3992 B(  1-C ,  8-F ) :   0.9969 B(  2-C ,  3-C ) :   1.2112
B(  2-C , 34-N ) :   1.0363 B(  3-C ,  4-C ) :   1.3889 B(  3-C ,  6-C ) :   0.9678
B(  4-C ,  5-C ) :   1.3475 B(  4-C , 11-N ) :   1.0281 B(  5-C ,  7-C ) :   0.9776
B(  6-C ,  9-N ) :   2.9987 B(  7-C , 10-N ) :   2.9956 B( 11-N , 12-C ) :   0.9619
B( 11-N , 13-C ) :   0.9563 B( 12-C , 14-C ) :   1.4078 B( 12-C , 15-C ) :   1.3876
B( 13-C , 16-C ) :   1.4122 B( 13-C , 17-C ) :   1.3889 B( 14-C , 18-C ) :   1.4227
B( 14-C , 19-H ) :   0.9651 B( 15-C , 20-C ) :   1.4307 B( 15-C , 21-H ) :   0.9850
B( 16-C , 22-C ) :   1.4230 B( 16-C , 23-H ) :   0.9700 B( 17-C , 24-C ) :   1.4373
B( 17-C , 25-H ) :   0.9832 B( 18-C , 26-C ) :   1.3995 B( 18-C , 27-H ) :   0.9833
B( 20-C , 26-C ) :   1.3871 B( 20-C , 28-H ) :   0.9795 B( 22-C , 29-C ) :   1.4045
B( 22-C , 30-H ) :   0.9793 B( 24-C , 29-C ) :   1.3847 B( 24-C , 31-H ) :   0.9790
B( 26-C , 32-H ) :   0.9807 B( 29-C , 33-H ) :   0.9813 B( 34-N , 35-C ) :   0.9423
B( 34-N , 36-C ) :   0.9738 B( 35-C , 37-C ) :   1.4206 B( 35-C , 38-C ) :   1.3962
B( 36-C , 39-C ) :   1.4103 B( 36-C , 40-C ) :   1.3875 B( 37-C , 41-C ) :   1.4256
B( 37-C , 42-H ) :   0.9694 B( 38-C , 43-C ) :   1.4370 B( 38-C , 44-H ) :   0.9798
B( 39-C , 45-C ) :   1.4265 B( 39-C , 46-H ) :   0.9604 B( 40-C , 47-C ) :   1.4340
B( 40-C , 48-H ) :   0.9772 B( 41-C , 49-C ) :   1.4041 B( 41-C , 50-H ) :   0.9794
B( 43-C , 49-C ) :   1.3866 B( 43-C , 51-H ) :   0.9779 B( 45-C , 52-C ) :   1.3978
B( 45-C , 53-H ) :   0.9821 B( 47-C , 52-C ) :   1.3897 B( 47-C , 54-H ) :   0.9798
B( 49-C , 55-H ) :   0.9800 B( 52-C , 56-H ) :   0.9801 B( 57-N , 58-C ) :   0.9445
B( 57-N , 59-C ) :   0.9646 B( 58-C , 60-C ) :   1.4144 B( 58-C , 61-C ) :   1.4004
B( 59-C , 62-C ) :   1.4114 B( 59-C , 63-C ) :   1.3859 B( 60-C , 64-C ) :   1.4297
B( 60-C , 65-H ) :   0.9695 B( 61-C , 66-C ) :   1.4335 B( 61-C , 67-H ) :   0.9802
B( 62-C , 68-C ) :   1.4315 B( 62-C , 69-H ) :   0.9591 B( 63-C , 70-C ) :   1.4349
B( 63-C , 71-H ) :   0.9774 B( 64-C , 72-C ) :   1.4012 B( 64-C , 73-H ) :   0.9782
B( 66-C , 72-C ) :   1.3872 B( 66-C , 74-H ) :   0.9788 B( 68-C , 75-C ) :   1.4000
B( 68-C , 76-H ) :   0.9800 B( 70-C , 75-C ) :   1.3889 B( 70-C , 77-H ) :   0.9793
B( 72-C , 78-H ) :   0.9795 B( 75-C , 79-H ) :   0.9799

MP2 TOTAL ENERGY:    -2066.944649004 Eh

-----------------------------------------------------------------------------
         ABSORPTION SPECTRUM VIA TRANSITION ELECTRIC DIPOLE MOMENTS
-----------------------------------------------------------------------------
State   Energy    Wavelength  fosc         T2        TX        TY        TZ
        (cm-1)      (nm)                 (au**2)    (au)      (au)      (au)
-----------------------------------------------------------------------------
   1   23648.8    422.9   0.282781857   3.93657  -0.47156  -1.92544  -0.08294
   2   25488.8    392.3   0.208183109   2.68888   1.55470  -0.24501   0.46018
   3   27077.9    369.3   0.209582899   2.54810   1.52343  -0.16613   0.44684
   4   25919.3    385.8   0.068452069   0.86944  -0.33015   0.86793  -0.08450
   5   29446.9    339.6   0.330015443   3.68953   0.68886   1.76899   0.29268
   6   30986.7    322.7   0.010028355   0.10654   0.02875  -0.28174  -0.16229
   7   36360.6    275.0   0.197848672   1.79134  -0.47414  -0.91347   0.85563
   8   37249.7    268.5   0.071515287   0.63205   0.02039  -0.67719  -0.41599
   9   37414.1    267.3   0.419556583   3.69173   1.56503  -0.42628  -1.02991
  10   36417.7    274.6   0.063106446   0.57048   0.22571   0.15838  -0.70317
  11   36721.4    272.3   0.095625502   0.85729   0.49921   0.77542  -0.08254
  12   36148.6    276.6   0.088591876   0.80682  -0.58994   0.00492   0.67732
  13   38384.6    260.5   0.043497007   0.37306   0.45256  -0.38584   0.13919
  14   38483.5    259.9   0.022638824   0.19367   0.43699   0.02264  -0.04679
  15   38584.3    259.2   0.016849597   0.14377   0.00575   0.35393   0.13589
  16   40210.4    248.7   0.152369860   1.24749   0.44320   1.02437  -0.04156
  17   44628.0    224.1   0.038673895   0.28529   0.38878  -0.34854   0.11254
  18   43110.7    232.0   0.040617728   0.31017  -0.10237   0.46520   0.28860
  19   43442.8    230.2   0.027946838   0.21178  -0.32113  -0.20588   0.25743
  20   41195.9    242.7   0.009857892   0.07878  -0.09281  -0.26314   0.03034
  21   46171.7    216.6   0.017387310   0.12397  -0.14239  -0.28050  -0.15818
  22   41301.2    242.1   0.090797622   0.72375   0.56188  -0.12131  -0.62715
  23   42787.2    233.7   0.056415900   0.43407  -0.56239  -0.10853  -0.32559
  24   42859.8    233.3   0.082239593   0.63169  -0.25988  -0.70707   0.25339
  25   42879.9    233.2   0.128108003   0.98355  -0.76497  -0.56966   0.27180
  26   41831.5    239.1   0.108382620   0.85297   0.07175  -0.02156  -0.92052
  27   43213.9    231.4   0.013923773   0.10607  -0.27011   0.01526   0.18134
  28   42650.5    234.5   0.078952956   0.60942  -0.02312  -0.76911  -0.13173
  29   42679.7    234.3   0.013839512   0.10675   0.18752   0.01791  -0.26696
  30   42178.9    237.1   0.118941340   0.92835  -0.66353   0.32967  -0.61596
  31   44607.0    224.2   0.163714255   1.20826   0.37004  -0.00127  -1.03505
  32   43715.0    228.8   0.020091339   0.15131   0.17190  -0.24418   0.24927
  33   44170.2    226.4   0.096431029   0.71873   0.41758  -0.45459  -0.58112
  34   45914.7    217.8   0.058784973   0.42149  -0.55073  -0.31321   0.14171
  35   43661.9    229.0   0.062824779   0.47370   0.06034  -0.44751  -0.51942
  36   47610.8    210.0   1.117810940   7.72927  -2.17134   0.93779   1.46120
  37   42704.3    234.2   0.025410845   0.19590  -0.28956  -0.23249  -0.24083
  38   44321.9    225.6   0.038466812   0.28572   0.43911  -0.15150   0.26448
  39   46603.2    214.6   0.049862690   0.35224   0.16119   0.56753  -0.06453
  40   45975.7    217.5   0.078375769   0.56121   0.38472   0.63998   0.06028
  41   45719.0    218.7   0.415319936   2.99062  -0.96423   0.87844  -1.13544
  42   46586.3    214.7   0.139815026   0.98803  -0.87557   0.44586  -0.15042
  43   45621.5    219.2   0.143835385   1.03794  -0.85930   0.02720   0.54663
  44   48892.1    204.5   0.407297494   2.74252   0.94856   0.70986  -1.15709
  45   44590.2    224.3   0.021584443   0.15936  -0.11649   0.12048  -0.36232
  46   46691.1    214.2   0.033220932   0.23424  -0.06227  -0.39058   0.27893
  47   45821.1    218.2   0.016971304   0.12193   0.33178   0.09383  -0.05527
  48   44507.7    224.7   0.030569463   0.22611  -0.25426   0.08608   0.39250
  49   46078.6    217.0   0.259387379   1.85321   0.74462   1.11149  -0.25167
  50   45243.1    221.0   0.045616618   0.33193   0.03271   0.33542   0.46728
  51   46507.8    215.0   0.050381272   0.35663   0.32541   0.47433   0.16047
  52   46132.7    216.8   0.138738509   0.99007   0.49118  -0.80681  -0.31283
  53   46200.0    216.5   0.017211906   0.12265   0.26754   0.13866  -0.17844
  54   46667.0    214.3   0.030228454   0.21325   0.11791   0.03442  -0.44515
  55   46815.8    213.6   0.056046028   0.39412  -0.49601  -0.36309  -0.12752
  56   47009.1    212.7   0.334637465   2.34352  -0.98951  -1.15679  -0.16197
  57   46847.5    213.5   0.073765668   0.51837  -0.07189  -0.66418  -0.26847
  58   46313.6    215.9   0.096777402   0.68792  -0.04938   0.68882  -0.45936
  59   45999.7    217.4   0.026362963   0.18868  -0.00320  -0.38031  -0.20984
  60   47122.7    212.2   0.023311407   0.16286  -0.20233  -0.34717  -0.03740

FINAL SINGLE POINT ENERGY     -2063.481899698053

DIPOLE MOMENT
-------------
                                X             Y             Z
Electronic contribution:     -2.10894       0.51009      -0.34650
Nuclear contribution   :      0.52582       0.54399      -0.36258
                        -----------------------------------------
Total Dipole Moment    :     -1.58312       1.05408      -0.70908
                        -----------------------------------------
Magnitude (a.u.)       :      2.02982
Magnitude (Debye)      :      5.15938

Rotational constants in cm-1:     0.002315     0.002172     0.001481
Rotational constants in MHz :    69.390748    65.102508    44.409379

                             ****ORCA TERMINATED NORMALLY****
TOTAL RUN TIME: 5 days 3 hours 40 minutes 59 seconds 672 msec
