 Gaussian 09, Revision E.01,
 Gaussian 09:  ES64L-G09RevE.01 30-Nov-2015

 ----------------------------------------------------------------------
 #p b3lyp/def2TZVP td=(NStates=50) int=ultrafine scrf=(SMD,solvent=Acet
 onitrile) EmpiricalDispersion=GD3BJ
 ----------------------------------------------------------------------

 -----
 Title
 -----
 Symbolic Z-matrix:
 Charge =  0 Multiplicity = 1

                         Standard orientation:
 ---------------------------------------------------------------------
 Center     Atomic      Atomic             Coordinates (Angstroms)
 Number     Number       Type             X           Y           Z
 ---------------------------------------------------------------------
      1          6           0       -0.155272    1.382848    0.009148
      2          6           0       -1.224793    0.548546   -0.305785
      3          6           0       -1.150439   -0.840796   -0.277711
      4          6           0        0.105141   -1.429690    0.007685
      5          6           0        1.218001   -0.628462    0.304924
      6          6           0        1.070199    0.765409    0.352076
      7          6           0        0.248866   -2.840000   -0.001150
      8          6           0        2.138637    1.549104    0.856925
      9          9           0       -2.372055    1.112011   -0.718113
     10          7           0        0.377263   -3.985768   -0.001902
     11          7           0        3.000154    2.171246    1.304115
     12          7           0        2.464255   -1.207968    0.596812
     13          6           0        3.584283   -0.825962   -0.184170
     14          6           0        2.580018   -2.098588    1.693484
     15          6           0        3.417992   -0.567655   -1.546159
     16          6           0        4.844708   -0.671493    0.395445
     17          6           0        1.816164   -1.885940    2.841549
     18          6           0        3.433451   -3.201196    1.628826
     19          6           0        4.497435   -0.148002   -2.312760
     20          1           0        2.445482   -0.692558   -2.003013
     21          6           0        5.921249   -0.272223   -0.383114
     22          1           0        4.976544   -0.850434    1.453092
     23          6           0        1.899498   -2.773046    3.907390
     24          1           0        1.157463   -1.029714    2.897982
     25          6           0        3.524380   -4.070702    2.705538
     26          1           0        4.013879   -3.379973    0.734560
     27          6           0        5.755627   -0.002727   -1.739089
     28          1           0        4.352483    0.054003   -3.366487
     29          1           0        6.892978   -0.152655    0.079285
     30          6           0        2.756491   -3.866205    3.849236
     31          1           0        1.299182   -2.598246    4.791282
     32          1           0        4.187934   -4.923956    2.642953
     33          1           0        6.597093    0.317993   -2.339264
     34          1           0        2.825396   -4.552272    4.683306
     35          7           0       -2.276700   -1.602668   -0.581284
     36          6           0       -2.209578   -2.602577   -1.588432
     37          6           0       -3.500818   -1.300310    0.071191
     38          6           0       -1.468199   -2.371453   -2.745936
     39          6           0       -2.870341   -3.818870   -1.418864
     40          6           0       -3.490167   -0.931316    1.416850
     41          6           0       -4.710437   -1.347934   -0.622636
     42          6           0       -1.374302   -3.359615   -3.717948
     43          1           0       -0.965247   -1.423100   -2.881920
     44          6           0       -2.786971   -4.792485   -2.402992
     45          1           0       -3.434936   -4.001551   -0.515074
     46          6           0       -4.676979   -0.595197    2.054754
     47          1           0       -2.555344   -0.908121    1.960856
     48          6           0       -5.893591   -1.030651    0.029235
     49          1           0       -4.721638   -1.623245   -1.667938
     50          6           0       -2.034733   -4.571954   -3.554259
     51          1           0       -0.792091   -3.172932   -4.611334
     52          1           0       -3.299026   -5.735863   -2.261771
     53          6           0       -5.884798   -0.646816    1.367670
     54          1           0       -4.655372   -0.304347    3.097275
     55          1           0       -6.826882   -1.068373   -0.518282
     56          1           0       -1.965076   -5.338409   -4.315082
     57          1           0       -6.809654   -0.391689    1.868363
     58          7           0       -0.294216    2.764261   -0.027508
     59          6           0        0.687635    3.553253   -0.687645
     60          6           0       -1.429084    3.367531    0.578294
     61          6           0        1.259294    3.095501   -1.874235
     62          6           0        1.096242    4.770845   -0.145241
     63          6           0       -1.913055    2.865260    1.785741
     64          6           0       -2.071893    4.444392   -0.032108
     65          6           0        2.248094    3.842914   -2.500600
     66          1           0        0.935332    2.155671   -2.300708
     67          6           0        2.069715    5.520787   -0.788985
     68          1           0        0.662306    5.119059    0.781711
     69          6           0       -3.043454    3.424654    2.366979
     70          1           0       -1.405815    2.039069    2.265796
     71          6           0       -3.188531    5.010191    0.566549
     72          1           0       -1.702905    4.829518   -0.972577
     73          6           0        2.655662    5.059544   -1.964913
     74          1           0        2.691324    3.475043   -3.417106
     75          1           0        2.384717    6.462950   -0.358740
     76          6           0       -3.684367    4.501403    1.764220
     77          1           0       -3.414999    3.022245    3.300729
     78          1           0       -3.683104    5.844281    0.085156
     79          1           0        3.422470    5.643166   -2.457337
     80          1           0       -4.561161    4.940721    2.221790
 ---------------------------------------------------------------------

 SCF Done:  E(RB3LYP) =  -2069.32585076     A.U. after   15 cycles

 Excitation energies and oscillator strengths:

 Excited State   1:      Singlet-A      2.7425 eV  452.08 nm  f=0.1024  <S**2>=0.000
     169 -> 170        0.69034
 This state for optimization and/or second-order correction.
 Total Energy, E(TD-HF/TD-KS) =  -2069.22506522
 Copying the excited state density for this state as the 1-particle RhoCI density.

 Excited State   2:      Singlet-A      2.9080 eV  426.36 nm  f=0.2219  <S**2>=0.000
     167 -> 170        0.37321
     168 -> 170        0.59046

 Excited State   3:      Singlet-A      2.9897 eV  414.71 nm  f=0.2114  <S**2>=0.000
     167 -> 170        0.58955
     168 -> 170       -0.36643
     169 -> 171       -0.11264

 Excited State   4:      Singlet-A      3.1651 eV  391.72 nm  f=0.0948  <S**2>=0.000
     167 -> 171       -0.23457
     169 -> 171        0.64884

 Excited State   5:      Singlet-A      3.3730 eV  367.58 nm  f=0.1365  <S**2>=0.000
     167 -> 171        0.11291
     168 -> 171        0.67907

 Excited State   6:      Singlet-A      3.4288 eV  361.59 nm  f=0.1691  <S**2>=0.000
     167 -> 171        0.65011
     168 -> 171       -0.11550
     169 -> 171        0.21657

 Excited State   7:      Singlet-A      4.1143 eV  301.35 nm  f=0.1496  <S**2>=0.000
     167 -> 173       -0.13327
     169 -> 172       -0.44594
     169 -> 173        0.47354
     169 -> 175       -0.10505

 Excited State   8:      Singlet-A      4.1897 eV  295.92 nm  f=0.0469  <S**2>=0.000
     166 -> 170       -0.17812
     167 -> 172        0.25863
     167 -> 174        0.17413
     168 -> 172       -0.10277
     169 -> 172        0.39020
     169 -> 173        0.36596
     169 -> 174        0.19356

 Excited State   9:      Singlet-A      4.2153 eV  294.13 nm  f=0.0993  <S**2>=0.000
     167 -> 174       -0.11837
     168 -> 172        0.51786
     168 -> 174       -0.34879
     168 -> 175       -0.15686

 Excited State  10:      Singlet-A      4.2456 eV  292.03 nm  f=0.0269  <S**2>=0.000
     165 -> 170        0.17238
     166 -> 170       -0.22448
     167 -> 172       -0.15103
     167 -> 174       -0.13002
     167 -> 175        0.11909
     167 -> 177        0.17597
     168 -> 174        0.15035
     168 -> 175        0.11249
     168 -> 176        0.11784
     169 -> 174       -0.11942
     169 -> 175        0.36624
     169 -> 176       -0.18011
     169 -> 177       -0.22850

 Excited State  11:      Singlet-A      4.2604 eV  291.02 nm  f=0.0252  <S**2>=0.000
     165 -> 170        0.39674
     166 -> 170       -0.36356
     168 -> 175        0.14260
     169 -> 173       -0.17443
     169 -> 175       -0.13450
     169 -> 176        0.11500
     169 -> 177        0.25543

 Excited State  12:      Singlet-A      4.2728 eV  290.17 nm  f=0.0157  <S**2>=0.000
     162 -> 170        0.12529
     165 -> 170        0.27874
     166 -> 170        0.42205
     167 -> 173        0.12294
     167 -> 175        0.15707
     167 -> 176       -0.12710
     169 -> 172        0.13649
     169 -> 173        0.14293
     169 -> 174       -0.10186
     169 -> 177        0.28025

 Excited State  13:      Singlet-A      4.2935 eV  288.77 nm  f=0.0321  <S**2>=0.000
     160 -> 170       -0.12723
     161 -> 170        0.14168
     162 -> 170        0.20391
     165 -> 170       -0.15825
     166 -> 170        0.15645
     167 -> 176        0.14184
     168 -> 172        0.19231
     168 -> 173        0.19113
     168 -> 175        0.38460
     168 -> 176        0.26831
     169 -> 176        0.11595

 Excited State  14:      Singlet-A      4.3109 eV  287.61 nm  f=0.0449  <S**2>=0.000
     162 -> 170       -0.10354
     164 -> 170       -0.21121
     165 -> 170        0.38190
     166 -> 170        0.20631
     167 -> 175       -0.13749
     169 -> 172       -0.16789
     169 -> 174        0.27490
     169 -> 177       -0.26728

 Excited State  15:      Singlet-A      4.3461 eV  285.28 nm  f=0.0053  <S**2>=0.000
     164 -> 170        0.55309
     166 -> 170        0.10738
     167 -> 173        0.12032
     169 -> 172       -0.19156
     169 -> 174        0.20699
     169 -> 175        0.11288

 Excited State  16:      Singlet-A      4.3630 eV  284.17 nm  f=0.0883  <S**2>=0.000
     161 -> 170        0.16246
     162 -> 170       -0.20220
     163 -> 170       -0.12719
     164 -> 170        0.32731
     165 -> 170        0.17770
     166 -> 170        0.10139
     167 -> 172       -0.11982
     167 -> 173       -0.18980
     167 -> 176        0.10414
     169 -> 172        0.15551
     169 -> 173        0.13354
     169 -> 174       -0.29325
     169 -> 176        0.14800
     169 -> 177       -0.12468

 Excited State  17:      Singlet-A      4.3847 eV  282.77 nm  f=0.0008  <S**2>=0.000
     162 -> 170        0.11186
     163 -> 170        0.10506
     167 -> 172        0.31831
     168 -> 172       -0.26784
     168 -> 173        0.26352
     168 -> 174       -0.25711
     169 -> 173       -0.11974
     169 -> 174       -0.28845
     169 -> 177       -0.10997

 Excited State  18:      Singlet-A      4.4198 eV  280.52 nm  f=0.0065  <S**2>=0.000
     162 -> 170       -0.13715
     163 -> 170       -0.10552
     167 -> 173       -0.11241
     168 -> 173        0.52858
     169 -> 174        0.27306
     169 -> 175        0.12809
     169 -> 176       -0.10840
     169 -> 177        0.16045

 Excited State  19:      Singlet-A      4.4334 eV  279.66 nm  f=0.0283  <S**2>=0.000
     161 -> 170        0.19752
     162 -> 170        0.45623
     163 -> 170       -0.40193
     168 -> 172       -0.12586
     168 -> 175       -0.11769
     169 -> 175       -0.13393
     169 -> 176       -0.13063

 Excited State  20:      Singlet-A      4.4456 eV  278.89 nm  f=0.2009  <S**2>=0.000
     161 -> 170       -0.13938
     162 -> 170        0.24753
     163 -> 170        0.41971
     167 -> 172       -0.18497
     167 -> 173       -0.15813
     168 -> 173        0.12006
     168 -> 175       -0.11812
     169 -> 175       -0.29230
     169 -> 177       -0.13849

 Excited State  21:      Singlet-A      4.4651 eV  277.68 nm  f=0.0107  <S**2>=0.000
     161 -> 170        0.51804
     163 -> 170        0.27227
     168 -> 172       -0.11297
     168 -> 175       -0.12450
     169 -> 175        0.19733
     169 -> 176        0.12405
     169 -> 177        0.11496

 Excited State  22:      Singlet-A      4.4825 eV  276.59 nm  f=0.0512  <S**2>=0.000
     161 -> 170       -0.26311
     162 -> 170        0.20606
     163 -> 170       -0.10762
     167 -> 173       -0.11241
     168 -> 175       -0.11195
     169 -> 175        0.28955
     169 -> 176        0.47175

 Excited State  23:      Singlet-A      4.4916 eV  276.04 nm  f=0.0127  <S**2>=0.000
     167 -> 172        0.38471
     167 -> 173       -0.37112
     168 -> 172        0.18502
     168 -> 174        0.30605
     169 -> 173       -0.13835

 Excited State  24:      Singlet-A      4.5096 eV  274.93 nm  f=0.0215  <S**2>=0.000
     159 -> 170       -0.16647
     160 -> 170        0.37195
     167 -> 173       -0.27017
     168 -> 172       -0.12471
     168 -> 173       -0.17193
     168 -> 174       -0.32689
     168 -> 175        0.16529
     168 -> 176        0.16339

 Excited State  25:      Singlet-A      4.5116 eV  274.81 nm  f=0.0130  <S**2>=0.000
     160 -> 170        0.54199
     161 -> 170        0.12700
     167 -> 173        0.27747
     168 -> 173        0.13242
     168 -> 174        0.15875
     169 -> 176        0.17186

 Excited State  26:      Singlet-A      4.5358 eV  273.35 nm  f=0.0962  <S**2>=0.000
     159 -> 170        0.56614
     167 -> 173       -0.18094
     168 -> 175        0.13673
     169 -> 175        0.10651
     169 -> 176       -0.14513
     169 -> 177        0.11066

 Excited State  27:      Singlet-A      4.5480 eV  272.62 nm  f=0.0055  <S**2>=0.000
     158 -> 170        0.10322
     159 -> 170        0.32250
     162 -> 170       -0.13315
     167 -> 174       -0.21853
     167 -> 175        0.21599
     167 -> 176       -0.14069
     168 -> 175       -0.10915
     168 -> 176        0.29991
     169 -> 174        0.11553
     169 -> 175       -0.15092
     169 -> 176        0.14097
     169 -> 177       -0.12459

 Excited State  28:      Singlet-A      4.5778 eV  270.84 nm  f=0.0048  <S**2>=0.000
     165 -> 171        0.13821
     166 -> 171        0.28139
     167 -> 172       -0.14431
     167 -> 173       -0.10100
     167 -> 174        0.33132
     167 -> 176       -0.12818
     167 -> 179       -0.11682
     169 -> 178       -0.17928
     169 -> 179        0.29263
     169 -> 180       -0.11093
     169 -> 181       -0.17151

 Excited State  29:      Singlet-A      4.6018 eV  269.43 nm  f=0.0172  <S**2>=0.000
     158 -> 170       -0.15812
     166 -> 171       -0.10020
     167 -> 172       -0.12259
     167 -> 174        0.36053
     168 -> 175       -0.30161
     168 -> 176        0.36983
     168 -> 177       -0.11627
     169 -> 178        0.13412

 Excited State  30:      Singlet-A      4.6158 eV  268.61 nm  f=0.0176  <S**2>=0.000
     158 -> 170        0.66047
     167 -> 174        0.15719

 Excited State  31:      Singlet-A      4.6360 eV  267.44 nm  f=0.0012  <S**2>=0.000
     165 -> 171       -0.12302
     166 -> 171       -0.15103
     167 -> 174        0.25003
     167 -> 175        0.42263
     167 -> 176       -0.18578
     168 -> 176       -0.17848
     168 -> 178       -0.11002
     169 -> 176        0.12182
     169 -> 177       -0.14132
     169 -> 179       -0.16307
     169 -> 181        0.10665

 Excited State  32:      Singlet-A      4.6387 eV  267.28 nm  f=0.0027  <S**2>=0.000
     167 -> 177       -0.24939
     168 -> 175       -0.14437
     168 -> 176        0.11932
     168 -> 177        0.58505

 Excited State  33:      Singlet-A      4.6699 eV  265.50 nm  f=0.0106  <S**2>=0.000
     166 -> 171       -0.11532
     167 -> 175        0.14671
     167 -> 176        0.37146
     167 -> 177        0.13758
     167 -> 178       -0.21378
     167 -> 181        0.13439
     168 -> 175       -0.14443
     168 -> 177        0.15141
     169 -> 176       -0.10270
     169 -> 178       -0.32759

 Excited State  34:      Singlet-A      4.6920 eV  264.25 nm  f=0.0092  <S**2>=0.000
     165 -> 171       -0.13990
     167 -> 175       -0.31672
     167 -> 176       -0.20786
     167 -> 177        0.39580
     168 -> 176        0.13429
     168 -> 177        0.15935
     168 -> 178       -0.15697
     168 -> 179       -0.14318
     169 -> 177        0.14850

 Excited State  35:      Singlet-A      4.7245 eV  262.43 nm  f=0.0006  <S**2>=0.000
     157 -> 170        0.15105
     165 -> 171       -0.10252
     166 -> 171        0.34931
     167 -> 175        0.12260
     167 -> 176        0.29724
     167 -> 177        0.11252
     167 -> 181       -0.10014
     168 -> 177       -0.14059
     168 -> 178       -0.23358
     168 -> 179       -0.18001
     168 -> 181       -0.12282
     169 -> 178        0.12554
     169 -> 179       -0.15617

 Excited State  36:      Singlet-A      4.7395 eV  261.60 nm  f=0.0050  <S**2>=0.000
     165 -> 171        0.19916
     166 -> 171        0.20297
     167 -> 177        0.33124
     168 -> 176       -0.11431
     168 -> 177        0.19773
     168 -> 178        0.23101
     168 -> 179        0.19326
     168 -> 181        0.16093
     169 -> 178        0.25237

 Excited State  37:      Singlet-A      4.7646 eV  260.22 nm  f=0.0145  <S**2>=0.000
     157 -> 170       -0.21307
     163 -> 171        0.10666
     164 -> 171        0.11316
     165 -> 171        0.33003
     166 -> 171        0.20303
     167 -> 175       -0.10588
     167 -> 176       -0.16516
     167 -> 178       -0.16536
     168 -> 179       -0.10696
     168 -> 181       -0.10155
     169 -> 179       -0.25300
     169 -> 180        0.11375
     169 -> 181        0.20429

 Excited State  38:      Singlet-A      4.7718 eV  259.83 nm  f=0.0240  <S**2>=0.000
     156 -> 171       -0.11182
     157 -> 170        0.28567
     162 -> 171        0.12732
     163 -> 171       -0.17289
     165 -> 171       -0.21050
     166 -> 171        0.24949
     167 -> 176       -0.15188
     167 -> 177       -0.15946
     167 -> 178       -0.12266
     167 -> 181        0.10199
     168 -> 178        0.18010
     168 -> 179        0.12123
     169 -> 178       -0.18314
     169 -> 181        0.20932

 Excited State  39:      Singlet-A      4.8157 eV  257.46 nm  f=0.0390  <S**2>=0.000
     157 -> 170       -0.14071
     162 -> 171       -0.16967
     163 -> 171        0.27398
     164 -> 171       -0.13256
     165 -> 171       -0.32007
     166 -> 171        0.20237
     168 -> 178        0.10676
     168 -> 180       -0.11208
     169 -> 180        0.34463

 Excited State  40:      Singlet-A      4.8241 eV  257.01 nm  f=0.0477  <S**2>=0.000
     157 -> 170        0.24177
     160 -> 171       -0.11713
     162 -> 171       -0.20486
     163 -> 171        0.45208
     167 -> 180       -0.10407
     169 -> 180       -0.31762
     169 -> 181        0.12262

 Excited State  41:      Singlet-A      4.8519 eV  255.54 nm  f=0.0259  <S**2>=0.000
     156 -> 170        0.12379
     157 -> 170       -0.16198
     160 -> 171       -0.11021
     161 -> 171       -0.11214
     162 -> 171       -0.13262
     163 -> 171       -0.10761
     164 -> 171        0.45236
     165 -> 171       -0.24654
     168 -> 178        0.12058
     168 -> 180       -0.19510
     169 -> 178        0.18289
     169 -> 180       -0.12444

 Excited State  42:      Singlet-A      4.8603 eV  255.10 nm  f=0.0337  <S**2>=0.000
     156 -> 170       -0.15070
     156 -> 171       -0.10890
     157 -> 170        0.25687
     160 -> 171       -0.22630
     161 -> 171       -0.15775
     164 -> 171        0.27159
     165 -> 171        0.14534
     166 -> 171       -0.10099
     168 -> 180        0.18390
     169 -> 178        0.10335
     169 -> 180        0.34543

 Excited State  43:      Singlet-A      4.8772 eV  254.21 nm  f=0.0239  <S**2>=0.000
     160 -> 171        0.16460
     161 -> 171        0.16238
     162 -> 171        0.12602
     164 -> 171       -0.13227
     167 -> 178       -0.20440
     167 -> 181        0.12380
     168 -> 181       -0.10357
     169 -> 178        0.30810
     169 -> 179        0.38599
     169 -> 180        0.13059
     169 -> 181        0.22317

 Excited State  44:      Singlet-A      4.8982 eV  253.12 nm  f=0.0236  <S**2>=0.000
     160 -> 171        0.14282
     161 -> 171        0.29132
     162 -> 171        0.23691
     163 -> 171        0.27146
     164 -> 171        0.33670
     168 -> 179        0.20182
     168 -> 180        0.21951

 Excited State  45:      Singlet-A      4.9186 eV  252.07 nm  f=0.0112  <S**2>=0.000
     156 -> 171        0.11858
     157 -> 170       -0.17928
     160 -> 171       -0.12905
     162 -> 171       -0.22394
     163 -> 171       -0.15811
     164 -> 171       -0.10354
     165 -> 171       -0.13711
     168 -> 178       -0.28552
     168 -> 179        0.19867
     168 -> 180        0.32122
     169 -> 181        0.20297

 Excited State  46:      Singlet-A      4.9344 eV  251.26 nm  f=0.1152  <S**2>=0.000
     157 -> 170       -0.11831
     160 -> 171       -0.24124
     161 -> 171       -0.35464
     162 -> 171        0.47382
     163 -> 171        0.14934
     169 -> 181        0.11952

 Excited State  47:      Singlet-A      4.9542 eV  250.26 nm  f=0.0179  <S**2>=0.000
     156 -> 170        0.14151
     157 -> 170        0.10497
     160 -> 171        0.16752
     167 -> 178        0.29723
     167 -> 180       -0.13275
     168 -> 178       -0.20982
     168 -> 179        0.10021
     168 -> 180       -0.29993
     168 -> 181        0.10422
     169 -> 178       -0.11105
     169 -> 180        0.10954
     169 -> 181        0.31238

 Excited State  48:      Singlet-A      4.9835 eV  248.79 nm  f=0.0204  <S**2>=0.000
     158 -> 171       -0.10332
     160 -> 171        0.44493
     161 -> 171       -0.39292
     167 -> 180       -0.13796
     168 -> 178        0.10069
     168 -> 179       -0.10879
     168 -> 180        0.19619

 Excited State  49:      Singlet-A      4.9983 eV  248.05 nm  f=0.0146  <S**2>=0.000
     161 -> 171       -0.11890
     167 -> 178       -0.23545
     167 -> 179       -0.15001
     167 -> 181        0.19331
     168 -> 178       -0.19880
     168 -> 179        0.42437
     168 -> 180       -0.17676
     168 -> 181       -0.15746
     169 -> 181       -0.20001

 Excited State  50:      Singlet-A      5.0073 eV  247.61 nm  f=0.0589  <S**2>=0.000
     156 -> 170       -0.23429
     160 -> 171        0.15240
     161 -> 171       -0.16814
     167 -> 178       -0.16237
     167 -> 179        0.11014
     167 -> 180        0.38115
     167 -> 181       -0.15883
     168 -> 178       -0.13876
     168 -> 180       -0.13661
     168 -> 181        0.19896
     169 -> 182       -0.13905
     169 -> 184       -0.11250

 The electronic state is 1-A.
 Alpha  occ. eigenvalues --  -24.71566 -14.37071 -14.36814 -14.36307 -14.32536
 Alpha  occ. eigenvalues --  -14.32534 -10.28019 -10.25995 -10.25955 -10.25924
 Alpha  occ. eigenvalues --  -10.22975 -10.22953 -10.22731 -10.22716 -10.22385
 Alpha  occ. eigenvalues --  -10.22371 -10.22370 -10.22311 -10.22251 -10.22235
 Alpha  occ. eigenvalues --  -10.17786 -10.17766 -10.17766 -10.17754 -10.17739
 Alpha  occ. eigenvalues --  -10.17725 -10.17722 -10.17720 -10.17713 -10.17708
 Alpha  occ. eigenvalues --  -10.17705 -10.17667 -10.17650 -10.17649 -10.17625
 Alpha  occ. eigenvalues --  -10.17608 -10.17608 -10.17595 -10.17591 -10.17572
 Alpha  occ. eigenvalues --  -10.17526 -10.17520 -10.17426 -10.17413 -10.17330
 Alpha  occ. eigenvalues --  -10.17319 -10.17318 -10.17245 -10.17112 -10.17085
 Alpha  occ. eigenvalues --   -1.25323  -1.00042  -0.99319  -0.98899  -0.92481
 Alpha  occ. eigenvalues --   -0.92441  -0.89138  -0.86678  -0.86630  -0.86480
 Alpha  occ. eigenvalues --   -0.85678  -0.85454  -0.84340  -0.80871  -0.79347
 Alpha  occ. eigenvalues --   -0.76681  -0.76610  -0.76489  -0.75610  -0.75568
 Alpha  occ. eigenvalues --   -0.75317  -0.75188  -0.75141  -0.74975  -0.73822
 Alpha  occ. eigenvalues --   -0.72890  -0.72698  -0.68324  -0.67251  -0.63615
 Alpha  occ. eigenvalues --   -0.63418  -0.63141  -0.62984  -0.62059  -0.61559
 Alpha  occ. eigenvalues --   -0.61122  -0.61045  -0.60893  -0.60723  -0.59807
 Alpha  occ. eigenvalues --   -0.58389  -0.57973  -0.56725  -0.55390  -0.54783
 Alpha  occ. eigenvalues --   -0.54420  -0.53755  -0.53649  -0.53459  -0.50789
 Alpha  occ. eigenvalues --   -0.50682  -0.50133  -0.49740  -0.49118  -0.48836
 Alpha  occ. eigenvalues --   -0.48436  -0.48269  -0.48210  -0.46526  -0.46334
 Alpha  occ. eigenvalues --   -0.46087  -0.45588  -0.45386  -0.45080  -0.44412
 Alpha  occ. eigenvalues --   -0.44194  -0.44024  -0.44006  -0.43855  -0.43540
 Alpha  occ. eigenvalues --   -0.42991  -0.42740  -0.42708  -0.42598  -0.42562
 Alpha  occ. eigenvalues --   -0.42468  -0.42043  -0.41596  -0.39972  -0.39517
 Alpha  occ. eigenvalues --   -0.39167  -0.39015  -0.38879  -0.38616  -0.38467
 Alpha  occ. eigenvalues --   -0.37992  -0.37653  -0.37007  -0.36903  -0.36829
 Alpha  occ. eigenvalues --   -0.36198  -0.36131  -0.36015  -0.35779  -0.35419
 Alpha  occ. eigenvalues --   -0.35336  -0.35235  -0.35185  -0.35006  -0.34933
 Alpha  occ. eigenvalues --   -0.34766  -0.34654  -0.32969  -0.32650  -0.31526
 Alpha  occ. eigenvalues --   -0.28483  -0.28260  -0.27145  -0.26869  -0.26728
 Alpha  occ. eigenvalues --   -0.26629  -0.26455  -0.26452  -0.26205  -0.25932
 Alpha  occ. eigenvalues --   -0.25831  -0.21288  -0.20988  -0.20546
 Alpha virt. eigenvalues --   -0.08104  -0.06370  -0.03144  -0.02970  -0.02736
 Alpha virt. eigenvalues --   -0.02538  -0.02331  -0.02231  -0.01213  -0.00962
 Alpha virt. eigenvalues --   -0.00779  -0.00741   0.00601   0.00945   0.01095

 Mulliken charges:
               1
     1  C   -0.159792
     2  C    0.508911
     3  C   -0.223504
     4  C    0.226492
     5  C   -0.234809
     6  C    0.182647
     7  C   -0.160266
     8  C   -0.130273
     9  F   -0.223386
    10  N   -0.056154
    11  N   -0.060814
    12  N    0.061521
    13  C    0.129756
    14  C    0.118565
    15  C   -0.230351
    16  C   -0.246229
    17  C   -0.219671
    18  C   -0.247978
    19  C   -0.152477
    20  H    0.172600
    21  C   -0.112670
    22  H    0.156694
    23  C   -0.150662
    24  H    0.170988
    25  C   -0.117073
    26  H    0.156607
    27  C   -0.162516
    28  H    0.148021
    29  H    0.149164
    30  C   -0.161375
    31  H    0.148296
    32  H    0.149489
    33  H    0.147939
    34  H    0.148342
    35  N    0.096645
    36  C    0.073971
    37  C    0.140352
    38  C   -0.202124
    39  C   -0.216099
    40  C   -0.219939
    41  C   -0.237001
    42  C   -0.149812
    43  H    0.168395
    44  C   -0.128027
    45  H    0.157884
    46  C   -0.154414
    47  H    0.170015
    48  C   -0.129417
    49  H    0.160644
    50  C   -0.148326
    51  H    0.149469
    52  H    0.150496
    53  C   -0.152862
    54  H    0.149815
    55  H    0.149867
    56  H    0.149745
    57  H    0.149038
    58  N    0.099129
    59  C    0.082178
    60  C    0.130768
    61  C   -0.201017
    62  C   -0.217078
    63  C   -0.210274
    64  C   -0.237868
    65  C   -0.149312
    66  H    0.166447
    67  C   -0.125191
    68  H    0.158511
    69  C   -0.150977
    70  H    0.170337
    71  C   -0.126853
    72  H    0.160432
    73  C   -0.150143
    74  H    0.150030
    75  H    0.150557
    76  C   -0.153534
    77  H    0.150224
    78  H    0.150260
    79  H    0.149650
    80  H    0.149386
 Sum of Mulliken charges =  -0.00000

 Dipole moment (field-independent basis, Debye):
    X=             -4.4939    Y=              2.7421    Z=             -1.8920  Tot=              5.5941
 Quadrupole moment (field-independent basis, Debye-Ang):
   XX=           -273.0831   YY=           -295.2872   ZZ=           -261.6288
   XY=             -6.2314   XZ=            -17.4946   YZ=             -4.1614

 Normal termination of Gaussian 09 at Fri Jul  1 21:35:03 2022.
