 Gaussian 09, Revision E.01,
 Gaussian 09:  ES64L-G09RevE.01 30-Nov-2015

 ----------------------------------------------------------------------
 #p wB97XD/def2TZVP td=(NStates=50) int=ultrafine scrf=(SMD,solvent=Ace
 tonitrile)
 ----------------------------------------------------------------------

 -----
 Title
 -----
 Symbolic Z-matrix:
 Charge =  0 Multiplicity = 1

                         Standard orientation:
 ---------------------------------------------------------------------
 Center     Atomic      Atomic             Coordinates (Angstroms)
 Number     Number       Type             X           Y           Z
 ---------------------------------------------------------------------
      1          6           0       -0.193303    1.369901    0.008458
      2          6           0       -1.231175    0.504536   -0.316282
      3          6           0       -1.109822   -0.878489   -0.281463
      4          6           0        0.155931   -1.418546    0.014635
      5          6           0        1.238507   -0.588036    0.314926
      6          6           0        1.042017    0.794518    0.355807
      7          6           0        0.345181   -2.829890    0.013390
      8          6           0        2.090646    1.619196    0.853991
      9          9           0       -2.385417    1.025481   -0.729173
     10          7           0        0.507173   -3.967509    0.017780
     11          7           0        2.929531    2.271089    1.291973
     12          7           0        2.499711   -1.127261    0.612228
     13          6           0        3.600146   -0.744741   -0.192499
     14          6           0        2.644850   -1.971264    1.739935
     15          6           0        3.414582   -0.534006   -1.556746
     16          6           0        4.860096   -0.543543    0.366402
     17          6           0        1.893021   -1.730648    2.886150
     18          6           0        3.515031   -3.058316    1.705088
     19          6           0        4.474407   -0.115392   -2.346417
     20          1           0        2.440872   -0.696224   -2.002379
     21          6           0        5.916832   -0.145893   -0.434791
     22          1           0        5.009766   -0.686571    1.428379
     23          6           0        2.005237   -2.574889    3.980660
     24          1           0        1.219014   -0.883707    2.923358
     25          6           0        3.635045   -3.883424    2.809810
     26          1           0        4.089493   -3.260858    0.810570
     27          6           0        5.731543    0.075937   -1.793196
     28          1           0        4.313684    0.049505   -3.404733
     29          1           0        6.890846    0.008808    0.013030
     30          6           0        2.879115   -3.650877    3.951971
     31          1           0        1.411746   -2.378268    4.865042
     32          1           0        4.314469   -4.725980    2.770488
     33          1           0        6.559491    0.396327   -2.412748
     34          1           0        2.970641   -4.304465    4.810140
     35          7           0       -2.207731   -1.679378   -0.585165
     36          6           0       -2.115180   -2.646060   -1.619771
     37          6           0       -3.433910   -1.427420    0.080699
     38          6           0       -1.397814   -2.358450   -2.775712
     39          6           0       -2.726125   -3.888273   -1.475925
     40          6           0       -3.423490   -1.077781    1.428032
     41          6           0       -4.645058   -1.504707   -0.601147
     42          6           0       -1.277465   -3.315929   -3.771848
     43          1           0       -0.931604   -1.388110   -2.895818
     44          6           0       -2.618355   -4.830026   -2.484317
     45          1           0       -3.275121   -4.116763   -0.571536
     46          6           0       -4.612610   -0.789689    2.079459
     47          1           0       -2.485197   -1.030717    1.967070
     48          6           0       -5.829506   -1.236335    0.064289
     49          1           0       -4.659222   -1.765842   -1.651204
     50          6           0       -1.889011   -4.552590   -3.633924
     51          1           0       -0.711504   -3.084525   -4.665682
     52          1           0       -3.094805   -5.795025   -2.362941
     53          6           0       -5.821330   -0.871257    1.404219
     54          1           0       -4.590557   -0.512422    3.126138
     55          1           0       -6.766242   -1.298336   -0.475868
     56          1           0       -1.798968   -5.296407   -4.415378
     57          1           0       -6.749750   -0.653439    1.916680
     58          7           0       -0.380850    2.745099   -0.024250
     59          6           0        0.546239    3.564580   -0.720098
     60          6           0       -1.524110    3.301067    0.606721
     61          6           0        1.102017    3.119609   -1.915284
     62          6           0        0.917466    4.802051   -0.203644
     63          6           0       -1.950374    2.789557    1.827994
     64          6           0       -2.231749    4.338352    0.006970
     65          6           0        2.038359    3.899826   -2.575993
     66          1           0        0.806644    2.162114   -2.326336
     67          6           0        1.836881    5.583863   -0.881956
     68          1           0        0.494547    5.145040    0.731705
     69          6           0       -3.088325    3.299501    2.433670
     70          1           0       -1.392543    1.992362    2.303883
     71          6           0       -3.354718    4.856049    0.630145
     72          1           0       -1.907994    4.732805   -0.947503
     73          6           0        2.407412    5.135646   -2.066424
     74          1           0        2.470610    3.540391   -3.501609
     75          1           0        2.121819    6.544593   -0.471225
     76          6           0       -3.793281    4.336654    1.841450
     77          1           0       -3.415439    2.888648    3.380814
     78          1           0       -3.900182    5.662485    0.155750
     79          1           0        3.134063    5.746139   -2.587227
     80          1           0       -4.677754    4.738606    2.319124
 ---------------------------------------------------------------------

 SCF Done:  E(RwB97XD) =  -2068.39165358     A.U. after   17 cycles

 Excitation energies and oscillator strengths:

 Excited State   1:      Singlet-A      3.3951 eV  365.18 nm  f=0.2658  <S**2>=0.000
     157 -> 170        0.10909
     167 -> 170        0.22104
     168 -> 170       -0.11177
     168 -> 171       -0.10808
     169 -> 170        0.61740
 This state for optimization and/or second-order correction.
 Total Energy, E(TD-HF/TD-KS) =  -2068.26688552
 Copying the excited state density for this state as the 1-particle RhoCI density.

 Excited State   2:      Singlet-A      3.5337 eV  350.86 nm  f=0.2806  <S**2>=0.000
     168 -> 170        0.66769
     169 -> 170        0.13370

 Excited State   3:      Singlet-A      3.7394 eV  331.56 nm  f=0.1435  <S**2>=0.000
     167 -> 170        0.19295
     167 -> 171       -0.28178
     169 -> 171        0.58261

 Excited State   4:      Singlet-A      3.8213 eV  324.45 nm  f=0.0765  <S**2>=0.000
     167 -> 170        0.61384
     167 -> 171        0.10193
     169 -> 170       -0.22234
     169 -> 171       -0.14828

 Excited State   5:      Singlet-A      4.1652 eV  297.67 nm  f=0.3633  <S**2>=0.000
     156 -> 171        0.10944
     167 -> 171        0.16895
     168 -> 171        0.60855
     169 -> 170        0.13985
     169 -> 171        0.14214

 Excited State   6:      Singlet-A      4.3751 eV  283.38 nm  f=0.0136  <S**2>=0.000
     167 -> 171        0.55996
     168 -> 171       -0.22034
     168 -> 176       -0.11086
     169 -> 171        0.25807

 Excited State   7:      Singlet-A      4.6899 eV  264.37 nm  f=0.2133  <S**2>=0.000
     167 -> 173       -0.34734
     169 -> 173        0.53318
     169 -> 175       -0.12937

 Excited State   8:      Singlet-A      4.7778 eV  259.50 nm  f=0.0892  <S**2>=0.000
     167 -> 174        0.30405
     168 -> 172        0.44314
     168 -> 174       -0.28966
     168 -> 175       -0.14530
     169 -> 172        0.12649
     169 -> 174        0.19148

 Excited State   9:      Singlet-A      4.7980 eV  258.41 nm  f=0.1594  <S**2>=0.000
     167 -> 172        0.24098
     167 -> 175       -0.17292
     167 -> 177        0.23302
     168 -> 174        0.24855
     169 -> 172        0.28893
     169 -> 174        0.17557
     169 -> 176       -0.12312
     169 -> 177       -0.25284

 Excited State  10:      Singlet-A      4.8163 eV  257.42 nm  f=0.3699  <S**2>=0.000
     167 -> 172        0.26825
     167 -> 174        0.14016
     167 -> 177       -0.23797
     168 -> 174        0.24317
     169 -> 172        0.13595
     169 -> 173       -0.11732
     169 -> 174        0.11648
     169 -> 175       -0.22135
     169 -> 176        0.13061
     169 -> 177        0.29427

 Excited State  11:      Singlet-A      4.8631 eV  254.95 nm  f=0.0467  <S**2>=0.000
     167 -> 176       -0.27436
     168 -> 172        0.15909
     168 -> 175        0.38607
     168 -> 176        0.24099
     168 -> 177        0.10180
     169 -> 176       -0.13765
     169 -> 177        0.16102

 Excited State  12:      Singlet-A      4.9112 eV  252.45 nm  f=0.1524  <S**2>=0.000
     164 -> 172        0.11239
     167 -> 171        0.14129
     167 -> 172       -0.12405
     167 -> 173       -0.13786
     167 -> 175       -0.26759
     167 -> 176        0.15823
     167 -> 177       -0.13750
     168 -> 175        0.12129
     168 -> 176        0.28521
     169 -> 175       -0.16019
     169 -> 176        0.16473
     169 -> 177       -0.20373

 Excited State  13:      Singlet-A      5.0869 eV  243.73 nm  f=0.0232  <S**2>=0.000
     160 -> 177       -0.15201
     162 -> 173        0.18095
     165 -> 171       -0.10059
     167 -> 179       -0.25106
     167 -> 181        0.15972
     169 -> 178       -0.22190
     169 -> 179        0.35031
     169 -> 181       -0.14728

 Excited State  14:      Singlet-A      5.1160 eV  242.34 nm  f=0.0200  <S**2>=0.000
     159 -> 176       -0.13944
     163 -> 174       -0.15971
     164 -> 180       -0.10404
     165 -> 170       -0.15551
     166 -> 170        0.15264
     167 -> 178       -0.20880
     168 -> 178        0.21344
     168 -> 179        0.26687
     168 -> 181        0.26168
     169 -> 178       -0.10570

 Excited State  15:      Singlet-A      5.1241 eV  241.96 nm  f=0.0177  <S**2>=0.000
     158 -> 176        0.12277
     161 -> 174        0.13631
     163 -> 172       -0.12939
     164 -> 170       -0.18124
     166 -> 170        0.12076
     167 -> 178       -0.21209
     167 -> 181        0.24547
     168 -> 178       -0.22064
     168 -> 179       -0.10443
     169 -> 178       -0.17528
     169 -> 181        0.23119

 Excited State  16:      Singlet-A      5.4396 eV  227.93 nm  f=0.1219  <S**2>=0.000
     154 -> 170       -0.11250
     156 -> 170       -0.10985
     156 -> 171       -0.14060
     157 -> 170        0.48247
     161 -> 170       -0.21847
     165 -> 170       -0.22313
     166 -> 170       -0.15072
     168 -> 171        0.11192

 Excited State  17:      Singlet-A      5.6229 eV  220.50 nm  f=0.0153  <S**2>=0.000
     156 -> 170       -0.15126
     161 -> 170       -0.11603
     162 -> 170        0.10281
     163 -> 170        0.41902
     165 -> 170       -0.18156
     166 -> 170        0.38793

 Excited State  18:      Singlet-A      5.6720 eV  218.59 nm  f=0.0360  <S**2>=0.000
     159 -> 170        0.17930
     161 -> 170        0.34269
     162 -> 170        0.20610
     163 -> 170        0.29401
     164 -> 170        0.25124
     166 -> 170       -0.23473

 Excited State  19:      Singlet-A      5.6758 eV  218.44 nm  f=0.1124  <S**2>=0.000
     156 -> 170        0.16436
     159 -> 170        0.16246
     161 -> 170       -0.24360
     163 -> 170        0.29157
     164 -> 170       -0.19158
     165 -> 170        0.35760
     166 -> 170       -0.18236

 Excited State  20:      Singlet-A      5.7436 eV  215.87 nm  f=0.0143  <S**2>=0.000
     160 -> 170        0.12813
     166 -> 170       -0.12467
     167 -> 182        0.11295
     168 -> 173        0.27539
     168 -> 180        0.19702
     168 -> 182        0.10227
     168 -> 184        0.18965
     169 -> 172       -0.13474
     169 -> 173        0.10608
     169 -> 180        0.18863
     169 -> 183       -0.12352
     169 -> 184        0.21367

 Excited State  21:      Singlet-A      5.7635 eV  215.12 nm  f=0.1063  <S**2>=0.000
     157 -> 170       -0.17428
     158 -> 170       -0.17833
     161 -> 170       -0.28251
     162 -> 170       -0.17310
     164 -> 170        0.44039

 Excited State  22:      Singlet-A      5.7766 eV  214.63 nm  f=0.0223  <S**2>=0.000
     156 -> 170        0.20285
     157 -> 170        0.12311
     157 -> 171        0.11725
     161 -> 170        0.13031
     162 -> 170       -0.18546
     164 -> 170        0.19818
     165 -> 171       -0.17229
     166 -> 170        0.23632
     166 -> 171       -0.10756
     167 -> 180       -0.11487
     168 -> 173        0.13444
     168 -> 178       -0.10190
     168 -> 180        0.18687
     168 -> 183        0.10965
     168 -> 184        0.12317

 Excited State  23:      Singlet-A      5.8093 eV  213.42 nm  f=0.0152  <S**2>=0.000
     157 -> 170        0.14565
     159 -> 170       -0.17314
     161 -> 170        0.12351
     162 -> 171        0.15721
     165 -> 170        0.27609
     166 -> 170        0.10363
     167 -> 180        0.20549
     167 -> 182        0.10136
     167 -> 183       -0.11186
     168 -> 174       -0.10706
     169 -> 172        0.22895
     169 -> 184       -0.13674

 Excited State  24:      Singlet-A      5.8209 eV  213.00 nm  f=0.1064  <S**2>=0.000
     156 -> 170        0.18247
     159 -> 170        0.45861
     163 -> 170       -0.14567
     164 -> 170       -0.10772
     166 -> 170        0.11074
     169 -> 182       -0.14702
     169 -> 184       -0.11141

 Excited State  25:      Singlet-A      5.8498 eV  211.95 nm  f=0.0188  <S**2>=0.000
     159 -> 170        0.19557
     160 -> 170       -0.21871
     162 -> 170       -0.12353
     167 -> 180        0.17384
     167 -> 182       -0.11716
     168 -> 183       -0.13273
     169 -> 180        0.23136
     169 -> 182        0.28785
     169 -> 183       -0.12587
     169 -> 184        0.10943

 Excited State  26:      Singlet-A      5.8593 eV  211.60 nm  f=0.1218  <S**2>=0.000
     156 -> 170        0.20163
     157 -> 170        0.13260
     160 -> 170        0.20602
     162 -> 170       -0.13076
     166 -> 170        0.12094
     167 -> 182        0.11781
     167 -> 184       -0.12743
     168 -> 180       -0.20084
     168 -> 184       -0.11114
     169 -> 172       -0.15405
     169 -> 180        0.15726
     169 -> 182       -0.18578
     169 -> 184        0.19971

 Excited State  27:      Singlet-A      5.8669 eV  211.33 nm  f=0.0173  <S**2>=0.000
     156 -> 170       -0.11434
     158 -> 170        0.22657
     159 -> 170        0.14031
     160 -> 170       -0.23651
     162 -> 170        0.25717
     162 -> 171        0.11468
     163 -> 170       -0.12705
     164 -> 170        0.19858
     165 -> 170        0.23257
     166 -> 170        0.15483
     169 -> 182       -0.10392

 Excited State  28:      Singlet-A      5.8752 eV  211.03 nm  f=0.0255  <S**2>=0.000
     156 -> 170        0.22752
     158 -> 170        0.28031
     160 -> 170       -0.20151
     162 -> 171       -0.11698
     165 -> 170       -0.19517
     167 -> 182        0.14036
     168 -> 173        0.12959
     168 -> 180       -0.11204
     168 -> 183       -0.11516
     169 -> 172        0.12331
     169 -> 182       -0.12916

 Excited State  29:      Singlet-A      5.9290 eV  209.12 nm  f=0.0427  <S**2>=0.000
     158 -> 170        0.22386
     162 -> 170       -0.18301
     162 -> 171        0.16616
     164 -> 170       -0.11610
     165 -> 170       -0.10535
     167 -> 184       -0.10356
     168 -> 172        0.13334
     168 -> 180        0.19886
     168 -> 183        0.15628
     168 -> 184       -0.13562

 Excited State  30:      Singlet-A      5.9324 eV  208.99 nm  f=0.0113  <S**2>=0.000
     156 -> 170        0.31743
     157 -> 171        0.12726
     158 -> 170       -0.17809
     159 -> 170       -0.16848
     160 -> 170       -0.10467
     161 -> 170       -0.11453
     162 -> 170        0.35833
     169 -> 180        0.12620

 Excited State  31:      Singlet-A      5.9513 eV  208.33 nm  f=0.0997  <S**2>=0.000
     156 -> 170        0.12337
     160 -> 171       -0.12034
     162 -> 171        0.39868
     164 -> 171        0.11449
     165 -> 171        0.10167
     165 -> 173       -0.16780
     166 -> 171        0.12700
     166 -> 173       -0.16138
     168 -> 180       -0.10470
     169 -> 177       -0.14012

 Excited State  32:      Singlet-A      5.9779 eV  207.40 nm  f=0.0187  <S**2>=0.000
     156 -> 170        0.11504
     158 -> 170        0.16804
     160 -> 170        0.10125
     162 -> 170       -0.12669
     162 -> 171       -0.15045
     164 -> 171        0.14251
     165 -> 171        0.33171
     166 -> 171        0.30065
     169 -> 179        0.13287
     169 -> 182        0.16046

 Excited State  33:      Singlet-A      6.0474 eV  205.02 nm  f=0.0327  <S**2>=0.000
     158 -> 171        0.14661
     159 -> 170        0.10521
     160 -> 171        0.43388
     161 -> 171       -0.23384
     162 -> 171       -0.14409
     165 -> 173       -0.16143
     166 -> 173       -0.14465
     169 -> 172        0.10252

 Excited State  34:      Singlet-A      6.1022 eV  203.18 nm  f=0.0227  <S**2>=0.000
     157 -> 171        0.15523
     158 -> 170        0.24114
     160 -> 170        0.37791
     161 -> 170       -0.16876
     162 -> 170        0.12961
     163 -> 170       -0.11921
     165 -> 171       -0.14013
     167 -> 173        0.10079
     168 -> 173       -0.10974
     169 -> 182        0.18112

 Excited State  35:      Singlet-A      6.1196 eV  202.60 nm  f=0.0261  <S**2>=0.000
     158 -> 170        0.17518
     165 -> 171        0.10080
     167 -> 173       -0.15673
     168 -> 172       -0.18811
     168 -> 173       -0.13742
     168 -> 174       -0.10284
     169 -> 174        0.37759
     169 -> 176       -0.16114
     169 -> 186       -0.14302

 Excited State  36:      Singlet-A      6.1500 eV  201.60 nm  f=0.0229  <S**2>=0.000
     160 -> 170        0.14187
     163 -> 171        0.11677
     164 -> 174        0.13823
     165 -> 171       -0.12456
     166 -> 171        0.10947
     166 -> 172       -0.10518
     167 -> 173       -0.18573
     167 -> 182       -0.11387
     167 -> 184       -0.13630
     168 -> 173        0.18761
     168 -> 183       -0.15240
     168 -> 184        0.11502
     168 -> 186       -0.16659
     169 -> 173       -0.11869
     169 -> 184       -0.13073

 Excited State  37:      Singlet-A      6.1647 eV  201.12 nm  f=0.1041  <S**2>=0.000
     156 -> 171       -0.11246
     157 -> 171       -0.10018
     158 -> 170       -0.15746
     161 -> 170        0.12225
     163 -> 171        0.16595
     164 -> 174        0.15268
     165 -> 174       -0.10154
     166 -> 171        0.24195
     167 -> 173        0.11984
     168 -> 173       -0.13806
     168 -> 186        0.10895
     169 -> 174        0.20131
     169 -> 176       -0.10385

 Excited State  38:      Singlet-A      6.1886 eV  200.34 nm  f=0.3246  <S**2>=0.000
     159 -> 170        0.14061
     161 -> 171       -0.13646
     163 -> 174       -0.13711
     164 -> 171       -0.20342
     164 -> 172        0.23873
     165 -> 171        0.10975
     165 -> 174        0.14051
     166 -> 174       -0.19979
     168 -> 176       -0.14292
     169 -> 176       -0.10426

 Excited State  39:      Singlet-A      6.2188 eV  199.37 nm  f=0.2059  <S**2>=0.000
     157 -> 171        0.15838
     158 -> 170       -0.11427
     160 -> 171       -0.10012
     164 -> 171        0.13330
     167 -> 173       -0.12215
     167 -> 180       -0.11994
     167 -> 184       -0.11279
     168 -> 172       -0.14010
     168 -> 174       -0.12372
     168 -> 176        0.14283
     169 -> 172        0.15553
     169 -> 175        0.22835
     169 -> 177        0.16148

 Excited State  40:      Singlet-A      6.2329 eV  198.92 nm  f=0.1286  <S**2>=0.000
     156 -> 171        0.27139
     157 -> 170        0.16077
     158 -> 170       -0.14758
     160 -> 170        0.11782
     161 -> 170        0.10024
     164 -> 176       -0.13406
     165 -> 171        0.21318
     165 -> 172        0.14570
     166 -> 171       -0.22148
     166 -> 172       -0.16586

 Excited State  41:      Singlet-A      6.2619 eV  198.00 nm  f=0.4461  <S**2>=0.000
     157 -> 171        0.26489
     161 -> 171       -0.17799
     162 -> 173       -0.11293
     164 -> 171        0.23661
     166 -> 171       -0.10027
     167 -> 184        0.10251
     169 -> 172       -0.21175
     169 -> 178       -0.14882
     169 -> 184       -0.13067

 Excited State  42:      Singlet-A      6.2987 eV  196.84 nm  f=0.2552  <S**2>=0.000
     156 -> 171        0.32189
     157 -> 171        0.19060
     159 -> 172        0.10229
     162 -> 171       -0.13898
     165 -> 171       -0.10919
     166 -> 171        0.10469
     168 -> 178        0.10214
     169 -> 176       -0.10902

 Excited State  43:      Singlet-A      6.3223 eV  196.11 nm  f=0.0036  <S**2>=0.000
     162 -> 171       -0.11863
     167 -> 175        0.10937
     168 -> 172        0.16747
     168 -> 174        0.10581
     168 -> 175        0.20651
     168 -> 176       -0.12241
     169 -> 174        0.23101
     169 -> 175        0.24601
     169 -> 176        0.24889

 Excited State  44:      Singlet-A      6.3402 eV  195.55 nm  f=0.0509  <S**2>=0.000
     156 -> 171        0.13762
     157 -> 171       -0.19023
     163 -> 170       -0.12142
     163 -> 171       -0.13603
     164 -> 171        0.22086
     164 -> 172        0.14308
     165 -> 171       -0.10260
     165 -> 175       -0.11881
     165 -> 176       -0.12249
     166 -> 176        0.14935

 Excited State  45:      Singlet-A      6.3586 eV  194.99 nm  f=0.0816  <S**2>=0.000
     156 -> 171       -0.17090
     160 -> 171       -0.13493
     161 -> 171        0.22996
     162 -> 171       -0.22700
     162 -> 182        0.10987
     163 -> 171        0.16493
     165 -> 173       -0.17446
     165 -> 177        0.13094
     166 -> 173       -0.18998
     168 -> 174        0.10162
     168 -> 175       -0.10180

 Excited State  46:      Singlet-A      6.3716 eV  194.59 nm  f=0.0472  <S**2>=0.000
     159 -> 171        0.22246
     161 -> 174        0.12333
     162 -> 173        0.10886
     163 -> 171        0.17001
     163 -> 172       -0.12570
     164 -> 171        0.11219
     166 -> 175       -0.10739
     167 -> 181       -0.14048
     168 -> 173       -0.11593
     168 -> 178        0.10678
     168 -> 180        0.10187
     169 -> 175        0.11660
     169 -> 176        0.10703
     169 -> 178        0.11548

 Excited State  47:      Singlet-A      6.3868 eV  194.13 nm  f=0.0706  <S**2>=0.000
     158 -> 171        0.14609
     162 -> 171        0.11055
     163 -> 171       -0.10665
     163 -> 174        0.10136
     167 -> 172       -0.12302
     168 -> 174        0.28594
     168 -> 175       -0.17631
     168 -> 176        0.17627
     168 -> 177       -0.11207
     169 -> 175        0.13491
     169 -> 177        0.13352

 Excited State  48:      Singlet-A      6.4128 eV  193.34 nm  f=0.0119  <S**2>=0.000
     162 -> 173       -0.11934
     163 -> 171        0.16250
     168 -> 173        0.12495
     168 -> 175        0.11507
     168 -> 176       -0.13146
     168 -> 181        0.10952
     169 -> 174        0.15614
     169 -> 176        0.14163

 Excited State  49:      Singlet-A      6.4170 eV  193.21 nm  f=0.0152  <S**2>=0.000
     161 -> 173        0.10446
     162 -> 173       -0.13151
     165 -> 171       -0.13136
     167 -> 177        0.14878
     168 -> 177        0.35436
     169 -> 176        0.15888
     169 -> 179        0.10734
     169 -> 181       -0.11088

 Excited State  50:      Singlet-A      6.4332 eV  192.73 nm  f=0.0664  <S**2>=0.000
     157 -> 171       -0.10400
     159 -> 171       -0.13196
     167 -> 174        0.12787
     168 -> 176        0.13404
     168 -> 179       -0.10512
     168 -> 180       -0.15126
     169 -> 175        0.25183
     169 -> 176        0.13124
     169 -> 177        0.10521
     169 -> 178        0.10293

 The electronic state is 1-A.
 Alpha  occ. eigenvalues --  -24.84537 -14.48671 -14.48454 -14.48046 -14.44729
 Alpha  occ. eigenvalues --  -14.44718 -10.39526 -10.37697 -10.37645 -10.37602
 Alpha  occ. eigenvalues --  -10.34651 -10.34636 -10.34343 -10.34342 -10.33789
 Alpha  occ. eigenvalues --  -10.33775 -10.33767 -10.33732 -10.33731 -10.33704
 Alpha  occ. eigenvalues --  -10.29032 -10.29020 -10.29010 -10.28989 -10.28984
 Alpha  occ. eigenvalues --  -10.28972 -10.28971 -10.28971 -10.28958 -10.28953
 Alpha  occ. eigenvalues --  -10.28938 -10.28910 -10.28896 -10.28880 -10.28877
 Alpha  occ. eigenvalues --  -10.28875 -10.28873 -10.28854 -10.28847 -10.28813
 Alpha  occ. eigenvalues --  -10.28806 -10.28800 -10.28706 -10.28684 -10.28519
 Alpha  occ. eigenvalues --  -10.28514 -10.28504 -10.28422 -10.28346 -10.28305
 Alpha  occ. eigenvalues --   -1.36152  -1.10446  -1.09593  -1.09202  -1.02799
 Alpha  occ. eigenvalues --   -1.02762  -0.99645  -0.96960  -0.96919  -0.96808
 Alpha  occ. eigenvalues --   -0.95941  -0.95728  -0.94571  -0.91047  -0.89456
 Alpha  occ. eigenvalues --   -0.86635  -0.86571  -0.86481  -0.85537  -0.85503
 Alpha  occ. eigenvalues --   -0.85272  -0.85098  -0.85052  -0.84924  -0.83649
 Alpha  occ. eigenvalues --   -0.82711  -0.82538  -0.77932  -0.76872  -0.73044
 Alpha  occ. eigenvalues --   -0.72785  -0.72532  -0.72384  -0.71437  -0.70915
 Alpha  occ. eigenvalues --   -0.70507  -0.70386  -0.70225  -0.70064  -0.69033
 Alpha  occ. eigenvalues --   -0.67597  -0.67214  -0.66103  -0.64424  -0.63915
 Alpha  occ. eigenvalues --   -0.63509  -0.62766  -0.62679  -0.62555  -0.59754
 Alpha  occ. eigenvalues --   -0.59621  -0.59201  -0.58823  -0.57902  -0.57577
 Alpha  occ. eigenvalues --   -0.57142  -0.57041  -0.56988  -0.55220  -0.55016
 Alpha  occ. eigenvalues --   -0.54760  -0.54184  -0.53973  -0.53676  -0.53254
 Alpha  occ. eigenvalues --   -0.52671  -0.52560  -0.52502  -0.52364  -0.52006
 Alpha  occ. eigenvalues --   -0.51472  -0.51128  -0.51082  -0.50999  -0.50916
 Alpha  occ. eigenvalues --   -0.50846  -0.50719  -0.50270  -0.48943  -0.48317
 Alpha  occ. eigenvalues --   -0.48012  -0.47917  -0.47687  -0.47467  -0.47377
 Alpha  occ. eigenvalues --   -0.46968  -0.46548  -0.45002  -0.44885  -0.44846
 Alpha  occ. eigenvalues --   -0.44374  -0.44197  -0.44070  -0.43987  -0.43784
 Alpha  occ. eigenvalues --   -0.43710  -0.43389  -0.43357  -0.43104  -0.42883
 Alpha  occ. eigenvalues --   -0.42659  -0.42565  -0.41120  -0.40788  -0.39762
 Alpha  occ. eigenvalues --   -0.36204  -0.35977  -0.34758  -0.34455  -0.34345
 Alpha  occ. eigenvalues --   -0.34212  -0.34049  -0.34007  -0.33723  -0.33419
 Alpha  occ. eigenvalues --   -0.33321  -0.28291  -0.27809  -0.27397
 Alpha virt. eigenvalues --   -0.01967   0.00132   0.03710   0.03828   0.04161
 Alpha virt. eigenvalues --    0.04388   0.04593   0.04656   0.05882   0.06124
 Alpha virt. eigenvalues --    0.06352   0.06411   0.07810   0.08229   0.08511

 Mulliken charges:
               1
     1  C   -0.266703
     2  C    0.571385
     3  C   -0.336197
     4  C    0.405291
     5  C   -0.414724
     6  C    0.358229
     7  C   -0.204918
     8  C   -0.216234
     9  F   -0.214723
    10  N   -0.064956
    11  N   -0.067911
    12  N    0.195488
    13  C    0.154067
    14  C    0.106382
    15  C   -0.284523
    16  C   -0.313300
    17  C   -0.251281
    18  C   -0.310358
    19  C   -0.146657
    20  H    0.183216
    21  C   -0.096689
    22  H    0.174972
    23  C   -0.150600
    24  H    0.185861
    25  C   -0.102510
    26  H    0.174544
    27  C   -0.181742
    28  H    0.161588
    29  H    0.163125
    30  C   -0.176185
    31  H    0.161063
    32  H    0.163363
    33  H    0.161992
    34  H    0.162563
    35  N    0.179531
    36  C    0.048337
    37  C    0.152254
    38  C   -0.231901
    39  C   -0.262968
    40  C   -0.267134
    41  C   -0.282557
    42  C   -0.154639
    43  H    0.182882
    44  C   -0.123042
    45  H    0.176167
    46  C   -0.156059
    47  H    0.181097
    48  C   -0.126740
    49  H    0.178107
    50  C   -0.157814
    51  H    0.162011
    52  H    0.163955
    53  C   -0.165858
    54  H    0.163477
    55  H    0.163214
    56  H    0.163849
    57  H    0.162833
    58  N    0.184203
    59  C    0.063234
    60  C    0.130310
    61  C   -0.234799
    62  C   -0.262306
    63  C   -0.249215
    64  C   -0.282870
    65  C   -0.157430
    66  H    0.181575
    67  C   -0.121945
    68  H    0.176426
    69  C   -0.157976
    70  H    0.186772
    71  C   -0.124823
    72  H    0.177932
    73  C   -0.158314
    74  H    0.162449
    75  H    0.163867
    76  C   -0.162373
    77  H    0.163189
    78  H    0.163502
    79  H    0.163525
    80  H    0.163149
 Sum of Mulliken charges =  -0.00000

 Dipole moment (field-independent basis, Debye):
    X=             -4.3832    Y=              2.4368    Z=             -1.8471  Tot=              5.3444
 Quadrupole moment (field-independent basis, Debye-Ang):
   XX=           -268.8454   YY=           -292.3303   ZZ=           -255.8355
   XY=             -6.0888   XZ=            -17.2131   YZ=             -4.5393

 Normal termination of Gaussian 09 at Sat Jul  2 15:25:42 2022.
