 Gaussian 09, Revision E.01,
 Gaussian 09:  ES64L-G09RevE.01 30-Nov-2015

 ----------------------------------------------------------------------
 #p cam-b3lyp/def2TZVP td=(NStates=50) int=ultrafine scrf=(SMD,solvent=
 Acetonitrile) EmpiricalDispersion=GD3BJ
 ----------------------------------------------------------------------

 -----
 Title
 -----
 Symbolic Z-matrix:
 Charge =  0 Multiplicity = 1

                         Standard orientation:
 ---------------------------------------------------------------------
 Center     Atomic      Atomic             Coordinates (Angstroms)
 Number     Number       Type             X           Y           Z
 ---------------------------------------------------------------------
      1          6           0       -0.214177    1.364927    0.017642
      2          6           0       -1.236476    0.481706   -0.296870
      3          6           0       -1.092353   -0.896414   -0.271498
      4          6           0        0.183143   -1.415521    0.015809
      5          6           0        1.249738   -0.566305    0.313110
      6          6           0        1.032964    0.811405    0.355524
      7          6           0        0.397389   -2.821126    0.010912
      8          6           0        2.068437    1.651038    0.850324
      9          9           0       -2.407442    0.985033   -0.699701
     10          7           0        0.579652   -3.952651    0.012978
     11          7           0        2.896460    2.313809    1.284798
     12          7           0        2.520642   -1.084299    0.606930
     13          6           0        3.612379   -0.684214   -0.200437
     14          6           0        2.682913   -1.930856    1.729513
     15          6           0        3.420762   -0.478527   -1.562224
     16          6           0        4.867979   -0.461598    0.354369
     17          6           0        1.926764   -1.712744    2.874716
     18          6           0        3.574892   -2.996985    1.690416
     19          6           0        4.469872   -0.043659   -2.353990
     20          1           0        2.449747   -0.657417   -2.004084
     21          6           0        5.914523   -0.046774   -0.447947
     22          1           0        5.021241   -0.600917    1.415032
     23          6           0        2.056043   -2.558314    3.963768
     24          1           0        1.235614   -0.881582    2.914809
     25          6           0        3.711224   -3.824371    2.789006
     26          1           0        4.153011   -3.182319    0.796045
     27          6           0        5.722934    0.169832   -1.804532
     28          1           0        4.304224    0.117163   -3.411388
     29          1           0        6.885992    0.125541   -0.002853
     30          6           0        2.951050   -3.614179    3.930446
     31          1           0        1.458508   -2.378900    4.848164
     32          1           0        4.407568   -4.651840    2.745851
     33          1           0        6.543293    0.503680   -2.425758
     34          1           0        3.055653   -4.269685    4.784689
     35          7           0       -2.177142   -1.712549   -0.575683
     36          6           0       -2.069303   -2.683378   -1.604609
     37          6           0       -3.410475   -1.475049    0.082001
     38          6           0       -1.358705   -2.391425   -2.760762
     39          6           0       -2.661168   -3.931386   -1.454584
     40          6           0       -3.413315   -1.133117    1.428767
     41          6           0       -4.613604   -1.560322   -0.608289
     42          6           0       -1.225994   -3.349924   -3.751611
     43          1           0       -0.907894   -1.415698   -2.885228
     44          6           0       -2.540698   -4.875371   -2.456626
     45          1           0       -3.204753   -4.162638   -0.549013
     46          6           0       -4.608032   -0.860657    2.072421
     47          1           0       -2.479805   -1.080585    1.973126
     48          6           0       -5.803932   -1.306481    0.048183
     49          1           0       -4.616395   -1.816283   -1.658477
     50          6           0       -1.818115   -4.593122   -3.607161
     51          1           0       -0.665262   -3.114687   -4.646831
     52          1           0       -3.002055   -5.846190   -2.330183
     53          6           0       -5.809142   -0.949499    1.388483
     54          1           0       -4.596705   -0.589104    3.119960
     55          1           0       -6.735485   -1.373965   -0.498723
     56          1           0       -1.718269   -5.338736   -4.384658
     57          1           0       -6.742733   -0.743257    1.894706
     58          7           0       -0.425969    2.734877   -0.016322
     59          6           0        0.491987    3.572655   -0.702519
     60          6           0       -1.586879    3.272690    0.597615
     61          6           0        1.059035    3.144866   -1.895773
     62          6           0        0.839606    4.810823   -0.177850
     63          6           0       -2.015356    2.763648    1.816303
     64          6           0       -2.306464    4.289735   -0.016981
     65          6           0        1.983815    3.943109   -2.547053
     66          1           0        0.781049    2.186017   -2.312517
     67          6           0        1.748125    5.610644   -0.845530
     68          1           0        0.407211    5.139576    0.756923
     69          6           0       -3.167118    3.255882    2.405737
     70          1           0       -1.447267    1.981767    2.302611
     71          6           0       -3.444401    4.789884    0.588799
     72          1           0       -1.979647    4.681892   -0.970030
     73          6           0        2.330095    5.179730   -2.028771
     74          1           0        2.425911    3.596892   -3.472131
     75          1           0        2.015941    6.572450   -0.427865
     76          6           0       -3.884718    4.272938    1.798459
     77          1           0       -3.496215    2.846865    3.352096
     78          1           0       -4.000143    5.581072    0.102537
     79          1           0        3.048682    5.804674   -2.542021
     80          1           0       -4.780994    4.661451    2.263381
 ---------------------------------------------------------------------

 SCF Done:  E(RCAM-B3LYP) =  -2068.11096589     A.U. after   20 cycles

 Excitation energies and oscillator strengths:

 Excited State   1:      Singlet-A      3.3771 eV  367.13 nm  f=0.2661  <S**2>=0.000
     167 -> 170        0.23191
     168 -> 170       -0.11019
     168 -> 171       -0.10746
     169 -> 170        0.62096
 This state for optimization and/or second-order correction.
 Total Energy, E(TD-HF/TD-KS) =  -2067.98685796
 Copying the excited state density for this state as the 1-particle RhoCI density.

 Excited State   2:      Singlet-A      3.5084 eV  353.39 nm  f=0.2839  <S**2>=0.000
     168 -> 170        0.67291
     169 -> 170        0.13471

 Excited State   3:      Singlet-A      3.7188 eV  333.40 nm  f=0.1170  <S**2>=0.000
     167 -> 170        0.33072
     167 -> 171       -0.23332
     169 -> 171        0.54487

 Excited State   4:      Singlet-A      3.7667 eV  329.16 nm  f=0.1109  <S**2>=0.000
     167 -> 170        0.55486
     167 -> 171        0.15865
     169 -> 170       -0.22142
     169 -> 171       -0.28577

 Excited State   5:      Singlet-A      4.1106 eV  301.62 nm  f=0.3528  <S**2>=0.000
     167 -> 171        0.16623
     168 -> 171        0.62286
     169 -> 170        0.13790
     169 -> 171        0.12874

 Excited State   6:      Singlet-A      4.3096 eV  287.70 nm  f=0.0142  <S**2>=0.000
     167 -> 171        0.58179
     168 -> 171       -0.21188
     169 -> 171        0.24949

 Excited State   7:      Singlet-A      4.6530 eV  266.46 nm  f=0.2100  <S**2>=0.000
     167 -> 173       -0.32483
     169 -> 173        0.55245
     169 -> 175       -0.12899

 Excited State   8:      Singlet-A      4.7456 eV  261.26 nm  f=0.0846  <S**2>=0.000
     167 -> 174        0.30866
     168 -> 172        0.45372
     168 -> 174       -0.27785
     168 -> 175       -0.14526
     169 -> 172        0.12572
     169 -> 174        0.18849

 Excited State   9:      Singlet-A      4.7662 eV  260.13 nm  f=0.1982  <S**2>=0.000
     167 -> 172        0.28186
     167 -> 175       -0.16823
     167 -> 177        0.19261
     168 -> 174        0.28178
     169 -> 172        0.30317
     169 -> 174        0.18415
     169 -> 176       -0.10920
     169 -> 177       -0.22821

 Excited State  10:      Singlet-A      4.7863 eV  259.04 nm  f=0.2897  <S**2>=0.000
     167 -> 172        0.23761
     167 -> 174        0.13694
     167 -> 177       -0.25471
     168 -> 174        0.21026
     169 -> 173       -0.12411
     169 -> 175       -0.24010
     169 -> 176        0.13666
     169 -> 177        0.34772

 Excited State  11:      Singlet-A      4.8335 eV  256.51 nm  f=0.0442  <S**2>=0.000
     167 -> 176       -0.27592
     168 -> 172        0.16495
     168 -> 175        0.39977
     168 -> 176        0.24808
     168 -> 177        0.10139
     169 -> 176       -0.13629
     169 -> 177        0.14629

 Excited State  12:      Singlet-A      4.8768 eV  254.23 nm  f=0.1676  <S**2>=0.000
     163 -> 170        0.10054
     164 -> 172        0.10731
     167 -> 171        0.12743
     167 -> 172       -0.13382
     167 -> 173       -0.15114
     167 -> 175       -0.27946
     167 -> 176        0.16313
     167 -> 177       -0.12956
     168 -> 175        0.10766
     168 -> 176        0.28915
     169 -> 175       -0.16312
     169 -> 176        0.16377
     169 -> 177       -0.20558

 Excited State  13:      Singlet-A      5.0737 eV  244.37 nm  f=0.0256  <S**2>=0.000
     160 -> 177       -0.14440
     162 -> 173        0.18247
     165 -> 171       -0.10238
     167 -> 179       -0.23794
     167 -> 181        0.16508
     169 -> 178       -0.22813
     169 -> 179        0.36636
     169 -> 181       -0.15615

 Excited State  14:      Singlet-A      5.0993 eV  243.14 nm  f=0.0228  <S**2>=0.000
     159 -> 176       -0.13515
     163 -> 174       -0.16100
     164 -> 180       -0.10629
     165 -> 170       -0.18901
     166 -> 170        0.19487
     167 -> 178       -0.23408
     168 -> 178        0.18530
     168 -> 179        0.24788
     168 -> 181        0.25693
     169 -> 178       -0.11547

 Excited State  15:      Singlet-A      5.1097 eV  242.65 nm  f=0.0170  <S**2>=0.000
     158 -> 176       -0.12131
     161 -> 174       -0.13985
     163 -> 172        0.12922
     164 -> 170        0.21958
     166 -> 170       -0.12625
     167 -> 178        0.18886
     167 -> 179       -0.10289
     167 -> 181       -0.23715
     168 -> 178        0.24812
     168 -> 179        0.12452
     169 -> 178        0.14832
     169 -> 181       -0.21841

 Excited State  16:      Singlet-A      5.3939 eV  229.86 nm  f=0.1000  <S**2>=0.000
     156 -> 170       -0.12352
     156 -> 171       -0.13393
     157 -> 170        0.43434
     161 -> 170       -0.23758
     165 -> 170       -0.28267
     166 -> 170       -0.20820

 Excited State  17:      Singlet-A      5.5010 eV  225.38 nm  f=0.0205  <S**2>=0.000
     159 -> 170        0.13451
     161 -> 170       -0.11055
     163 -> 170        0.44048
     165 -> 170       -0.18517
     166 -> 170        0.38964

 Excited State  18:      Singlet-A      5.5482 eV  223.47 nm  f=0.0277  <S**2>=0.000
     159 -> 170        0.16016
     161 -> 170        0.36833
     162 -> 170        0.19433
     163 -> 170        0.29769
     164 -> 170        0.24227
     166 -> 170       -0.25953

 Excited State  19:      Singlet-A      5.5537 eV  223.24 nm  f=0.0999  <S**2>=0.000
     159 -> 170        0.13613
     161 -> 170       -0.25561
     163 -> 170        0.29308
     164 -> 170       -0.18739
     165 -> 170        0.38354
     166 -> 170       -0.21429
     168 -> 179        0.10192
     168 -> 181        0.10680

 Excited State  20:      Singlet-A      5.6203 eV  220.60 nm  f=0.0117  <S**2>=0.000
     161 -> 170        0.12160
     162 -> 170        0.17042
     164 -> 170       -0.25067
     166 -> 170       -0.10938
     168 -> 173        0.33709
     168 -> 180        0.16655
     168 -> 184       -0.12183
     168 -> 185        0.10280
     169 -> 172       -0.21161
     169 -> 173        0.10825
     169 -> 174        0.12135
     169 -> 180        0.10510
     169 -> 184       -0.10565
     169 -> 185        0.13265

 Excited State  21:      Singlet-A      5.6355 eV  220.01 nm  f=0.0978  <S**2>=0.000
     158 -> 170       -0.12287
     161 -> 170       -0.15875
     162 -> 170       -0.13302
     164 -> 170        0.46886
     168 -> 173        0.21425
     168 -> 178       -0.14675
     168 -> 180        0.11593

 Excited State  22:      Singlet-A      5.6688 eV  218.71 nm  f=0.0214  <S**2>=0.000
     157 -> 170        0.31724
     158 -> 170        0.14683
     159 -> 170       -0.13720
     161 -> 170        0.24651
     162 -> 170       -0.12300
     162 -> 171        0.12420
     165 -> 170        0.24746
     165 -> 171       -0.12763
     166 -> 170        0.21404
     168 -> 173        0.11147
     168 -> 180        0.11544
     169 -> 172        0.13145

 Excited State  23:      Singlet-A      5.6823 eV  218.19 nm  f=0.0044  <S**2>=0.000
     160 -> 170        0.14522
     167 -> 180        0.21141
     167 -> 182        0.11667
     168 -> 172       -0.13866
     168 -> 174       -0.18097
     168 -> 183       -0.11292
     169 -> 172        0.37410
     169 -> 174       -0.10445
     169 -> 185       -0.12475

 Excited State  24:      Singlet-A      5.7060 eV  217.29 nm  f=0.0622  <S**2>=0.000
     156 -> 170        0.16735
     159 -> 170        0.56365
     162 -> 170       -0.11218
     163 -> 170       -0.17370

 Excited State  25:      Singlet-A      5.7222 eV  216.67 nm  f=0.0325  <S**2>=0.000
     156 -> 170       -0.15427
     157 -> 170        0.11172
     159 -> 170        0.13111
     160 -> 170       -0.17186
     161 -> 170       -0.12712
     162 -> 170        0.45013
     163 -> 170       -0.13730
     164 -> 170        0.12752
     165 -> 170        0.21534
     165 -> 171        0.10185
     166 -> 170        0.13550
     166 -> 171        0.12222

 Excited State  26:      Singlet-A      5.7369 eV  216.12 nm  f=0.0479  <S**2>=0.000
     157 -> 170        0.14137
     160 -> 170        0.34525
     162 -> 170       -0.11542
     165 -> 170        0.12869
     167 -> 172        0.11232
     167 -> 180        0.11878
     168 -> 173       -0.17140
     169 -> 172       -0.15946
     169 -> 180        0.24532

 Excited State  27:      Singlet-A      5.7486 eV  215.68 nm  f=0.0207  <S**2>=0.000
     156 -> 170       -0.12328
     158 -> 170       -0.18252
     160 -> 170        0.33199
     162 -> 170        0.13336
     167 -> 173       -0.13811
     167 -> 180       -0.14243
     168 -> 180        0.15248
     168 -> 183        0.13797
     169 -> 173       -0.10295
     169 -> 175       -0.10178
     169 -> 180       -0.24342
     169 -> 182       -0.11398

 Excited State  28:      Singlet-A      5.7924 eV  214.04 nm  f=0.0433  <S**2>=0.000
     158 -> 170        0.43060
     160 -> 170        0.10299
     162 -> 170       -0.16882
     167 -> 180       -0.11237
     167 -> 182        0.13067
     168 -> 172        0.10259
     168 -> 173        0.12766
     169 -> 174       -0.11116
     169 -> 182       -0.25704

 Excited State  29:      Singlet-A      5.8014 eV  213.72 nm  f=0.0131  <S**2>=0.000
     156 -> 170       -0.17491
     157 -> 170       -0.10243
     162 -> 170       -0.11709
     167 -> 183       -0.11238
     168 -> 172        0.18806
     168 -> 174        0.13770
     168 -> 180        0.32784
     168 -> 183        0.12195
     169 -> 174       -0.22284

 Excited State  30:      Singlet-A      5.8176 eV  213.12 nm  f=0.0336  <S**2>=0.000
     156 -> 170        0.44997
     157 -> 171        0.12739
     159 -> 170       -0.14131
     162 -> 170        0.18525
     169 -> 174       -0.16945
     169 -> 180        0.12833
     169 -> 182       -0.15812

 Excited State  31:      Singlet-A      5.8694 eV  211.24 nm  f=0.0103  <S**2>=0.000
     158 -> 170        0.19362
     162 -> 171       -0.12618
     166 -> 171       -0.13111
     167 -> 173       -0.13564
     167 -> 183       -0.10960
     168 -> 172       -0.15905
     168 -> 173       -0.19913
     168 -> 180        0.13214
     169 -> 174        0.30763
     169 -> 176       -0.19572
     169 -> 177        0.13400
     169 -> 182       -0.18836

 Excited State  32:      Singlet-A      5.8729 eV  211.11 nm  f=0.0910  <S**2>=0.000
     156 -> 170        0.10277
     160 -> 171       -0.20557
     162 -> 171        0.50766
     165 -> 173       -0.13139
     166 -> 173       -0.12683
     169 -> 174        0.15056
     169 -> 175        0.11430

 Excited State  33:      Singlet-A      5.8916 eV  210.44 nm  f=0.0024  <S**2>=0.000
     156 -> 170        0.20143
     158 -> 170        0.15284
     164 -> 171        0.14536
     165 -> 171        0.32237
     166 -> 171        0.31360
     167 -> 182       -0.12001
     169 -> 174        0.10972
     169 -> 175       -0.13693
     169 -> 179        0.11222
     169 -> 182        0.19571

 Excited State  34:      Singlet-A      5.9272 eV  209.18 nm  f=0.0283  <S**2>=0.000
     157 -> 171        0.12702
     158 -> 170        0.17518
     160 -> 170        0.26242
     160 -> 171        0.16780
     161 -> 170       -0.12264
     165 -> 171       -0.10661
     167 -> 173        0.16761
     168 -> 173       -0.14769
     168 -> 176        0.10119
     168 -> 183        0.11207
     169 -> 173        0.15170
     169 -> 175        0.15869
     169 -> 182        0.17337
     169 -> 184       -0.11662

 Excited State  35:      Singlet-A      5.9594 eV  208.05 nm  f=0.0130  <S**2>=0.000
     158 -> 170       -0.16263
     160 -> 170       -0.21308
     160 -> 171        0.25464
     161 -> 170        0.13347
     162 -> 170       -0.12427
     164 -> 171        0.12348
     165 -> 171        0.16604
     166 -> 171        0.13637
     167 -> 180       -0.10903
     169 -> 174        0.10762
     169 -> 175        0.23060
     169 -> 176        0.12030
     169 -> 182       -0.16852

 Excited State  36:      Singlet-A      5.9903 eV  206.97 nm  f=0.0056  <S**2>=0.000
     160 -> 170       -0.10831
     160 -> 171       -0.20576
     161 -> 171        0.21059
     167 -> 173        0.26683
     167 -> 182        0.11027
     168 -> 173       -0.17770
     168 -> 175       -0.12867
     168 -> 176        0.16656
     168 -> 183        0.10440
     169 -> 173        0.15149
     169 -> 177        0.12505

 Excited State  37:      Singlet-A      5.9957 eV  206.79 nm  f=0.0266  <S**2>=0.000
     160 -> 171       -0.23981
     161 -> 171        0.14751
     167 -> 173       -0.16151
     169 -> 174        0.10423
     169 -> 175        0.32997
     169 -> 176        0.30901
     169 -> 177        0.17422
     169 -> 182        0.10519

 Excited State  38:      Singlet-A      6.0312 eV  205.57 nm  f=0.0142  <S**2>=0.000
     167 -> 172        0.15916
     167 -> 173       -0.16880
     167 -> 174        0.10200
     167 -> 175       -0.10953
     168 -> 172       -0.20362
     168 -> 174       -0.15849
     168 -> 175       -0.22701
     168 -> 176        0.25299
     169 -> 174       -0.24777
     169 -> 176       -0.16777

 Excited State  39:      Singlet-A      6.0458 eV  205.08 nm  f=0.0736  <S**2>=0.000
     156 -> 171       -0.10404
     163 -> 171        0.20203
     164 -> 174        0.15701
     165 -> 171       -0.13520
     166 -> 171        0.25404
     166 -> 172       -0.13067
     168 -> 174        0.11913
     168 -> 177       -0.18233
     169 -> 175        0.15350
     169 -> 176       -0.23796
     169 -> 177        0.12441

 Excited State  40:      Singlet-A      6.0769 eV  204.03 nm  f=0.1121  <S**2>=0.000
     163 -> 171       -0.16116
     164 -> 172        0.10048
     164 -> 174       -0.10940
     165 -> 171        0.21853
     165 -> 174        0.11101
     166 -> 171       -0.17710
     167 -> 172       -0.19677
     168 -> 174        0.24147
     168 -> 175       -0.17802
     169 -> 175        0.11977
     169 -> 176       -0.12086

 Excited State  41:      Singlet-A      6.1198 eV  202.59 nm  f=0.2734  <S**2>=0.000
     161 -> 171        0.12422
     163 -> 174        0.11882
     164 -> 171        0.30704
     164 -> 172       -0.17688
     165 -> 174       -0.11845
     166 -> 171       -0.14504
     166 -> 174        0.14672
     168 -> 174        0.15993
     168 -> 176        0.17566
     168 -> 177       -0.22502
     169 -> 178       -0.12109

 Excited State  42:      Singlet-A      6.1233 eV  202.48 nm  f=0.0415  <S**2>=0.000
     156 -> 171        0.13929
     157 -> 170        0.11499
     158 -> 170       -0.11748
     161 -> 170        0.10046
     163 -> 171        0.10157
     165 -> 171        0.26539
     165 -> 172        0.11377
     166 -> 171       -0.18689
     166 -> 172       -0.15919
     167 -> 172        0.11399
     168 -> 174       -0.12252
     168 -> 175        0.23013
     168 -> 177       -0.15115
     169 -> 176       -0.11592

 Excited State  43:      Singlet-A      6.1357 eV  202.07 nm  f=0.0142  <S**2>=0.000
     163 -> 171        0.13714
     165 -> 172        0.11163
     166 -> 171       -0.14104
     166 -> 172       -0.12953
     167 -> 177        0.17391
     168 -> 177        0.42316
     169 -> 177        0.15909

 Excited State  44:      Singlet-A      6.1530 eV  201.50 nm  f=0.2077  <S**2>=0.000
     156 -> 171       -0.11385
     157 -> 171        0.18851
     161 -> 171       -0.17136
     164 -> 171        0.16774
     167 -> 172        0.12043
     167 -> 174        0.22247
     168 -> 172       -0.12633
     168 -> 174       -0.10289
     168 -> 177       -0.12008
     169 -> 172       -0.15958
     169 -> 178       -0.11356
     169 -> 184        0.17368

 Excited State  45:      Singlet-A      6.1803 eV  200.61 nm  f=0.1919  <S**2>=0.000
     157 -> 171       -0.14696
     160 -> 171        0.10949
     164 -> 171       -0.27529
     167 -> 174        0.30721
     168 -> 172       -0.12961
     168 -> 176        0.10452
     169 -> 175        0.12558
     169 -> 177       -0.11826
     169 -> 178        0.11185

 Excited State  46:      Singlet-A      6.2122 eV  199.58 nm  f=0.0676  <S**2>=0.000
     159 -> 171       -0.10131
     164 -> 171       -0.14696
     167 -> 172        0.29964
     167 -> 174       -0.27820
     167 -> 175        0.11263
     168 -> 175       -0.14502
     168 -> 176        0.23033
     168 -> 181       -0.11903
     169 -> 184        0.15329

 Excited State  47:      Singlet-A      6.2252 eV  199.16 nm  f=0.1607  <S**2>=0.000
     156 -> 171        0.23659
     157 -> 171        0.13499
     160 -> 171       -0.12581
     162 -> 171       -0.17285
     165 -> 173       -0.14185
     166 -> 173       -0.12589
     167 -> 175        0.14393
     167 -> 176       -0.17492
     168 -> 175       -0.13426
     168 -> 177        0.11001
     168 -> 178        0.18722
     169 -> 177       -0.15600

 Excited State  48:      Singlet-A      6.2297 eV  199.02 nm  f=0.0277  <S**2>=0.000
     156 -> 171       -0.10844
     159 -> 171        0.19337
     161 -> 171       -0.18831
     162 -> 171        0.13483
     163 -> 171        0.26859
     165 -> 171        0.14082
     167 -> 174       -0.13357
     168 -> 173       -0.12106
     168 -> 177       -0.12384
     168 -> 178        0.11731

 Excited State  49:      Singlet-A      6.2514 eV  198.33 nm  f=0.1358  <S**2>=0.000
     156 -> 171        0.20230
     157 -> 171        0.10269
     161 -> 171       -0.16167
     163 -> 171       -0.19499
     167 -> 172        0.12056
     167 -> 176        0.11510
     168 -> 173       -0.12634
     168 -> 184       -0.13916
     169 -> 178        0.16335

 Excited State  50:      Singlet-A      6.2617 eV  198.01 nm  f=0.0463  <S**2>=0.000
     156 -> 171       -0.10692
     157 -> 171       -0.17147
     159 -> 171        0.11011
     161 -> 171        0.16512
     162 -> 173        0.12739
     164 -> 171        0.13443
     164 -> 172        0.11249
     167 -> 172        0.10655
     167 -> 176        0.20728
     168 -> 177        0.10079
     168 -> 184       -0.11025
     169 -> 176       -0.14418
     169 -> 179       -0.14266

 The electronic state is 1-A.
 Alpha  occ. eigenvalues --  -24.78896 -14.43795 -14.43554 -14.43100 -14.39977
 Alpha  occ. eigenvalues --  -14.39967 -10.35316 -10.33438 -10.33418 -10.33380
 Alpha  occ. eigenvalues --  -10.30341 -10.30319 -10.30228 -10.30224 -10.29530
 Alpha  occ. eigenvalues --  -10.29519 -10.29516 -10.29476 -10.29463 -10.29441
 Alpha  occ. eigenvalues --  -10.24875 -10.24865 -10.24853 -10.24842 -10.24834
 Alpha  occ. eigenvalues --  -10.24822 -10.24818 -10.24812 -10.24807 -10.24796
 Alpha  occ. eigenvalues --  -10.24767 -10.24746 -10.24733 -10.24713 -10.24711
 Alpha  occ. eigenvalues --  -10.24706 -10.24705 -10.24695 -10.24674 -10.24639
 Alpha  occ. eigenvalues --  -10.24620 -10.24615 -10.24507 -10.24496 -10.24387
 Alpha  occ. eigenvalues --  -10.24385 -10.24369 -10.24290 -10.24185 -10.24158
 Alpha  occ. eigenvalues --   -1.33605  -1.08520  -1.07660  -1.07234  -1.00924
 Alpha  occ. eigenvalues --   -1.00872  -0.97804  -0.95208  -0.95165  -0.95040
 Alpha  occ. eigenvalues --   -0.94173  -0.93951  -0.92771  -0.89134  -0.87527
 Alpha  occ. eigenvalues --   -0.84765  -0.84695  -0.84595  -0.83673  -0.83639
 Alpha  occ. eigenvalues --   -0.83392  -0.83229  -0.83182  -0.83034  -0.81758
 Alpha  occ. eigenvalues --   -0.80812  -0.80598  -0.76021  -0.74929  -0.71162
 Alpha  occ. eigenvalues --   -0.70889  -0.70625  -0.70468  -0.69464  -0.69038
 Alpha  occ. eigenvalues --   -0.68590  -0.68533  -0.68333  -0.68168  -0.67121
 Alpha  occ. eigenvalues --   -0.65714  -0.65289  -0.64256  -0.62548  -0.62069
 Alpha  occ. eigenvalues --   -0.61661  -0.60909  -0.60781  -0.60657  -0.57875
 Alpha  occ. eigenvalues --   -0.57741  -0.57322  -0.56933  -0.56002  -0.55668
 Alpha  occ. eigenvalues --   -0.55240  -0.55134  -0.55080  -0.53376  -0.53169
 Alpha  occ. eigenvalues --   -0.52901  -0.52384  -0.52147  -0.51800  -0.51390
 Alpha  occ. eigenvalues --   -0.50817  -0.50703  -0.50644  -0.50520  -0.50167
 Alpha  occ. eigenvalues --   -0.49646  -0.49335  -0.49285  -0.49199  -0.49119
 Alpha  occ. eigenvalues --   -0.49045  -0.48915  -0.48411  -0.47012  -0.46412
 Alpha  occ. eigenvalues --   -0.46103  -0.46023  -0.45792  -0.45596  -0.45449
 Alpha  occ. eigenvalues --   -0.45007  -0.44596  -0.43178  -0.43064  -0.43017
 Alpha  occ. eigenvalues --   -0.42467  -0.42359  -0.42253  -0.42158  -0.41873
 Alpha  occ. eigenvalues --   -0.41826  -0.41531  -0.41494  -0.41249  -0.41068
 Alpha  occ. eigenvalues --   -0.40850  -0.40736  -0.39200  -0.38850  -0.37726
 Alpha  occ. eigenvalues --   -0.34050  -0.33832  -0.32614  -0.32308  -0.32183
 Alpha  occ. eigenvalues --   -0.32052  -0.31885  -0.31853  -0.31573  -0.31268
 Alpha  occ. eigenvalues --   -0.31171  -0.26219  -0.25768  -0.25353
 Alpha virt. eigenvalues --   -0.03939  -0.01906   0.01531   0.01659   0.01965
 Alpha virt. eigenvalues --    0.02148   0.02372   0.02457   0.03685   0.03921
 Alpha virt. eigenvalues --    0.04108   0.04226   0.05580   0.05993   0.06202

 Mulliken charges:
               1
     1  C   -0.150812
     2  C    0.506294
     3  C   -0.226442
     4  C    0.228555
     5  C   -0.264616
     6  C    0.192456
     7  C   -0.171086
     8  C   -0.153196
     9  F   -0.209896
    10  N   -0.006723
    11  N   -0.011598
    12  N    0.024130
    13  C    0.108121
    14  C    0.096220
    15  C   -0.245593
    16  C   -0.250298
    17  C   -0.233162
    18  C   -0.252769
    19  C   -0.164344
    20  H    0.191079
    21  C   -0.126786
    22  H    0.179345
    23  C   -0.162222
    24  H    0.190821
    25  C   -0.128246
    26  H    0.178899
    27  C   -0.180046
    28  H    0.165541
    29  H    0.165959
    30  C   -0.180107
    31  H    0.165471
    32  H    0.166259
    33  H    0.164655
    34  H    0.164927
    35  N    0.068321
    36  C    0.033603
    37  C    0.114701
    38  C   -0.208322
    39  C   -0.215406
    40  C   -0.232054
    41  C   -0.236067
    42  C   -0.162616
    43  H    0.187467
    44  C   -0.141805
    45  H    0.179077
    46  C   -0.168655
    47  H    0.187938
    48  C   -0.146777
    49  H    0.181842
    50  C   -0.164503
    51  H    0.166556
    52  H    0.167171
    53  C   -0.168703
    54  H    0.167541
    55  H    0.166511
    56  H    0.166266
    57  H    0.165512
    58  N    0.070158
    59  C    0.040557
    60  C    0.098522
    61  C   -0.207853
    62  C   -0.214301
    63  C   -0.219831
    64  C   -0.235415
    65  C   -0.164533
    66  H    0.186885
    67  C   -0.141855
    68  H    0.179813
    69  C   -0.166460
    70  H    0.190935
    71  C   -0.144060
    72  H    0.181374
    73  C   -0.164674
    74  H    0.167115
    75  H    0.167113
    76  C   -0.168455
    77  H    0.167757
    78  H    0.166850
    79  H    0.166116
    80  H    0.165853
 Sum of Mulliken charges =  -0.00000

 Dipole moment (field-independent basis, Debye):
    X=             -4.4334    Y=              2.3935    Z=             -1.8521  Tot=              5.3679
 Quadrupole moment (field-independent basis, Debye-Ang):
   XX=           -273.2525   YY=           -296.7142   ZZ=           -260.1374
   XY=             -5.4936   XZ=            -16.9413   YZ=             -4.7980

 Normal termination of Gaussian 09 at Sat Jul  2 00:24:29 2022.
