                         Program Version 5.0.2 -  RELEASE  -
|  1> %maxcore 20000
|  2> %pal
|  3>  nprocs= 6
|  4> end
|  5> ! RI-wPBEPP86   def2-TZVP def2/J def2-TZVP/C RIJCOSX CPCM TightSCF
|  6> %TDDFT
|  7>    NROOTS   60
|  8>    dcorr 1
|  9>    TDA      FALSE
| 10> END
| 11>
| 12> %CPCM
| 13>    SMD          TRUE
| 14>    SMDsolvent   "ACETONITRILE"
| 15>  END
| 16>
| 17>
| 18> * xyz 0 1
| 19> C                  -0.09813300    1.39242200    0.01340000
| 20> C                  -1.20637900    0.60874400   -0.29352100
| 21> C                  -1.19524300   -0.78207400   -0.27236200
| 22> C                   0.03211700   -1.43179700    0.00936000
| 23> C                   1.18254600   -0.68059500    0.30053400
| 24> C                   1.10095000    0.71991200    0.34893500
| 25> C                   0.10905800   -2.84191600    0.00152300
| 26> C                   2.20820800    1.44917600    0.83684900
| 27> F                  -2.32243000    1.22148900   -0.69634000
| 28> N                   0.18172800   -3.99861900    0.00279700
| 29> N                   3.11213500    2.03242400    1.26805200
| 30> N                   2.40257400   -1.31501700    0.58267100
| 31> C                   3.54736000   -0.93505600   -0.15925700
| 32> C                   2.47202700   -2.26177900    1.63312100
| 33> C                   3.41016000   -0.56535400   -1.49760300
| 34> C                   4.80666700   -0.88523200    0.43791100
| 35> C                   1.67530700   -2.10006700    2.76587800
| 36> C                   3.30954700   -3.37277600    1.53715400
| 37> C                   4.51316200   -0.13516200   -2.21728600
| 38> H                   2.43702300   -0.61638900   -1.97148600
| 39> C                   5.90440100   -0.47135100   -0.29617700
| 40> H                   4.91794500   -1.15275100    1.48064200
| 41> C                   1.70763900   -3.04523900    3.77860500
| 42> H                   1.02969900   -1.23392500    2.84858600
| 43> C                   3.34553300   -4.30174200    2.56190900
| 44> H                   3.91866800   -3.51091500    0.65322400
| 45> C                   5.76637200   -0.08683400   -1.62395500
| 46> H                   4.38942700    0.15208700   -3.25410100
| 47> H                   6.87487800   -0.43099800    0.18245000
| 48> C                   2.54325600   -4.14863000    3.68589500
| 49> H                   1.08216200   -2.90774000    4.65167500
| 50> H                   3.99637400   -5.16250000    2.47269900
| 51> H                   6.62742400    0.24434000   -2.18951600
| 52> H                   2.57091600   -4.88227700    4.48085000
| 53> N                  -2.35461600   -1.48622000   -0.58604000
| 54> C                  -2.31584000   -2.51804500   -1.55954300
| 55> C                  -3.57137900   -1.12006900    0.04154900
| 56> C                  -1.50701900   -2.37888600   -2.68521200
| 57> C                  -3.06545300   -3.67977300   -1.38688900
| 58> C                  -3.56216100   -0.67398200    1.36251700
| 59> C                  -4.77810200   -1.18220100   -0.65382800
| 60> C                  -1.43563900   -3.40256300   -3.61632400
| 61> H                  -0.93421300   -1.46968200   -2.82465500
| 62> C                  -2.99855800   -4.68925100   -2.33086700
| 63> H                  -3.68574500   -3.79106700   -0.50680900
| 64> C                  -4.74379600   -0.28414300    1.97131600
| 65> H                  -2.62844600   -0.63768700    1.91099700
| 66> C                  -5.95480100   -0.80638400   -0.02939600
| 67> H                  -4.78865300   -1.51533000   -1.68337700
| 68> C                  -2.18018800   -4.56065900   -3.44620000
| 69> H                  -0.80179000   -3.28570600   -4.48622600
| 70> H                  -3.57954700   -5.59114600   -2.18485000
| 71> C                  -5.94648400   -0.35120600    1.28278700
| 72> H                  -4.72219800    0.06114700    2.99744800
| 73> H                  -6.88524500   -0.85588300   -0.58096000
| 74> H                  -2.12586800   -5.35662500   -4.17733100
| 75> H                  -6.86900700   -0.05323500    1.76357000
| 76> N                  -0.17654800    2.77809700   -0.02664800
| 77> C                   0.85731900    3.52236800   -0.65521300
| 78> C                  -1.28859700    3.43307200    0.56225100
| 79> C                   1.46649000    3.02592900   -1.80608100
| 80> C                   1.28606100    4.73255100   -0.11468100
| 81> C                  -1.85516300    2.92207900    1.72844200
| 82> C                  -1.83117100    4.57461600   -0.02474200
| 83> C                   2.50727300    3.72558000   -2.39474400
| 84> H                   1.12482800    2.09134900   -2.23419700
| 85> C                   2.31513300    5.43169000   -0.72110600
| 86> H                   0.82204500    5.11235400    0.78639000
| 87> C                  -2.95931500    3.54115700    2.29096900
| 88> H                  -1.42557100    2.04255400    2.19312000
| 89> C                  -2.92451700    5.19430400    0.55527800
| 90> H                  -1.39963600    4.96699800   -0.93645900
| 91> C                   2.93594500    4.93123000   -1.85846700
| 92> H                   2.97500800    3.32907900   -3.28717600
| 93> H                   2.64520400    6.36837200   -0.28997600
| 94> C                  -3.49782600    4.68107700    1.71163900
| 95> H                  -3.39081900    3.13471700    3.19710400
| 96> H                  -3.34016700    6.07894600    0.08956200
| 97> H                   3.74567900    5.47816800   -2.32338400
| 98> H                  -4.35599900    5.16686100    2.15721800
| 99> *
|100>
|101>
|102>                          ****END OF INPUT****

CARTESIAN COORDINATES (ANGSTROEM)
---------------------------------
  C     -0.098133    1.392422    0.013400
  C     -1.206379    0.608744   -0.293521
  C     -1.195243   -0.782074   -0.272362
  C      0.032117   -1.431797    0.009360
  C      1.182546   -0.680595    0.300534
  C      1.100950    0.719912    0.348935
  C      0.109058   -2.841916    0.001523
  C      2.208208    1.449176    0.836849
  F     -2.322430    1.221489   -0.696340
  N      0.181728   -3.998619    0.002797
  N      3.112135    2.032424    1.268052
  N      2.402574   -1.315017    0.582671
  C      3.547360   -0.935056   -0.159257
  C      2.472027   -2.261779    1.633121
  C      3.410160   -0.565354   -1.497603
  C      4.806667   -0.885232    0.437911
  C      1.675307   -2.100067    2.765878
  C      3.309547   -3.372776    1.537154
  C      4.513162   -0.135162   -2.217286
  H      2.437023   -0.616389   -1.971486
  C      5.904401   -0.471351   -0.296177
  H      4.917945   -1.152751    1.480642
  C      1.707639   -3.045239    3.778605
  H      1.029699   -1.233925    2.848586
  C      3.345533   -4.301742    2.561909
  H      3.918668   -3.510915    0.653224
  C      5.766372   -0.086834   -1.623955
  H      4.389427    0.152087   -3.254101
  H      6.874878   -0.430998    0.182450
  C      2.543256   -4.148630    3.685895
  H      1.082162   -2.907740    4.651675
  H      3.996374   -5.162500    2.472699
  H      6.627424    0.244340   -2.189516
  H      2.570916   -4.882277    4.480850
  N     -2.354616   -1.486220   -0.586040
  C     -2.315840   -2.518045   -1.559543
  C     -3.571379   -1.120069    0.041549
  C     -1.507019   -2.378886   -2.685212
  C     -3.065453   -3.679773   -1.386889
  C     -3.562161   -0.673982    1.362517
  C     -4.778102   -1.182201   -0.653828
  C     -1.435639   -3.402563   -3.616324
  H     -0.934213   -1.469682   -2.824655
  C     -2.998558   -4.689251   -2.330867
  H     -3.685745   -3.791067   -0.506809
  C     -4.743796   -0.284143    1.971316
  H     -2.628446   -0.637687    1.910997
  C     -5.954801   -0.806384   -0.029396
  H     -4.788653   -1.515330   -1.683377
  C     -2.180188   -4.560659   -3.446200
  H     -0.801790   -3.285706   -4.486226
  H     -3.579547   -5.591146   -2.184850
  C     -5.946484   -0.351206    1.282787
  H     -4.722198    0.061147    2.997448
  H     -6.885245   -0.855883   -0.580960
  H     -2.125868   -5.356625   -4.177331
  H     -6.869007   -0.053235    1.763570
  N     -0.176548    2.778097   -0.026648
  C      0.857319    3.522368   -0.655213
  C     -1.288597    3.433072    0.562251
  C      1.466490    3.025929   -1.806081
  C      1.286061    4.732551   -0.114681
  C     -1.855163    2.922079    1.728442
  C     -1.831171    4.574616   -0.024742
  C      2.507273    3.725580   -2.394744
  H      1.124828    2.091349   -2.234197
  C      2.315133    5.431690   -0.721106
  H      0.822045    5.112354    0.786390
  C     -2.959315    3.541157    2.290969
  H     -1.425571    2.042554    2.193120
  C     -2.924517    5.194304    0.555278
  H     -1.399636    4.966998   -0.936459
  C      2.935945    4.931230   -1.858467
  H      2.975008    3.329079   -3.287176
  H      2.645204    6.368372   -0.289976
  C     -3.497826    4.681077    1.711639
  H     -3.390819    3.134717    3.197104
  H     -3.340167    6.078946    0.089562
  H      3.745679    5.478168   -2.323384
  H     -4.355999    5.166861    2.157218

 Total Charge           Charge          ....    0
 Multiplicity           Mult            ....    1
 Number of Electrons    NEL             ....  338
 Basis Dimension        Dim             .... 1730

ORBITAL ENERGIES
----------------

  NO   OCC          E(Eh)            E(eV)
   0   2.0000     -25.763813      -701.0690
   1   2.0000     -15.186894      -413.2564
   2   2.0000     -15.184346      -413.1871
   3   2.0000     -15.180518      -413.0829
   4   2.0000     -15.150197      -412.2578
   5   2.0000     -15.150147      -412.2565
   6   2.0000     -10.978775      -298.7477
   7   2.0000     -10.970185      -298.5139
   8   2.0000     -10.969152      -298.4858
   9   2.0000     -10.968761      -298.4752
  10   2.0000     -10.930303      -297.4287
  11   2.0000     -10.930100      -297.4231
  12   2.0000     -10.927513      -297.3527
  13   2.0000     -10.927438      -297.3507
  14   2.0000     -10.921913      -297.2004
  15   2.0000     -10.921872      -297.1993
  16   2.0000     -10.921847      -297.1986
  17   2.0000     -10.921518      -297.1896
  18   2.0000     -10.920963      -297.1745
  19   2.0000     -10.920914      -297.1732
  20   2.0000     -10.871345      -295.8243
  21   2.0000     -10.870984      -295.8145
  22   2.0000     -10.870829      -295.8103
  23   2.0000     -10.870742      -295.8079
  24   2.0000     -10.870642      -295.8052
  25   2.0000     -10.870536      -295.8023
  26   2.0000     -10.870527      -295.8021
  27   2.0000     -10.870335      -295.7969
  28   2.0000     -10.870312      -295.7962
  29   2.0000     -10.870239      -295.7942
  30   2.0000     -10.869958      -295.7866
  31   2.0000     -10.869881      -295.7845
  32   2.0000     -10.869752      -295.7810
  33   2.0000     -10.869517      -295.7746
  34   2.0000     -10.869405      -295.7715
  35   2.0000     -10.869107      -295.7634
  36   2.0000     -10.868767      -295.7542
  37   2.0000     -10.868727      -295.7531
  38   2.0000     -10.868550      -295.7483
  39   2.0000     -10.868446      -295.7454
  40   2.0000     -10.868193      -295.7386
  41   2.0000     -10.867986      -295.7329
  42   2.0000     -10.867164      -295.7106
  43   2.0000     -10.867075      -295.7081
  44   2.0000     -10.865400      -295.6626
  45   2.0000     -10.864991      -295.6514
  46   2.0000     -10.864509      -295.6383
  47   2.0000     -10.863749      -295.6176
  48   2.0000     -10.863310      -295.6057
  49   2.0000     -10.863276      -295.6048
  50   2.0000      -1.553409       -42.2704
  51   2.0000      -1.254126       -34.1265
  52   2.0000      -1.244307       -33.8593
  53   2.0000      -1.240402       -33.7531
  54   2.0000      -1.167119       -31.7589
  55   2.0000      -1.166576       -31.7442
  56   2.0000      -1.128432       -30.7062
  57   2.0000      -1.102165       -29.9914
  58   2.0000      -1.101555       -29.9748
  59   2.0000      -1.100734       -29.9525
  60   2.0000      -1.090102       -29.6632
  61   2.0000      -1.088115       -29.6091
  62   2.0000      -1.074160       -29.2294
  63   2.0000      -1.030778       -28.0489
  64   2.0000      -1.014077       -27.5944
  65   2.0000      -0.982754       -26.7421
  66   2.0000      -0.981934       -26.7198
  67   2.0000      -0.981338       -26.7036
  68   2.0000      -0.972093       -26.4520
  69   2.0000      -0.971427       -26.4339
  70   2.0000      -0.969257       -26.3748
  71   2.0000      -0.966846       -26.3092
  72   2.0000      -0.966140       -26.2900
  73   2.0000      -0.965213       -26.2648
  74   2.0000      -0.948143       -25.8003
  75   2.0000      -0.938178       -25.5291
  76   2.0000      -0.936071       -25.4718
  77   2.0000      -0.879701       -23.9379
  78   2.0000      -0.865199       -23.5433
  79   2.0000      -0.820572       -22.3289
  80   2.0000      -0.819425       -22.2977
  81   2.0000      -0.816038       -22.2055
  82   2.0000      -0.814527       -22.1644
  83   2.0000      -0.803392       -21.8614
  84   2.0000      -0.799917       -21.7668
  85   2.0000      -0.794167       -21.6104
  86   2.0000      -0.792500       -21.5650
  87   2.0000      -0.791510       -21.5381
  88   2.0000      -0.789975       -21.4963
  89   2.0000      -0.778159       -21.1748
  90   2.0000      -0.761544       -20.7227
  91   2.0000      -0.756301       -20.5800
  92   2.0000      -0.741875       -20.1874
  93   2.0000      -0.719036       -19.5660
  94   2.0000      -0.712062       -19.3762
  95   2.0000      -0.707094       -19.2410
  96   2.0000      -0.698814       -19.0157
  97   2.0000      -0.698581       -19.0094
  98   2.0000      -0.697164       -18.9708
  99   2.0000      -0.682019       -18.5587
 100   2.0000      -0.670113       -18.2347
 101   2.0000      -0.665844       -18.1185
 102   2.0000      -0.658930       -17.9304
 103   2.0000      -0.650288       -17.6952
 104   2.0000      -0.643602       -17.5133
 105   2.0000      -0.639380       -17.3984
 106   2.0000      -0.638663       -17.3789
 107   2.0000      -0.637806       -17.3556
 108   2.0000      -0.620310       -16.8795
 109   2.0000      -0.617021       -16.7900
 110   2.0000      -0.613991       -16.7075
 111   2.0000      -0.607938       -16.5428
 112   2.0000      -0.607089       -16.5197
 113   2.0000      -0.601578       -16.3698
 114   2.0000      -0.594597       -16.1798
 115   2.0000      -0.591472       -16.0948
 116   2.0000      -0.588996       -16.0274
 117   2.0000      -0.586176       -15.9507
 118   2.0000      -0.584088       -15.8938
 119   2.0000      -0.580008       -15.7828
 120   2.0000      -0.576540       -15.6885
 121   2.0000      -0.574665       -15.6374
 122   2.0000      -0.571667       -15.5559
 123   2.0000      -0.570894       -15.5348
 124   2.0000      -0.569780       -15.5045
 125   2.0000      -0.568773       -15.4771
 126   2.0000      -0.568482       -15.4692
 127   2.0000      -0.557430       -15.1684
 128   2.0000      -0.553611       -15.0645
 129   2.0000      -0.546908       -14.8821
 130   2.0000      -0.537214       -14.6183
 131   2.0000      -0.536076       -14.5874
 132   2.0000      -0.532170       -14.4811
 133   2.0000      -0.527922       -14.3655
 134   2.0000      -0.519656       -14.1406
 135   2.0000      -0.514078       -13.9888
 136   2.0000      -0.508779       -13.8446
 137   2.0000      -0.504581       -13.7304
 138   2.0000      -0.503234       -13.6937
 139   2.0000      -0.502751       -13.6806
 140   2.0000      -0.494273       -13.4499
 141   2.0000      -0.493337       -13.4244
 142   2.0000      -0.492837       -13.4108
 143   2.0000      -0.487321       -13.2607
 144   2.0000      -0.484636       -13.1876
 145   2.0000      -0.483369       -13.1531
 146   2.0000      -0.481433       -13.1004
 147   2.0000      -0.480109       -13.0644
 148   2.0000      -0.478335       -13.0162
 149   2.0000      -0.477462       -12.9924
 150   2.0000      -0.474249       -12.9050
 151   2.0000      -0.472290       -12.8517
 152   2.0000      -0.458681       -12.4813
 153   2.0000      -0.455006       -12.3813
 154   2.0000      -0.439554       -11.9609
 155   2.0000      -0.383978       -10.4486
 156   2.0000      -0.382524       -10.4090
 157   2.0000      -0.367609       -10.0031
 158   2.0000      -0.363966        -9.9040
 159   2.0000      -0.362714        -9.8699
 160   2.0000      -0.361470        -9.8361
 161   2.0000      -0.359571        -9.7844
 162   2.0000      -0.358782        -9.7629
 163   2.0000      -0.356231        -9.6935
 164   2.0000      -0.352886        -9.6025
 165   2.0000      -0.351184        -9.5562
 166   2.0000      -0.302506        -8.2316
 167   2.0000      -0.296372        -8.0647
 168   2.0000      -0.292379        -7.9561
 169   0.0000      -0.001229        -0.0334
 170   0.0000       0.022336         0.6078
 171   0.0000       0.058871         1.6020
 172   0.0000       0.059786         1.6268
 173   0.0000       0.063688         1.7330

MULLIKEN ATOMIC CHARGES
-----------------------
   0 C :   -0.090840
   1 C :    0.389022
   2 C :   -0.191203
   3 C :    0.332191
   4 C :   -0.278662
   5 C :    0.298758
   6 C :   -0.090896
   7 C :   -0.109018
   8 F :   -0.239183
   9 N :   -0.199556
  10 N :   -0.199620
  11 N :    0.111668
  12 C :    0.148553
  13 C :    0.128914
  14 C :   -0.289798
  15 C :   -0.326306
  16 C :   -0.275501
  17 C :   -0.329412
  18 C :   -0.180298
  19 H :    0.203838
  20 C :   -0.126780
  21 H :    0.202962
  22 C :   -0.164794
  23 H :    0.200826
  24 C :   -0.132794
  25 H :    0.203100
  26 C :   -0.196722
  27 H :    0.188188
  28 H :    0.187213
  29 C :   -0.198493
  30 H :    0.186716
  31 H :    0.186813
  32 H :    0.186940
  33 H :    0.185859
  34 N :    0.116674
  35 C :    0.065463
  36 C :    0.171549
  37 C :   -0.255319
  38 C :   -0.283762
  39 C :   -0.289670
  40 C :   -0.317858
  41 C :   -0.170020
  42 H :    0.202647
  43 C :   -0.148801
  44 H :    0.204057
  45 C :   -0.179223
  46 H :    0.206357
  47 C :   -0.143803
  48 H :    0.205193
  49 C :   -0.184107
  50 H :    0.187083
  51 H :    0.187978
  52 C :   -0.193584
  53 H :    0.189651
  54 H :    0.187251
  55 H :    0.186793
  56 H :    0.187042
  57 N :    0.120330
  58 C :    0.071443
  59 C :    0.157680
  60 C :   -0.255592
  61 C :   -0.282517
  62 C :   -0.280941
  63 C :   -0.318358
  64 C :   -0.173026
  65 H :    0.201052
  66 C :   -0.145182
  67 H :    0.204106
  68 C :   -0.172152
  69 H :    0.206439
  70 C :   -0.139823
  71 H :    0.205416
  72 C :   -0.185293
  73 H :    0.189595
  74 H :    0.187757
  75 C :   -0.195713
  76 H :    0.189465
  77 H :    0.187625
  78 H :    0.187493
  79 H :    0.186913
Sum of atomic charges:    0.0000000

LOEWDIN ATOMIC CHARGES
----------------------
   0 C :   -0.083280
   1 C :   -0.189309
   2 C :   -0.081110
   3 C :   -0.091604
   4 C :   -0.064653
   5 C :   -0.092139
   6 C :   -0.124752
   7 C :   -0.124780
   8 F :    0.207407
   9 N :    0.015130
  10 N :    0.014980
  11 N :    0.284180
  12 C :   -0.173814
  13 C :   -0.175795
  14 C :   -0.117573
  15 C :   -0.117449
  16 C :   -0.116486
  17 C :   -0.116907
  18 C :   -0.144217
  19 H :    0.166391
  20 C :   -0.143423
  21 H :    0.165939
  22 C :   -0.143485
  23 H :    0.166649
  24 C :   -0.143280
  25 H :    0.165724
  26 C :   -0.160120
  27 H :    0.159394
  28 H :    0.159246
  29 C :   -0.159078
  30 H :    0.159133
  31 H :    0.159145
  32 H :    0.155811
  33 H :    0.155760
  34 N :    0.287882
  35 C :   -0.176026
  36 C :   -0.170771
  37 C :   -0.113086
  38 C :   -0.113666
  39 C :   -0.118338
  40 C :   -0.117668
  41 C :   -0.142563
  42 H :    0.166962
  43 C :   -0.142041
  44 H :    0.166215
  45 C :   -0.144482
  46 H :    0.166813
  47 C :   -0.142757
  48 H :    0.165739
  49 C :   -0.155132
  50 H :    0.159356
  51 H :    0.159403
  52 C :   -0.159519
  53 H :    0.159422
  54 H :    0.159266
  55 H :    0.156386
  56 H :    0.155946
  57 N :    0.290988
  58 C :   -0.173917
  59 C :   -0.171388
  60 C :   -0.113183
  61 C :   -0.113264
  62 C :   -0.116973
  63 C :   -0.116040
  64 C :   -0.142663
  65 H :    0.166931
  66 C :   -0.141436
  67 H :    0.166527
  68 C :   -0.144092
  69 H :    0.166922
  70 C :   -0.142350
  71 H :    0.165905
  72 C :   -0.154357
  73 H :    0.159533
  74 H :    0.159569
  75 C :   -0.157281
  76 H :    0.159380
  77 H :    0.159350
  78 H :    0.156618
  79 H :    0.156240

  Mayer bond orders larger than 0.100000
B(  0-C ,  1-C ) :   1.4238 B(  0-C ,  5-C ) :   1.2098 B(  0-C , 57-N ) :   1.0997
B(  1-C ,  2-C ) :   1.3850 B(  1-C ,  8-F ) :   1.0089 B(  2-C ,  3-C ) :   1.2365
B(  2-C , 34-N ) :   1.0453 B(  3-C ,  4-C ) :   1.4177 B(  3-C ,  6-C ) :   0.9282
B(  4-C ,  5-C ) :   1.3548 B(  4-C , 11-N ) :   1.0496 B(  5-C ,  7-C ) :   0.9263
B(  6-C ,  9-N ) :   2.9801 B(  7-C , 10-N ) :   2.9795 B( 11-N , 12-C ) :   0.9689
B( 11-N , 13-C ) :   0.9635 B( 12-C , 14-C ) :   1.4006 B( 12-C , 15-C ) :   1.3842
B( 13-C , 16-C ) :   1.4114 B( 13-C , 17-C ) :   1.3856 B( 14-C , 18-C ) :   1.4210
B( 14-C , 19-H ) :   0.9613 B( 15-C , 20-C ) :   1.4355 B( 15-C , 21-H ) :   0.9739
B( 16-C , 22-C ) :   1.4233 B( 16-C , 23-H ) :   0.9629 B( 17-C , 24-C ) :   1.4417
B( 17-C , 25-H ) :   0.9720 B( 18-C , 26-C ) :   1.3956 B( 18-C , 27-H ) :   0.9772
B( 20-C , 26-C ) :   1.3853 B( 20-C , 28-H ) :   0.9725 B( 22-C , 29-C ) :   1.4004
B( 22-C , 30-H ) :   0.9727 B( 24-C , 29-C ) :   1.3821 B( 24-C , 31-H ) :   0.9722
B( 26-C , 32-H ) :   0.9755 B( 29-C , 33-H ) :   0.9765 B( 34-N , 35-C ) :   0.9502
B( 34-N , 36-C ) :   0.9785 B( 35-C , 37-C ) :   1.4196 B( 35-C , 38-C ) :   1.3946
B( 36-C , 39-C ) :   1.4067 B( 36-C , 40-C ) :   1.3882 B( 37-C , 41-C ) :   1.4246
B( 37-C , 42-H ) :   0.9629 B( 38-C , 43-C ) :   1.4420 B( 38-C , 44-H ) :   0.9681
B( 39-C , 45-C ) :   1.4257 B( 39-C , 46-H ) :   0.9528 B( 40-C , 47-C ) :   1.4400
B( 40-C , 48-H ) :   0.9643 B( 41-C , 49-C ) :   1.3996 B( 41-C , 50-H ) :   0.9732
B( 43-C , 49-C ) :   1.3842 B( 43-C , 51-H ) :   0.9711 B( 45-C , 52-C ) :   1.3947
B( 45-C , 53-H ) :   0.9754 B( 47-C , 52-C ) :   1.3884 B( 47-C , 54-H ) :   0.9727
B( 49-C , 55-H ) :   0.9754 B( 52-C , 56-H ) :   0.9751 B( 57-N , 58-C ) :   0.9515
B( 57-N , 59-C ) :   0.9700 B( 58-C , 60-C ) :   1.4116 B( 58-C , 61-C ) :   1.4017
B( 59-C , 62-C ) :   1.4103 B( 59-C , 63-C ) :   1.3870 B( 60-C , 64-C ) :   1.4273
B( 60-C , 65-H ) :   0.9632 B( 61-C , 66-C ) :   1.4372 B( 61-C , 67-H ) :   0.9688
B( 62-C , 68-C ) :   1.4321 B( 62-C , 69-H ) :   0.9486 B( 63-C , 70-C ) :   1.4404
B( 63-C , 71-H ) :   0.9644 B( 64-C , 72-C ) :   1.3988 B( 64-C , 73-H ) :   0.9708
B( 66-C , 72-C ) :   1.3859 B( 66-C , 74-H ) :   0.9722 B( 68-C , 75-C ) :   1.3979
B( 68-C , 76-H ) :   0.9729 B( 70-C , 75-C ) :   1.3878 B( 70-C , 77-H ) :   0.9722
B( 72-C , 78-H ) :   0.9746 B( 75-C , 79-H ) :   0.9750

MP2 TOTAL ENERGY:    -2067.444084522 Eh

-----------------------------------------------------------------------------
         ABSORPTION SPECTRUM VIA TRANSITION ELECTRIC DIPOLE MOMENTS
-----------------------------------------------------------------------------
State   Energy    Wavelength  fosc         T2        TX        TY        TZ
        (cm-1)      (nm)                 (au**2)    (au)      (au)      (au)
-----------------------------------------------------------------------------
   1   24670.2    405.3   0.299718269   3.99959  -0.39983  -1.95858  -0.06068
   2   26795.0    373.2   0.191962916   2.35852  -1.46891   0.10899  -0.43468
   3   28178.6    354.9   0.279948964   3.27066   1.70639  -0.32575   0.50277
   4   27946.0    357.8   0.088503208   1.04259  -0.04658   1.01999   0.00652
   5   31092.5    321.6   0.333602647   3.53223   0.71448   1.70908   0.31750
   6   34676.6    288.4   0.037279524   0.35392  -0.34041  -0.44069   0.20937
   7   37302.3    268.1   0.166426503   1.46880   0.32788   0.83032  -0.81968
   8   38792.6    257.8   0.058880372   0.49969  -0.11513  -0.60498  -0.34703
   9   38845.9    257.4   0.477426591   4.04611   1.56078  -0.48607  -1.17209
  10   37279.1    268.2   0.047196879   0.41680   0.13960   0.07165  -0.62624
  11   37585.7    266.1   0.142510312   1.24824  -0.62433  -0.91384   0.15283
  12   38925.3    256.9   0.039420812   0.33340   0.51412  -0.25780  -0.05118
  13   38818.7    257.6   0.018867434   0.16001  -0.21095   0.23160  -0.24874
  14   39333.8    254.2   0.013399645   0.11215   0.20981   0.26101  -0.00253
  15   37479.3    266.8   0.033425847   0.29361   0.42966  -0.08998  -0.31766
  16   47894.1    208.8   0.022232088   0.15282   0.32518  -0.19838   0.08788
  17   48238.8    207.3   0.015876829   0.10835  -0.03069   0.32718   0.01908
  18   47381.1    211.1   0.182111318   1.26534  -0.46783  -1.02056  -0.07025
  19   43988.9    227.3   0.094004304   0.70353   0.08321   0.82203  -0.14448
  20   47112.5    212.3   0.009429354   0.06589  -0.13520  -0.04692  -0.21310
  21   45686.0    218.9   0.023109309   0.16653   0.23488  -0.13424   0.30551
  22   47076.8    212.4   0.061368940   0.42916  -0.47051   0.03607   0.45440
  23   46142.6    216.7   0.026559686   0.18949  -0.20073  -0.37491  -0.09299
  24   46130.6    216.8   0.087398968   0.62372   0.52111  -0.47903  -0.35029
  25   47855.0    209.0   0.338684273   2.32993   0.91894   1.13964  -0.43208
  26   46713.3    214.1   0.302854479   2.13437   0.65891  -0.27643  -1.27428
  27   46652.4    214.4   0.114654323   0.80908  -0.13203  -0.69001  -0.56173
  28   47397.5    211.0   0.748358772   5.19793   1.28981   0.73402  -1.73076
  29   46745.4    213.9   0.353633019   2.49052  -0.14654  -0.25751  -1.55008
  30   47131.8    212.2   0.265965942   1.85775   0.80314  -0.56574  -0.94481
  31   47797.6    209.2   0.127430737   0.87769  -0.43104  -0.83099   0.03678
  32   49209.8    203.2   1.120935919   7.49902   2.33558  -1.10735  -0.90435
  33   47313.6    211.4   0.301970593   2.10114  -1.07014   0.73193  -0.64824
  34   47052.9    212.5   0.235279463   1.64616  -0.85897   0.71428  -0.63098
  35   47716.5    209.6   0.103597625   0.71475   0.82140  -0.14963  -0.13291
  36   48659.0    205.5   0.049317616   0.33367   0.49433  -0.21132  -0.21130
  37   48320.2    207.0   0.054689110   0.37260   0.26183  -0.38310   0.39659
  38   48156.7    207.7   0.047267138   0.32313   0.45054   0.08586   0.33582
  39   47759.1    209.4   0.092284161   0.63613   0.52206   0.17632   0.57662
  40   47721.1    209.6   0.181706291   1.25353  -1.03985   0.41223  -0.04816
  41   48105.2    207.9   0.240523529   1.64604  -0.65981  -0.90510   0.62569
  42   47391.6    211.0   0.038900487   0.27023   0.11036   0.34448  -0.37334
  43   48541.6    206.0   0.218635636   1.48280   0.53879   1.09142   0.03601
  44   48589.5    205.8   0.024215133   0.16407   0.10638  -0.12096   0.37164
  45   49498.9    202.0   0.167037550   1.11095  -0.17012  -0.84272  -0.60977
  46   48767.4    205.1   0.273307707   1.84501   0.60109   1.21807   0.00191
  47   48902.5    204.5   0.056555858   0.38073   0.41631   0.40437  -0.20955
  48   51029.9    196.0   0.084905835   0.54776  -0.66954   0.31285  -0.04004
  49   51518.6    194.1   0.091650983   0.58566  -0.27936   0.68848  -0.18336
  50   51882.3    192.7   0.037925278   0.24065   0.47741  -0.05723  -0.09722
  51   50728.6    197.1   0.160559890   1.04198  -0.88849  -0.43485  -0.25194
  52   48380.6    206.7   0.009530563   0.06485  -0.24749   0.05999   0.00118
  53   50064.3    199.7   0.040787606   0.26821  -0.18289  -0.11392   0.47094
  54   48811.8    204.9   0.059644223   0.40227   0.35358   0.51475   0.11084
  55   49200.5    203.3   0.020491105   0.13711  -0.04252   0.32961  -0.16328
  56   49503.8    202.0   0.025673243   0.17073  -0.31398   0.22698   0.14364
  57   50158.7    199.4   0.002638625   0.01732   0.07518  -0.00265   0.10798
  58   49421.4    202.3   0.006244642   0.04160   0.11016  -0.15191   0.07990
  59   50360.5    198.6   0.017757051   0.11608   0.05498  -0.24183   0.23362
  60   49888.3    200.4   0.017281911   0.11404  -0.01351   0.24143  -0.23574

FINAL SINGLE POINT ENERGY     -2063.144313966513

DIPOLE MOMENT
-------------
                                X             Y             Z
Electronic contribution:     -2.09925       0.50734      -0.34770
Nuclear contribution   :      0.52582       0.54399      -0.36258
                        -----------------------------------------
Total Dipole Moment    :     -1.57343       1.05133      -0.71028
                        -----------------------------------------
Magnitude (a.u.)       :      2.02125
Magnitude (Debye)      :      5.13762

Rotational constants in cm-1:     0.002315     0.002172     0.001481
Rotational constants in MHz :    69.390748    65.102508    44.409379

                             ****ORCA TERMINATED NORMALLY****
TOTAL RUN TIME: 4 days 11 hours 24 minutes 36 seconds 477 msec
