 Gaussian 09, Revision E.01,
 Gaussian 09:  ES64L-G09RevE.01 30-Nov-2015

 ----------------------------------------------------------------------
 #p m06/def2TZVP td=(NStates=50) int=ultrafine scrf=(SMD,solvent=Aceton
 itrile)
 ----------------------------------------------------------------------

 -----
 Title
 -----
 Symbolic Z-matrix:
 Charge =  0 Multiplicity = 1

                         Standard orientation:
 ---------------------------------------------------------------------
 Center     Atomic      Atomic             Coordinates (Angstroms)
 Number     Number       Type             X           Y           Z
 ---------------------------------------------------------------------
      1          6           0       -0.171683    1.380230   -0.000820
      2          6           0       -1.239876    0.543392   -0.306002
      3          6           0       -1.162402   -0.843642   -0.266672
      4          6           0        0.089349   -1.423946    0.028395
      5          6           0        1.195780   -0.620627    0.313644
      6          6           0        1.050356    0.768203    0.343619
      7          6           0        0.255875   -2.832699    0.024985
      8          6           0        2.138573    1.547321    0.814721
      9          9           0       -2.373350    1.095274   -0.718997
     10          7           0        0.411612   -3.974169    0.026202
     11          7           0        3.024653    2.157731    1.226642
     12          7           0        2.443939   -1.199215    0.596704
     13          6           0        3.536429   -0.874960   -0.239933
     14          6           0        2.594486   -1.986552    1.764206
     15          6           0        3.326299   -0.681206   -1.602628
     16          6           0        4.815284   -0.705885    0.283718
     17          6           0        1.935592   -1.625799    2.934033
     18          6           0        3.378690   -3.136165    1.745000
     19          6           0        4.377772   -0.308512   -2.422444
     20          1           0        2.335504   -0.825811   -2.022259
     21          6           0        5.861913   -0.351563   -0.547053
     22          1           0        4.982743   -0.833498    1.347148
     23          6           0        2.053784   -2.412542    4.068035
     24          1           0        1.331801   -0.724436    2.956583
     25          6           0        3.505267   -3.904923    2.886336
     26          1           0        3.876466   -3.430081    0.827527
     27          6           0        5.651006   -0.144649   -1.902300
     28          1           0        4.197804   -0.158052   -3.481004
     29          1           0        6.851404   -0.217864   -0.124507
     30          6           0        2.841329   -3.551007    4.052501
     31          1           0        1.533704   -2.121741    4.973682
     32          1           0        4.116214   -4.800130    2.859340
     33          1           0        6.473661    0.141709   -2.546775
     34          1           0        2.937286   -4.161933    4.942360
     35          7           0       -2.281723   -1.606773   -0.576829
     36          6           0       -2.193216   -2.633076   -1.552927
     37          6           0       -3.510494   -1.320694    0.069905
     38          6           0       -1.456558   -2.423477   -2.712392
     39          6           0       -2.820841   -3.856300   -1.345601
     40          6           0       -3.517870   -0.976649    1.417163
     41          6           0       -4.708917   -1.366367   -0.634405
     42          6           0       -1.328974   -3.440020   -3.643759
     43          1           0       -0.979193   -1.463493   -2.880783
     44          6           0       -2.703155   -4.859139   -2.289389
     45          1           0       -3.385258   -4.022836   -0.435044
     46          6           0       -4.711590   -0.670261    2.047618
     47          1           0       -2.585759   -0.954817    1.972457
     48          6           0       -5.898036   -1.076671    0.008768
     49          1           0       -4.705126   -1.621415   -1.687981
     50          6           0       -1.951588   -4.659971   -3.438559
     51          1           0       -0.747597   -3.269230   -4.542587
     52          1           0       -3.190409   -5.812084   -2.117141
     53          6           0       -5.906917   -0.722641    1.349809
     54          1           0       -4.704742   -0.401954    3.098008
     55          1           0       -6.826611   -1.113707   -0.549528
     56          1           0       -1.854456   -5.452488   -4.171174
     57          1           0       -6.841138   -0.490206    1.847216
     58          7           0       -0.311601    2.757340   -0.062199
     59          6           0        0.682252    3.535703   -0.713479
     60          6           0       -1.446401    3.375136    0.524759
     61          6           0        1.258302    3.075580   -1.891748
     62          6           0        1.103884    4.740873   -0.164009
     63          6           0       -1.926055    2.919126    1.746696
     64          6           0       -2.089955    4.425089   -0.120292
     65          6           0        2.267726    3.803557   -2.498074
     66          1           0        0.920927    2.141167   -2.328401
     67          6           0        2.098725    5.470953   -0.787308
     68          1           0        0.663420    5.093056    0.761884
     69          6           0       -3.050190    3.499369    2.308766
     70          1           0       -1.413753    2.110591    2.257988
     71          6           0       -3.200584    5.011209    0.458208
     72          1           0       -1.722443    4.774393   -1.078522
     73          6           0        2.691247    5.003687   -1.951246
     74          1           0        2.716784    3.431563   -3.412033
     75          1           0        2.426216    6.406453   -0.348368
     76          6           0       -3.690009    4.549300    1.671015
     77          1           0       -3.418752    3.132906    3.260227
     78          1           0       -3.697333    5.828147   -0.052668
     79          1           0        3.478451    5.574216   -2.429733
     80          1           0       -4.565489    5.006989    2.116268
 ---------------------------------------------------------------------

 SCF Done:  E(RM06) =  -2067.57894535     A.U. after   18 cycles

 Excitation energies and oscillator strengths:

 Excited State   1:      Singlet-A      2.9342 eV  422.56 nm  f=0.1620  <S**2>=0.000
     168 -> 171       -0.10730
     169 -> 170        0.68166
 This state for optimization and/or second-order correction.
 Total Energy, E(TD-HF/TD-KS) =  -2067.47111722
 Copying the excited state density for this state as the 1-particle RhoCI density.

 Excited State   2:      Singlet-A      3.0783 eV  402.77 nm  f=0.2316  <S**2>=0.000
     167 -> 170       -0.21231
     168 -> 170        0.65912

 Excited State   3:      Singlet-A      3.1643 eV  391.82 nm  f=0.1397  <S**2>=0.000
     167 -> 170        0.66406
     168 -> 170        0.22137

 Excited State   4:      Singlet-A      3.3169 eV  373.79 nm  f=0.1089  <S**2>=0.000
     167 -> 171       -0.25715
     169 -> 171        0.64407

 Excited State   5:      Singlet-A      3.5749 eV  346.82 nm  f=0.2379  <S**2>=0.000
     168 -> 171        0.68031
     169 -> 170        0.10363

 Excited State   6:      Singlet-A      3.6441 eV  340.23 nm  f=0.0762  <S**2>=0.000
     167 -> 171        0.64203
     169 -> 171        0.25787

 Excited State   7:      Singlet-A      4.2763 eV  289.93 nm  f=0.1602  <S**2>=0.000
     167 -> 173       -0.23862
     169 -> 173        0.59466
     169 -> 175       -0.14549
     169 -> 176       -0.11252

 Excited State   8:      Singlet-A      4.3334 eV  286.11 nm  f=0.0692  <S**2>=0.000
     167 -> 172        0.25895
     167 -> 174        0.24104
     167 -> 175       -0.11943
     167 -> 177       -0.11683
     168 -> 172        0.23784
     169 -> 172        0.38875
     169 -> 174        0.25955
     169 -> 177        0.12912

 Excited State   9:      Singlet-A      4.3440 eV  285.42 nm  f=0.1580  <S**2>=0.000
     167 -> 172       -0.10076
     168 -> 172        0.44317
     168 -> 174       -0.38965
     168 -> 175       -0.10992
     169 -> 172       -0.20249
     169 -> 177       -0.13343

 Excited State  10:      Singlet-A      4.3739 eV  283.46 nm  f=0.1459  <S**2>=0.000
     167 -> 172       -0.22634
     167 -> 174       -0.15540
     167 -> 177       -0.21436
     168 -> 174       -0.17392
     169 -> 173        0.15172
     169 -> 175        0.31534
     169 -> 176        0.24486
     169 -> 177        0.32486

 Excited State  11:      Singlet-A      4.4149 eV  280.83 nm  f=0.0394  <S**2>=0.000
     162 -> 170       -0.18388
     165 -> 170       -0.15688
     167 -> 175       -0.12890
     168 -> 172        0.15974
     168 -> 175        0.40658
     168 -> 176       -0.35622

 Excited State  12:      Singlet-A      4.4261 eV  280.12 nm  f=0.0411  <S**2>=0.000
     161 -> 170        0.13826
     165 -> 170       -0.16642
     166 -> 170       -0.10779
     167 -> 172       -0.10944
     167 -> 173       -0.20494
     167 -> 174        0.10171
     167 -> 175       -0.18257
     167 -> 176       -0.24145
     167 -> 177        0.16696
     168 -> 175       -0.12662
     169 -> 172       -0.11836
     169 -> 174        0.11751
     169 -> 175       -0.10757
     169 -> 176       -0.15411
     169 -> 177        0.30018

 Excited State  13:      Singlet-A      4.4736 eV  277.15 nm  f=0.0319  <S**2>=0.000
     165 -> 170       -0.43355
     166 -> 170        0.46784
     168 -> 176        0.10145

 Excited State  14:      Singlet-A      4.5000 eV  275.52 nm  f=0.0375  <S**2>=0.000
     164 -> 170        0.34318
     165 -> 170        0.41874
     166 -> 170        0.34866

 Excited State  15:      Singlet-A      4.5570 eV  272.07 nm  f=0.0331  <S**2>=0.000
     161 -> 170       -0.10053
     164 -> 170        0.55835
     165 -> 170       -0.17664
     166 -> 170       -0.31838

 Excited State  16:      Singlet-A      4.6136 eV  268.74 nm  f=0.1192  <S**2>=0.000
     159 -> 170        0.19697
     161 -> 170       -0.10215
     162 -> 170        0.50433
     163 -> 170        0.28350
     169 -> 172       -0.21073

 Excited State  17:      Singlet-A      4.6210 eV  268.31 nm  f=0.0145  <S**2>=0.000
     158 -> 170        0.10948
     161 -> 170        0.44459
     162 -> 170        0.29022
     163 -> 170       -0.34032

 Excited State  18:      Singlet-A      4.6402 eV  267.20 nm  f=0.0988  <S**2>=0.000
     162 -> 170        0.14289
     167 -> 172       -0.17143
     167 -> 173       -0.13925
     168 -> 173       -0.12074
     168 -> 174       -0.11373
     169 -> 172        0.40140
     169 -> 174       -0.31847
     169 -> 175       -0.10345
     169 -> 176       -0.15007
     169 -> 179        0.10089

 Excited State  19:      Singlet-A      4.6599 eV  266.07 nm  f=0.0147  <S**2>=0.000
     158 -> 170        0.10643
     160 -> 170        0.17739
     161 -> 170        0.41488
     162 -> 170       -0.14652
     163 -> 170        0.27504
     167 -> 172        0.15286
     168 -> 174        0.11245
     169 -> 172       -0.14518
     169 -> 179        0.16000
     169 -> 181        0.10772

 Excited State  20:      Singlet-A      4.6897 eV  264.38 nm  f=0.0147  <S**2>=0.000
     161 -> 170        0.14221
     162 -> 170       -0.12542
     163 -> 170        0.39991
     166 -> 171       -0.12502
     167 -> 172       -0.20873
     168 -> 172       -0.15341
     168 -> 173        0.16200
     168 -> 174       -0.14602
     169 -> 172        0.12257
     169 -> 174        0.23739
     169 -> 178        0.10434
     169 -> 179       -0.12319

 Excited State  21:      Singlet-A      4.7204 eV  262.66 nm  f=0.0134  <S**2>=0.000
     159 -> 170        0.12992
     160 -> 170        0.53512
     161 -> 170       -0.11397
     163 -> 170       -0.12926
     166 -> 171        0.14135
     167 -> 173        0.11134
     168 -> 173        0.20147
     168 -> 174       -0.10221

 Excited State  22:      Singlet-A      4.7350 eV  261.85 nm  f=0.0207  <S**2>=0.000
     159 -> 170        0.58810
     162 -> 170       -0.17298
     168 -> 173       -0.16850
     169 -> 175        0.14898
     169 -> 177       -0.10778

 Excited State  23:      Singlet-A      4.7381 eV  261.67 nm  f=0.0009  <S**2>=0.000
     159 -> 170        0.11009
     167 -> 173        0.11520
     168 -> 172        0.15188
     168 -> 173        0.50164
     168 -> 175       -0.11811
     169 -> 174       -0.29469
     169 -> 177        0.12765

 Excited State  24:      Singlet-A      4.7419 eV  261.46 nm  f=0.0055  <S**2>=0.000
     159 -> 170       -0.18997
     160 -> 170        0.36385
     166 -> 171       -0.17101
     167 -> 179        0.12569
     168 -> 172        0.13531
     168 -> 173       -0.14825
     168 -> 174        0.13416
     169 -> 174       -0.17906
     169 -> 178        0.14748
     169 -> 179       -0.25186
     169 -> 181       -0.14958

 Excited State  25:      Singlet-A      4.7779 eV  259.49 nm  f=0.0015  <S**2>=0.000
     159 -> 170       -0.15828
     165 -> 170       -0.10393
     167 -> 178       -0.18525
     168 -> 176       -0.14893
     168 -> 179        0.11097
     168 -> 181       -0.10189
     169 -> 175        0.38411
     169 -> 176       -0.32809
     169 -> 177       -0.10089
     169 -> 178       -0.15207

 Excited State  26:      Singlet-A      4.8093 eV  257.80 nm  f=0.0002  <S**2>=0.000
     157 -> 170       -0.14913
     164 -> 170       -0.11812
     165 -> 171       -0.12150
     167 -> 172        0.13151
     167 -> 173        0.14455
     167 -> 174        0.12063
     167 -> 175       -0.11360
     168 -> 172       -0.14187
     168 -> 174       -0.11004
     168 -> 176       -0.16321
     168 -> 177        0.20309
     168 -> 178        0.26405
     168 -> 179        0.19491
     168 -> 181       -0.10987
     169 -> 174       -0.22956
     169 -> 176        0.11499

 Excited State  27:      Singlet-A      4.8109 eV  257.71 nm  f=0.0072  <S**2>=0.000
     158 -> 170        0.65005
     161 -> 170       -0.14555

 Excited State  28:      Singlet-A      4.8254 eV  256.94 nm  f=0.0025  <S**2>=0.000
     167 -> 172       -0.23598
     167 -> 173        0.33419
     167 -> 177        0.15728
     167 -> 178        0.11715
     168 -> 172        0.17743
     168 -> 173       -0.14542
     168 -> 174        0.26949
     169 -> 173        0.18949
     169 -> 175        0.11986
     169 -> 176       -0.16291
     169 -> 178        0.14038

 Excited State  29:      Singlet-A      4.8363 eV  256.36 nm  f=0.0069  <S**2>=0.000
     167 -> 172       -0.23040
     167 -> 173       -0.24457
     168 -> 172        0.18641
     168 -> 173        0.13219
     168 -> 174        0.31224
     168 -> 175       -0.15796
     168 -> 178        0.13926
     168 -> 179        0.15338
     169 -> 176        0.18403
     169 -> 177       -0.14083
     169 -> 180       -0.10586

 Excited State  30:      Singlet-A      4.8580 eV  255.22 nm  f=0.0112  <S**2>=0.000
     167 -> 172       -0.10087
     167 -> 173        0.28942
     167 -> 176       -0.14542
     167 -> 178       -0.21115
     167 -> 181       -0.16146
     168 -> 175       -0.17165
     168 -> 176       -0.11236
     169 -> 173        0.12294
     169 -> 175       -0.22809
     169 -> 176        0.14714
     169 -> 178       -0.24711
     169 -> 181       -0.12507

 Excited State  31:      Singlet-A      4.8766 eV  254.25 nm  f=0.0045  <S**2>=0.000
     166 -> 171        0.10104
     167 -> 173       -0.13992
     167 -> 174        0.26175
     167 -> 175       -0.16342
     167 -> 177        0.13177
     168 -> 175       -0.11216
     168 -> 176       -0.16473
     168 -> 178       -0.15045
     168 -> 179       -0.16646
     168 -> 181        0.10737
     169 -> 174       -0.10423
     169 -> 175        0.23013
     169 -> 176        0.19186
     169 -> 177       -0.25402

 Excited State  32:      Singlet-A      4.9043 eV  252.81 nm  f=0.0799  <S**2>=0.000
     156 -> 171        0.17528
     157 -> 170        0.52406
     162 -> 171       -0.11756
     163 -> 171        0.13123
     165 -> 171        0.15564
     167 -> 177        0.10743
     168 -> 177        0.12176
     168 -> 180        0.11114

 Excited State  33:      Singlet-A      4.9281 eV  251.59 nm  f=0.0010  <S**2>=0.000
     166 -> 171       -0.34139
     167 -> 172       -0.20136
     167 -> 174        0.37082
     167 -> 176        0.11885
     167 -> 177       -0.20866
     168 -> 177       -0.23282
     169 -> 176       -0.10593

 Excited State  34:      Singlet-A      4.9357 eV  251.20 nm  f=0.0086  <S**2>=0.000
     166 -> 171       -0.18774
     167 -> 174        0.19946
     167 -> 177        0.15273
     168 -> 175        0.31296
     168 -> 176        0.32783
     168 -> 177        0.34693
     169 -> 176        0.13500

 Excited State  35:      Singlet-A      4.9544 eV  250.25 nm  f=0.0028  <S**2>=0.000
     165 -> 171        0.13781
     166 -> 171        0.40260
     167 -> 172       -0.10540
     167 -> 174        0.27450
     168 -> 175        0.14539
     168 -> 176        0.14649
     168 -> 177       -0.15064
     169 -> 179       -0.21626
     169 -> 181       -0.13817

 Excited State  36:      Singlet-A      4.9746 eV  249.24 nm  f=0.0204  <S**2>=0.000
     167 -> 174        0.13710
     167 -> 175        0.40915
     167 -> 176        0.18894
     168 -> 175       -0.10812
     168 -> 176       -0.24700
     168 -> 177        0.19209
     168 -> 179       -0.11005
     169 -> 177        0.22317
     169 -> 180       -0.12110
     169 -> 181       -0.11624

 Excited State  37:      Singlet-A      4.9985 eV  248.04 nm  f=0.0241  <S**2>=0.000
     157 -> 170       -0.16034
     160 -> 171        0.22049
     162 -> 171       -0.28279
     163 -> 171        0.38658
     167 -> 177        0.20909
     168 -> 177       -0.25618
     169 -> 176        0.12935

 Excited State  38:      Singlet-A      5.0161 eV  247.17 nm  f=0.0253  <S**2>=0.000
     160 -> 171       -0.18226
     162 -> 171        0.18206
     163 -> 171       -0.26342
     165 -> 171       -0.11399
     167 -> 175        0.20975
     167 -> 177        0.33111
     168 -> 177       -0.30341
     169 -> 176        0.14900

 Excited State  39:      Singlet-A      5.0369 eV  246.15 nm  f=0.0268  <S**2>=0.000
     156 -> 170       -0.21866
     167 -> 175       -0.17740
     167 -> 176        0.43667
     167 -> 180        0.12311
     168 -> 175       -0.10678
     169 -> 177        0.10415
     169 -> 178       -0.13035
     169 -> 180        0.29361

 Excited State  40:      Singlet-A      5.0573 eV  245.16 nm  f=0.0202  <S**2>=0.000
     156 -> 170        0.11000
     164 -> 171       -0.11953
     165 -> 171        0.36574
     166 -> 171       -0.12881
     167 -> 175       -0.20235
     167 -> 176        0.25460
     167 -> 177        0.20364
     167 -> 180       -0.14402
     169 -> 180       -0.19814
     169 -> 181       -0.11417

 Excited State  41:      Singlet-A      5.0706 eV  244.51 nm  f=0.0339  <S**2>=0.000
     156 -> 170       -0.27347
     164 -> 171        0.24802
     165 -> 171        0.37554
     167 -> 175        0.15355
     167 -> 176       -0.11597
     168 -> 178        0.13778
     168 -> 180       -0.25308

 Excited State  42:      Singlet-A      5.0765 eV  244.23 nm  f=0.0149  <S**2>=0.000
     156 -> 170       -0.11427
     160 -> 171        0.35938
     161 -> 171       -0.27450
     163 -> 171       -0.29145
     164 -> 171       -0.29861
     165 -> 171        0.12971
     166 -> 171       -0.10325
     169 -> 180        0.14828

 Excited State  43:      Singlet-A      5.1197 eV  242.17 nm  f=0.0510  <S**2>=0.000
     161 -> 171       -0.16045
     162 -> 171       -0.15404
     163 -> 171       -0.21027
     164 -> 171        0.43700
     165 -> 171        0.15723
     168 -> 178       -0.10041
     168 -> 180        0.34706

 Excited State  44:      Singlet-A      5.1316 eV  241.61 nm  f=0.0247  <S**2>=0.000
     156 -> 170        0.18220
     156 -> 171       -0.10894
     157 -> 170       -0.16397
     160 -> 171       -0.16407
     161 -> 171        0.24627
     164 -> 171       -0.23328
     165 -> 171        0.22298
     167 -> 177       -0.12141
     168 -> 180        0.25551
     169 -> 180        0.22611
     169 -> 181        0.10768

 Excited State  45:      Singlet-A      5.1627 eV  240.15 nm  f=0.0848  <S**2>=0.000
     156 -> 170        0.13226
     159 -> 171        0.10757
     160 -> 171        0.16936
     161 -> 171       -0.23291
     162 -> 171        0.51333
     163 -> 171        0.23114
     169 -> 178       -0.12948

 Excited State  46:      Singlet-A      5.1870 eV  239.03 nm  f=0.0566  <S**2>=0.000
     156 -> 170        0.36493
     157 -> 171       -0.13374
     162 -> 171       -0.12435
     163 -> 171       -0.12295
     164 -> 171        0.12839
     167 -> 178        0.10365
     168 -> 178        0.15777
     168 -> 180       -0.21011
     169 -> 178       -0.33160
     169 -> 179       -0.19665

 Excited State  47:      Singlet-A      5.2064 eV  238.14 nm  f=0.0370  <S**2>=0.000
     158 -> 171        0.14765
     160 -> 171        0.39268
     161 -> 171        0.43398
     162 -> 171        0.13587
     163 -> 171       -0.10755
     164 -> 171        0.11548
     169 -> 178        0.18142
     169 -> 179        0.11664

 Excited State  48:      Singlet-A      5.2114 eV  237.91 nm  f=0.0038  <S**2>=0.000
     156 -> 170        0.21170
     157 -> 171       -0.14013
     161 -> 171       -0.14508
     167 -> 178       -0.11263
     168 -> 181       -0.10055
     169 -> 178        0.25822
     169 -> 179        0.27115
     169 -> 180        0.34871
     169 -> 181       -0.11678
     169 -> 184       -0.11564

 Excited State  49:      Singlet-A      5.2654 eV  235.47 nm  f=0.0310  <S**2>=0.000
     157 -> 171        0.14498
     167 -> 178        0.20578
     167 -> 180       -0.31137
     167 -> 181       -0.10835
     167 -> 182       -0.16080
     168 -> 179       -0.10328
     169 -> 180        0.12120
     169 -> 181       -0.10099
     169 -> 182        0.37543
     169 -> 184       -0.11114
     169 -> 185        0.17905

 Excited State  50:      Singlet-A      5.2786 eV  234.88 nm  f=0.0065  <S**2>=0.000
     159 -> 171       -0.22085
     167 -> 178       -0.12438
     168 -> 178       -0.31164
     168 -> 179        0.21187
     168 -> 180       -0.19272
     168 -> 181       -0.12106
     169 -> 179       -0.18054
     169 -> 181        0.33085
     169 -> 182        0.17316

 The electronic state is 1-A.
 Alpha  occ. eigenvalues --  -24.81113 -14.44163 -14.43898 -14.43253 -14.39683
 Alpha  occ. eigenvalues --  -14.39633 -10.34639 -10.32546 -10.32492 -10.32464
 Alpha  occ. eigenvalues --  -10.29253 -10.29215 -10.29160 -10.29138 -10.28912
 Alpha  occ. eigenvalues --  -10.28906 -10.28903 -10.28851 -10.28851 -10.28756
 Alpha  occ. eigenvalues --  -10.24314 -10.24271 -10.24262 -10.24251 -10.24247
 Alpha  occ. eigenvalues --  -10.24230 -10.24227 -10.24222 -10.24207 -10.24198
 Alpha  occ. eigenvalues --  -10.24194 -10.24152 -10.24146 -10.24125 -10.24125
 Alpha  occ. eigenvalues --  -10.24119 -10.24098 -10.24094 -10.24070 -10.24064
 Alpha  occ. eigenvalues --  -10.24046 -10.24007 -10.23942 -10.23862 -10.23828
 Alpha  occ. eigenvalues --  -10.23798 -10.23770 -10.23704 -10.23601 -10.23487
 Alpha  occ. eigenvalues --   -1.29634  -1.01389  -1.00687  -1.00225  -0.93153
 Alpha  occ. eigenvalues --   -0.93111  -0.90378  -0.88028  -0.87978  -0.87815
 Alpha  occ. eigenvalues --   -0.87030  -0.86800  -0.85720  -0.82014  -0.80536
 Alpha  occ. eigenvalues --   -0.77787  -0.77711  -0.77566  -0.76741  -0.76687
 Alpha  occ. eigenvalues --   -0.76443  -0.76336  -0.76293  -0.76116  -0.74995
 Alpha  occ. eigenvalues --   -0.74071  -0.73836  -0.69475  -0.68271  -0.64671
 Alpha  occ. eigenvalues --   -0.64425  -0.64142  -0.63974  -0.63471  -0.62602
 Alpha  occ. eigenvalues --   -0.62283  -0.62141  -0.61956  -0.61754  -0.60753
 Alpha  occ. eigenvalues --   -0.59490  -0.59102  -0.58087  -0.56393  -0.55966
 Alpha  occ. eigenvalues --   -0.55486  -0.54910  -0.54822  -0.54644  -0.52135
 Alpha  occ. eigenvalues --   -0.51837  -0.51602  -0.50901  -0.50155  -0.49816
 Alpha  occ. eigenvalues --   -0.49404  -0.49325  -0.49220  -0.47710  -0.47511
 Alpha  occ. eigenvalues --   -0.47168  -0.46771  -0.46492  -0.45999  -0.45566
 Alpha  occ. eigenvalues --   -0.45049  -0.44992  -0.44913  -0.44824  -0.44507
 Alpha  occ. eigenvalues --   -0.43937  -0.43658  -0.43581  -0.43510  -0.43472
 Alpha  occ. eigenvalues --   -0.43356  -0.43352  -0.42746  -0.41307  -0.40806
 Alpha  occ. eigenvalues --   -0.40445  -0.40190  -0.39860  -0.39785  -0.39434
 Alpha  occ. eigenvalues --   -0.39326  -0.39016  -0.37838  -0.37741  -0.37658
 Alpha  occ. eigenvalues --   -0.37296  -0.37107  -0.37023  -0.36894  -0.36673
 Alpha  occ. eigenvalues --   -0.36584  -0.36279  -0.36246  -0.36010  -0.35813
 Alpha  occ. eigenvalues --   -0.35634  -0.35481  -0.34212  -0.33781  -0.32768
 Alpha  occ. eigenvalues --   -0.29617  -0.29316  -0.28196  -0.27967  -0.27782
 Alpha  occ. eigenvalues --   -0.27680  -0.27526  -0.27512  -0.27265  -0.27027
 Alpha  occ. eigenvalues --   -0.26920  -0.22527  -0.22217  -0.21797
 Alpha virt. eigenvalues --   -0.07601  -0.05792  -0.02575  -0.02356  -0.02177
 Alpha virt. eigenvalues --   -0.01957  -0.01814  -0.01753  -0.00633  -0.00397
 Alpha virt. eigenvalues --   -0.00271  -0.00174   0.01049   0.01466   0.01661

 Mulliken charges:
               1
     1  C   -0.230155
     2  C    0.635273
     3  C   -0.367078
     4  C    0.315433
     5  C   -0.454598
     6  C    0.321513
     7  C   -0.023859
     8  C   -0.148906
     9  F   -0.250996
    10  N   -0.178719
    11  N   -0.154590
    12  N    0.243432
    13  C    0.192325
    14  C    0.064693
    15  C   -0.303504
    16  C   -0.291664
    17  C   -0.235403
    18  C   -0.310272
    19  C   -0.135762
    20  H    0.180050
    21  C   -0.061642
    22  H    0.177466
    23  C   -0.113458
    24  H    0.185652
    25  C   -0.039369
    26  H    0.169467
    27  C   -0.140970
    28  H    0.133490
    29  H    0.132421
    30  C   -0.149445
    31  H    0.131774
    32  H    0.133362
    33  H    0.128945
    34  H    0.129973
    35  N    0.128885
    36  C   -0.012816
    37  C    0.163996
    38  C   -0.212824
    39  C   -0.221537
    40  C   -0.273764
    41  C   -0.247256
    42  C   -0.114841
    43  H    0.179805
    44  C   -0.086052
    45  H    0.166161
    46  C   -0.134760
    47  H    0.178419
    48  C   -0.090666
    49  H    0.168670
    50  C   -0.118103
    51  H    0.132515
    52  H    0.133592
    53  C   -0.116914
    54  H    0.137960
    55  H    0.133060
    56  H    0.131289
    57  H    0.130932
    58  N    0.111279
    59  C    0.012728
    60  C    0.131816
    61  C   -0.212488
    62  C   -0.219478
    63  C   -0.256492
    64  C   -0.251439
    65  C   -0.137210
    66  H    0.178963
    67  C   -0.090205
    68  H    0.168585
    69  C   -0.122180
    70  H    0.190034
    71  C   -0.086785
    72  H    0.168327
    73  C   -0.107075
    74  H    0.135129
    75  H    0.133498
    76  C   -0.119843
    77  H    0.136154
    78  H    0.133334
    79  H    0.131659
    80  H    0.131055
 Sum of Mulliken charges =  -0.00000

 Dipole moment (field-independent basis, Debye):
    X=             -4.9092    Y=              2.7754    Z=             -1.6957  Tot=              5.8889
 Quadrupole moment (field-independent basis, Debye-Ang):
   XX=           -270.4722   YY=           -290.7460   ZZ=           -257.6731
   XY=             -6.4932   XZ=            -16.1414   YZ=             -3.2355

 Normal termination of Gaussian 09 at Sat Jul  2 18:14:05 2022.
