                         Program Version 5.0.2 -  RELEASE  -
|  1> %maxcore 24000
|  2> %pal
|  3>  nprocs= 8
|  4> end
|  5> ! RI-wB2PLYP def2-TZVP def2/J def2-TZVP/C RIJCOSX CPCM TightSCF
|  6> %TDDFT DCORR 1
|  7>    NROOTS   60
|  8>   TDA      FALSE
|  9> END
| 10>
| 11>  %CPCM
| 12>    SMD          TRUE
| 13>    SMDsolvent   "ACETONITRILE"
| 14>  END
| 15>
| 16>
| 17> * xyz 0 1
| 18> C                  -0.09813300    1.39242200    0.01340000
| 19> C                  -1.20637900    0.60874400   -0.29352100
| 20> C                  -1.19524300   -0.78207400   -0.27236200
| 21> C                   0.03211700   -1.43179700    0.00936000
| 22> C                   1.18254600   -0.68059500    0.30053400
| 23> C                   1.10095000    0.71991200    0.34893500
| 24> C                   0.10905800   -2.84191600    0.00152300
| 25> C                   2.20820800    1.44917600    0.83684900
| 26> F                  -2.32243000    1.22148900   -0.69634000
| 27> N                   0.18172800   -3.99861900    0.00279700
| 28> N                   3.11213500    2.03242400    1.26805200
| 29> N                   2.40257400   -1.31501700    0.58267100
| 30> C                   3.54736000   -0.93505600   -0.15925700
| 31> C                   2.47202700   -2.26177900    1.63312100
| 32> C                   3.41016000   -0.56535400   -1.49760300
| 33> C                   4.80666700   -0.88523200    0.43791100
| 34> C                   1.67530700   -2.10006700    2.76587800
| 35> C                   3.30954700   -3.37277600    1.53715400
| 36> C                   4.51316200   -0.13516200   -2.21728600
| 37> H                   2.43702300   -0.61638900   -1.97148600
| 38> C                   5.90440100   -0.47135100   -0.29617700
| 39> H                   4.91794500   -1.15275100    1.48064200
| 40> C                   1.70763900   -3.04523900    3.77860500
| 41> H                   1.02969900   -1.23392500    2.84858600
| 42> C                   3.34553300   -4.30174200    2.56190900
| 43> H                   3.91866800   -3.51091500    0.65322400
| 44> C                   5.76637200   -0.08683400   -1.62395500
| 45> H                   4.38942700    0.15208700   -3.25410100
| 46> H                   6.87487800   -0.43099800    0.18245000
| 47> C                   2.54325600   -4.14863000    3.68589500
| 48> H                   1.08216200   -2.90774000    4.65167500
| 49> H                   3.99637400   -5.16250000    2.47269900
| 50> H                   6.62742400    0.24434000   -2.18951600
| 51> H                   2.57091600   -4.88227700    4.48085000
| 52> N                  -2.35461600   -1.48622000   -0.58604000
| 53> C                  -2.31584000   -2.51804500   -1.55954300
| 54> C                  -3.57137900   -1.12006900    0.04154900
| 55> C                  -1.50701900   -2.37888600   -2.68521200
| 56> C                  -3.06545300   -3.67977300   -1.38688900
| 57> C                  -3.56216100   -0.67398200    1.36251700
| 58> C                  -4.77810200   -1.18220100   -0.65382800
| 59> C                  -1.43563900   -3.40256300   -3.61632400
| 60> H                  -0.93421300   -1.46968200   -2.82465500
| 61> C                  -2.99855800   -4.68925100   -2.33086700
| 62> H                  -3.68574500   -3.79106700   -0.50680900
| 63> C                  -4.74379600   -0.28414300    1.97131600
| 64> H                  -2.62844600   -0.63768700    1.91099700
| 65> C                  -5.95480100   -0.80638400   -0.02939600
| 66> H                  -4.78865300   -1.51533000   -1.68337700
| 67> C                  -2.18018800   -4.56065900   -3.44620000
| 68> H                  -0.80179000   -3.28570600   -4.48622600
| 69> H                  -3.57954700   -5.59114600   -2.18485000
| 70> C                  -5.94648400   -0.35120600    1.28278700
| 71> H                  -4.72219800    0.06114700    2.99744800
| 72> H                  -6.88524500   -0.85588300   -0.58096000
| 73> H                  -2.12586800   -5.35662500   -4.17733100
| 74> H                  -6.86900700   -0.05323500    1.76357000
| 75> N                  -0.17654800    2.77809700   -0.02664800
| 76> C                   0.85731900    3.52236800   -0.65521300
| 77> C                  -1.28859700    3.43307200    0.56225100
| 78> C                   1.46649000    3.02592900   -1.80608100
| 79> C                   1.28606100    4.73255100   -0.11468100
| 80> C                  -1.85516300    2.92207900    1.72844200
| 81> C                  -1.83117100    4.57461600   -0.02474200
| 82> C                   2.50727300    3.72558000   -2.39474400
| 83> H                   1.12482800    2.09134900   -2.23419700
| 84> C                   2.31513300    5.43169000   -0.72110600
| 85> H                   0.82204500    5.11235400    0.78639000
| 86> C                  -2.95931500    3.54115700    2.29096900
| 87> H                  -1.42557100    2.04255400    2.19312000
| 88> C                  -2.92451700    5.19430400    0.55527800
| 89> H                  -1.39963600    4.96699800   -0.93645900
| 90> C                   2.93594500    4.93123000   -1.85846700
| 91> H                   2.97500800    3.32907900   -3.28717600
| 92> H                   2.64520400    6.36837200   -0.28997600
| 93> C                  -3.49782600    4.68107700    1.71163900
| 94> H                  -3.39081900    3.13471700    3.19710400
| 95> H                  -3.34016700    6.07894600    0.08956200
| 96> H                   3.74567900    5.47816800   -2.32338400
| 97> H                  -4.35599900    5.16686100    2.15721800
| 98> *
| 99>
|100>
|101>                          ****END OF INPUT****

CARTESIAN COORDINATES (ANGSTROEM)
---------------------------------
  C     -0.098133    1.392422    0.013400
  C     -1.206379    0.608744   -0.293521
  C     -1.195243   -0.782074   -0.272362
  C      0.032117   -1.431797    0.009360
  C      1.182546   -0.680595    0.300534
  C      1.100950    0.719912    0.348935
  C      0.109058   -2.841916    0.001523
  C      2.208208    1.449176    0.836849
  F     -2.322430    1.221489   -0.696340
  N      0.181728   -3.998619    0.002797
  N      3.112135    2.032424    1.268052
  N      2.402574   -1.315017    0.582671
  C      3.547360   -0.935056   -0.159257
  C      2.472027   -2.261779    1.633121
  C      3.410160   -0.565354   -1.497603
  C      4.806667   -0.885232    0.437911
  C      1.675307   -2.100067    2.765878
  C      3.309547   -3.372776    1.537154
  C      4.513162   -0.135162   -2.217286
  H      2.437023   -0.616389   -1.971486
  C      5.904401   -0.471351   -0.296177
  H      4.917945   -1.152751    1.480642
  C      1.707639   -3.045239    3.778605
  H      1.029699   -1.233925    2.848586
  C      3.345533   -4.301742    2.561909
  H      3.918668   -3.510915    0.653224
  C      5.766372   -0.086834   -1.623955
  H      4.389427    0.152087   -3.254101
  H      6.874878   -0.430998    0.182450
  C      2.543256   -4.148630    3.685895
  H      1.082162   -2.907740    4.651675
  H      3.996374   -5.162500    2.472699
  H      6.627424    0.244340   -2.189516
  H      2.570916   -4.882277    4.480850
  N     -2.354616   -1.486220   -0.586040
  C     -2.315840   -2.518045   -1.559543
  C     -3.571379   -1.120069    0.041549
  C     -1.507019   -2.378886   -2.685212
  C     -3.065453   -3.679773   -1.386889
  C     -3.562161   -0.673982    1.362517
  C     -4.778102   -1.182201   -0.653828
  C     -1.435639   -3.402563   -3.616324
  H     -0.934213   -1.469682   -2.824655
  C     -2.998558   -4.689251   -2.330867
  H     -3.685745   -3.791067   -0.506809
  C     -4.743796   -0.284143    1.971316
  H     -2.628446   -0.637687    1.910997
  C     -5.954801   -0.806384   -0.029396
  H     -4.788653   -1.515330   -1.683377
  C     -2.180188   -4.560659   -3.446200
  H     -0.801790   -3.285706   -4.486226
  H     -3.579547   -5.591146   -2.184850
  C     -5.946484   -0.351206    1.282787
  H     -4.722198    0.061147    2.997448
  H     -6.885245   -0.855883   -0.580960
  H     -2.125868   -5.356625   -4.177331
  H     -6.869007   -0.053235    1.763570
  N     -0.176548    2.778097   -0.026648
  C      0.857319    3.522368   -0.655213
  C     -1.288597    3.433072    0.562251
  C      1.466490    3.025929   -1.806081
  C      1.286061    4.732551   -0.114681
  C     -1.855163    2.922079    1.728442
  C     -1.831171    4.574616   -0.024742
  C      2.507273    3.725580   -2.394744
  H      1.124828    2.091349   -2.234197
  C      2.315133    5.431690   -0.721106
  H      0.822045    5.112354    0.786390
  C     -2.959315    3.541157    2.290969
  H     -1.425571    2.042554    2.193120
  C     -2.924517    5.194304    0.555278
  H     -1.399636    4.966998   -0.936459
  C      2.935945    4.931230   -1.858467
  H      2.975008    3.329079   -3.287176
  H      2.645204    6.368372   -0.289976
  C     -3.497826    4.681077    1.711639
  H     -3.390819    3.134717    3.197104
  H     -3.340167    6.078946    0.089562
  H      3.745679    5.478168   -2.323384
  H     -4.355999    5.166861    2.157218

 Total Charge           Charge          ....    0
 Multiplicity           Mult            ....    1
 Number of Electrons    NEL             ....  338
 Basis Dimension        Dim             .... 1730

ORBITAL ENERGIES
----------------

  NO   OCC          E(Eh)            E(eV)
   0   2.0000     -25.464504      -692.9244
   1   2.0000     -14.961369      -407.1196
   2   2.0000     -14.958874      -407.0517
   3   2.0000     -14.954982      -406.9458
   4   2.0000     -14.927247      -406.1911
   5   2.0000     -14.927220      -406.1903
   6   2.0000     -10.797290      -293.8092
   7   2.0000     -10.787138      -293.5329
   8   2.0000     -10.786633      -293.5192
   9   2.0000     -10.786186      -293.5070
  10   2.0000     -10.750086      -292.5247
  11   2.0000     -10.749902      -292.5197
  12   2.0000     -10.745997      -292.4134
  13   2.0000     -10.745902      -292.4109
  14   2.0000     -10.740557      -292.2654
  15   2.0000     -10.740515      -292.2643
  16   2.0000     -10.740405      -292.2613
  17   2.0000     -10.740037      -292.2513
  18   2.0000     -10.739550      -292.2380
  19   2.0000     -10.739546      -292.2379
  20   2.0000     -10.691099      -290.9196
  21   2.0000     -10.690816      -290.9119
  22   2.0000     -10.690666      -290.9078
  23   2.0000     -10.690621      -290.9066
  24   2.0000     -10.690534      -290.9042
  25   2.0000     -10.690430      -290.9014
  26   2.0000     -10.690386      -290.9002
  27   2.0000     -10.690238      -290.8962
  28   2.0000     -10.690105      -290.8925
  29   2.0000     -10.690024      -290.8904
  30   2.0000     -10.689851      -290.8856
  31   2.0000     -10.689709      -290.8818
  32   2.0000     -10.689640      -290.8799
  33   2.0000     -10.689405      -290.8735
  34   2.0000     -10.689197      -290.8678
  35   2.0000     -10.688882      -290.8593
  36   2.0000     -10.688595      -290.8514
  37   2.0000     -10.688510      -290.8491
  38   2.0000     -10.688288      -290.8431
  39   2.0000     -10.688278      -290.8428
  40   2.0000     -10.688027      -290.8360
  41   2.0000     -10.687815      -290.8302
  42   2.0000     -10.686911      -290.8056
  43   2.0000     -10.686897      -290.8053
  44   2.0000     -10.685483      -290.7668
  45   2.0000     -10.685128      -290.7571
  46   2.0000     -10.684625      -290.7434
  47   2.0000     -10.683873      -290.7230
  48   2.0000     -10.683466      -290.7119
  49   2.0000     -10.683377      -290.7095
  50   2.0000      -1.502000       -40.8715
  51   2.0000      -1.220386       -33.2084
  52   2.0000      -1.210811       -32.9478
  53   2.0000      -1.206855       -32.8402
  54   2.0000      -1.135348       -30.8944
  55   2.0000      -1.134800       -30.8795
  56   2.0000      -1.100024       -29.9332
  57   2.0000      -1.074635       -29.2423
  58   2.0000      -1.074065       -29.2268
  59   2.0000      -1.073219       -29.2038
  60   2.0000      -1.063058       -28.9273
  61   2.0000      -1.061065       -28.8730
  62   2.0000      -1.047550       -28.5053
  63   2.0000      -1.006208       -27.3803
  64   2.0000      -0.989541       -26.9268
  65   2.0000      -0.959560       -26.1109
  66   2.0000      -0.958745       -26.0888
  67   2.0000      -0.958114       -26.0716
  68   2.0000      -0.949062       -25.8253
  69   2.0000      -0.948407       -25.8075
  70   2.0000      -0.946125       -25.7454
  71   2.0000      -0.943680       -25.6788
  72   2.0000      -0.942990       -25.6600
  73   2.0000      -0.942057       -25.6347
  74   2.0000      -0.926071       -25.1997
  75   2.0000      -0.916074       -24.9277
  76   2.0000      -0.914032       -24.8721
  77   2.0000      -0.860641       -23.4192
  78   2.0000      -0.847040       -23.0491
  79   2.0000      -0.804470       -21.8907
  80   2.0000      -0.802815       -21.8457
  81   2.0000      -0.799492       -21.7553
  82   2.0000      -0.797898       -21.7119
  83   2.0000      -0.787333       -21.4244
  84   2.0000      -0.783666       -21.3246
  85   2.0000      -0.777890       -21.1675
  86   2.0000      -0.776437       -21.1279
  87   2.0000      -0.775396       -21.0996
  88   2.0000      -0.773877       -21.0583
  89   2.0000      -0.762406       -20.7461
  90   2.0000      -0.746279       -20.3073
  91   2.0000      -0.741280       -20.1713
  92   2.0000      -0.728194       -19.8152
  93   2.0000      -0.706690       -19.2300
  94   2.0000      -0.700613       -19.0647
  95   2.0000      -0.695798       -18.9336
  96   2.0000      -0.687156       -18.6985
  97   2.0000      -0.686834       -18.6897
  98   2.0000      -0.685362       -18.6496
  99   2.0000      -0.666243       -18.1294
 100   2.0000      -0.658423       -17.9166
 101   2.0000      -0.654681       -17.8148
 102   2.0000      -0.648220       -17.6390
 103   2.0000      -0.638814       -17.3830
 104   2.0000      -0.632937       -17.2231
 105   2.0000      -0.628698       -17.1077
 106   2.0000      -0.628073       -17.0907
 107   2.0000      -0.627176       -17.0663
 108   2.0000      -0.609815       -16.5939
 109   2.0000      -0.606779       -16.5113
 110   2.0000      -0.603975       -16.4350
 111   2.0000      -0.597920       -16.2702
 112   2.0000      -0.597109       -16.2482
 113   2.0000      -0.592077       -16.1112
 114   2.0000      -0.584957       -15.9175
 115   2.0000      -0.582044       -15.8382
 116   2.0000      -0.580104       -15.7854
 117   2.0000      -0.577468       -15.7137
 118   2.0000      -0.575606       -15.6630
 119   2.0000      -0.571441       -15.5497
 120   2.0000      -0.566928       -15.4269
 121   2.0000      -0.566231       -15.4079
 122   2.0000      -0.563992       -15.3470
 123   2.0000      -0.563246       -15.3267
 124   2.0000      -0.562112       -15.2958
 125   2.0000      -0.560974       -15.2649
 126   2.0000      -0.560647       -15.2560
 127   2.0000      -0.550768       -14.9872
 128   2.0000      -0.542340       -14.7578
 129   2.0000      -0.536226       -14.5914
 130   2.0000      -0.532597       -14.4927
 131   2.0000      -0.530361       -14.4319
 132   2.0000      -0.526220       -14.3192
 133   2.0000      -0.522505       -14.2181
 134   2.0000      -0.515642       -14.0313
 135   2.0000      -0.510241       -13.8844
 136   2.0000      -0.504518       -13.7286
 137   2.0000      -0.497679       -13.5425
 138   2.0000      -0.496247       -13.5036
 139   2.0000      -0.495909       -13.4944
 140   2.0000      -0.487575       -13.2676
 141   2.0000      -0.486620       -13.2416
 142   2.0000      -0.486103       -13.2275
 143   2.0000      -0.481804       -13.1105
 144   2.0000      -0.478485       -13.0202
 145   2.0000      -0.477046       -12.9811
 146   2.0000      -0.476012       -12.9529
 147   2.0000      -0.473955       -12.8970
 148   2.0000      -0.473215       -12.8768
 149   2.0000      -0.471287       -12.8244
 150   2.0000      -0.468910       -12.7597
 151   2.0000      -0.467835       -12.7304
 152   2.0000      -0.453436       -12.3386
 153   2.0000      -0.449815       -12.2401
 154   2.0000      -0.434423       -11.8213
 155   2.0000      -0.380201       -10.3458
 156   2.0000      -0.378770       -10.3068
 157   2.0000      -0.365213        -9.9379
 158   2.0000      -0.361549        -9.8382
 159   2.0000      -0.360358        -9.8058
 160   2.0000      -0.359112        -9.7719
 161   2.0000      -0.357281        -9.7221
 162   2.0000      -0.356491        -9.7006
 163   2.0000      -0.354051        -9.6342
 164   2.0000      -0.350684        -9.5426
 165   2.0000      -0.348964        -9.4958
 166   2.0000      -0.299168        -8.1408
 167   2.0000      -0.292785        -7.9671
 168   2.0000      -0.288874        -7.8607
 169   0.0000       0.006390         0.1739
 170   0.0000       0.029702         0.8082
 171   0.0000       0.065311         1.7772
 172   0.0000       0.066139         1.7997
 173   0.0000       0.069950         1.9034

MULLIKEN ATOMIC CHARGES
-----------------------
   0 C :   -0.068096
   1 C :    0.397745
   2 C :   -0.164230
   3 C :    0.261518
   4 C :   -0.234817
   5 C :    0.226062
   6 C :   -0.116831
   7 C :   -0.119459
   8 F :   -0.234538
   9 N :   -0.120484
  10 N :   -0.121982
  11 N :    0.037625
  12 C :    0.138411
  13 C :    0.128286
  14 C :   -0.267780
  15 C :   -0.291707
  16 C :   -0.258099
  17 C :   -0.296207
  18 C :   -0.180276
  19 H :    0.200319
  20 C :   -0.133375
  21 H :    0.195249
  22 C :   -0.165044
  23 H :    0.196217
  24 C :   -0.137417
  25 H :    0.195214
  26 C :   -0.190533
  27 H :    0.182221
  28 H :    0.180623
  29 C :   -0.192703
  30 H :    0.180700
  31 H :    0.180422
  32 H :    0.179885
  33 H :    0.179091
  34 N :    0.063497
  35 C :    0.070926
  36 C :    0.164755
  37 C :   -0.238316
  38 C :   -0.258977
  39 C :   -0.270078
  40 C :   -0.289797
  41 C :   -0.168985
  42 H :    0.197886
  43 C :   -0.149437
  44 H :    0.196062
  45 C :   -0.177942
  46 H :    0.201477
  47 C :   -0.146518
  48 H :    0.197423
  49 C :   -0.180555
  50 H :    0.181158
  51 H :    0.181672
  52 C :   -0.188679
  53 H :    0.183579
  54 H :    0.180889
  55 H :    0.180078
  56 H :    0.180051
  57 N :    0.066534
  58 C :    0.076670
  59 C :    0.151677
  60 C :   -0.240266
  61 C :   -0.257020
  62 C :   -0.261594
  63 C :   -0.289708
  64 C :   -0.170633
  65 H :    0.196652
  66 C :   -0.147611
  67 H :    0.196536
  68 C :   -0.171723
  69 H :    0.201977
  70 C :   -0.142735
  71 H :    0.197432
  72 C :   -0.181836
  73 H :    0.183191
  74 H :    0.181490
  75 C :   -0.190730
  76 H :    0.183285
  77 H :    0.181344
  78 H :    0.180748
  79 H :    0.180139
Sum of atomic charges:   -0.0000000

LOEWDIN ATOMIC CHARGES
----------------------
   0 C :   -0.083031
   1 C :   -0.193272
   2 C :   -0.080855
   3 C :   -0.090001
   4 C :   -0.064065
   5 C :   -0.090340
   6 C :   -0.126093
   7 C :   -0.125906
   8 F :    0.212811
   9 N :    0.017471
  10 N :    0.017060
  11 N :    0.286109
  12 C :   -0.170670
  13 C :   -0.172419
  14 C :   -0.115998
  15 C :   -0.115817
  16 C :   -0.115284
  17 C :   -0.115300
  18 C :   -0.143341
  19 H :    0.164429
  20 C :   -0.143105
  21 H :    0.163941
  22 C :   -0.142906
  23 H :    0.164735
  24 C :   -0.142874
  25 H :    0.163715
  26 C :   -0.159161
  27 H :    0.157188
  28 H :    0.157097
  29 C :   -0.158010
  30 H :    0.157023
  31 H :    0.157030
  32 H :    0.153700
  33 H :    0.153689
  34 N :    0.289746
  35 C :   -0.172652
  36 C :   -0.168200
  37 C :   -0.112007
  38 C :   -0.112170
  39 C :   -0.116949
  40 C :   -0.116622
  41 C :   -0.141868
  42 H :    0.165006
  43 C :   -0.141533
  44 H :    0.164196
  45 C :   -0.143402
  46 H :    0.164837
  47 C :   -0.142275
  48 H :    0.163836
  49 C :   -0.154110
  50 H :    0.157261
  51 H :    0.157296
  52 C :   -0.158581
  53 H :    0.157220
  54 H :    0.157155
  55 H :    0.154327
  56 H :    0.153851
  57 N :    0.292855
  58 C :   -0.170633
  59 C :   -0.168736
  60 C :   -0.111686
  61 C :   -0.111850
  62 C :   -0.115641
  63 C :   -0.115031
  64 C :   -0.141627
  65 H :    0.164954
  66 C :   -0.141055
  67 H :    0.164503
  68 C :   -0.142998
  69 H :    0.164961
  70 C :   -0.141851
  71 H :    0.163962
  72 C :   -0.153510
  73 H :    0.157321
  74 H :    0.157445
  75 C :   -0.156396
  76 H :    0.157176
  77 H :    0.157248
  78 H :    0.154525
  79 H :    0.154153

  Mayer bond orders larger than 0.100000
B(  0-C ,  1-C ) :   1.4153 B(  0-C ,  5-C ) :   1.1784 B(  0-C , 57-N ) :   1.0859
B(  1-C ,  2-C ) :   1.3836 B(  1-C ,  8-F ) :   1.0405 B(  2-C ,  3-C ) :   1.2109
B(  2-C , 34-N ) :   1.0355 B(  3-C ,  4-C ) :   1.3857 B(  3-C ,  6-C ) :   0.9577
B(  4-C ,  5-C ) :   1.3225 B(  4-C , 11-N ) :   1.0364 B(  5-C ,  7-C ) :   0.9677
B(  6-C ,  9-N ) :   3.0612 B(  7-C , 10-N ) :   3.0593 B( 11-N , 12-C ) :   0.9651
B( 11-N , 13-C ) :   0.9571 B( 12-C , 14-C ) :   1.3873 B( 12-C , 15-C ) :   1.3733
B( 13-C , 16-C ) :   1.3948 B( 13-C , 17-C ) :   1.3770 B( 14-C , 18-C ) :   1.4160
B( 14-C , 19-H ) :   0.9598 B( 15-C , 20-C ) :   1.4324 B( 15-C , 21-H ) :   0.9728
B( 16-C , 22-C ) :   1.4211 B( 16-C , 23-H ) :   0.9623 B( 17-C , 24-C ) :   1.4369
B( 17-C , 25-H ) :   0.9711 B( 18-C , 26-C ) :   1.4004 B( 18-C , 27-H ) :   0.9773
B( 20-C , 26-C ) :   1.3898 B( 20-C , 28-H ) :   0.9731 B( 22-C , 29-C ) :   1.4059
B( 22-C , 30-H ) :   0.9722 B( 24-C , 29-C ) :   1.3861 B( 24-C , 31-H ) :   0.9726
B( 26-C , 32-H ) :   0.9745 B( 29-C , 33-H ) :   0.9752 B( 34-N , 35-C ) :   0.9408
B( 34-N , 36-C ) :   0.9744 B( 35-C , 37-C ) :   1.4013 B( 35-C , 38-C ) :   1.3831
B( 36-C , 39-C ) :   1.3861 B( 36-C , 40-C ) :   1.3771 B( 37-C , 41-C ) :   1.4226
B( 37-C , 42-H ) :   0.9623 B( 38-C , 43-C ) :   1.4356 B( 38-C , 44-H ) :   0.9687
B( 39-C , 45-C ) :   1.4197 B( 39-C , 46-H ) :   0.9549 B( 40-C , 47-C ) :   1.4363
B( 40-C , 48-H ) :   0.9648 B( 41-C , 49-C ) :   1.4055 B( 41-C , 50-H ) :   0.9726
B( 43-C , 49-C ) :   1.3874 B( 43-C , 51-H ) :   0.9712 B( 45-C , 52-C ) :   1.3991
B( 45-C , 53-H ) :   0.9757 B( 47-C , 52-C ) :   1.3922 B( 47-C , 54-H ) :   0.9730
B( 49-C , 55-H ) :   0.9743 B( 52-C , 56-H ) :   0.9741 B( 57-N , 58-C ) :   0.9429
B( 57-N , 59-C ) :   0.9652 B( 58-C , 60-C ) :   1.3910 B( 58-C , 61-C ) :   1.3882
B( 59-C , 62-C ) :   1.3903 B( 59-C , 63-C ) :   1.3770 B( 60-C , 64-C ) :   1.4231
B( 60-C , 65-H ) :   0.9639 B( 61-C , 66-C ) :   1.4328 B( 61-C , 67-H ) :   0.9691
B( 62-C , 68-C ) :   1.4258 B( 62-C , 69-H ) :   0.9508 B( 63-C , 70-C ) :   1.4365
B( 63-C , 71-H ) :   0.9652 B( 64-C , 72-C ) :   1.4044 B( 64-C , 73-H ) :   0.9712
B( 66-C , 72-C ) :   1.3890 B( 66-C , 74-H ) :   0.9723 B( 68-C , 75-C ) :   1.4026
B( 68-C , 76-H ) :   0.9733 B( 70-C , 75-C ) :   1.3914 B( 70-C , 77-H ) :   0.9726
B( 72-C , 78-H ) :   0.9735 B( 75-C , 79-H ) :   0.9738

MP2 TOTAL ENERGY:    -2065.045089039 Eh

-----------------------------------------------------------------------------
         ABSORPTION SPECTRUM VIA TRANSITION ELECTRIC DIPOLE MOMENTS
-----------------------------------------------------------------------------
State   Energy    Wavelength  fosc         T2        TX        TY        TZ
        (cm-1)      (nm)                 (au**2)    (au)      (au)      (au)
-----------------------------------------------------------------------------
   1   27387.2    365.1   0.326853130   3.92898  -0.41208  -1.93769  -0.06748
   2   28963.3    345.3   0.202657111   2.30350  -1.44677   0.14969  -0.43352
   3   30797.7    324.7   0.313936212   3.35582   1.72426  -0.34908   0.51079
   4   31801.1    314.5   0.124639224   1.29029  -0.04143  -1.13468  -0.03284
   5   34134.2    293.0   0.344662012   3.32414  -0.71268  -1.64759  -0.31885
   6   37075.5    269.7   0.038279241   0.33990  -0.36939  -0.40533   0.19788
   7   38454.3    260.0   0.177905574   1.52307   0.33001   0.84772  -0.83399
   8   39484.9    253.3   0.057778548   0.48174   0.06469   0.59487   0.35169
   9   39725.4    251.7   0.506310670   4.19590   1.58380  -0.50100  -1.19852
  10   39002.5    256.4   0.051503650   0.43473  -0.12612  -0.02237   0.64678
  11   39442.4    253.5   0.176438869   1.47267  -0.69276  -0.97767   0.19212
  12   40609.3    246.2   0.036831075   0.29858   0.47201  -0.27446   0.02151
  13   40799.7    245.1   0.014335271   0.11567  -0.25824   0.14171  -0.17000
  14   40931.4    244.3   0.010158561   0.08171   0.10008   0.26773   0.00317
  15   39839.3    251.0   0.035243800   0.29124  -0.44804   0.05068   0.29652
  16   47913.0    208.7   0.020051110   0.13777   0.30783  -0.18807   0.08742
  17   48422.4    206.5   0.018414569   0.12520   0.00069   0.35344   0.01661
  18   48032.9    208.2   0.166404130   1.14051  -0.43696  -0.97234  -0.06429
  19   46200.5    216.4   0.105837472   0.75417   0.12038   0.84407  -0.16500
  20   48741.7    205.2   0.016557767   0.11183   0.16964   0.13425   0.25502
  21   48231.6    207.3   0.028701077   0.19590   0.21577  -0.17162   0.34626
  22   48519.5    206.1   0.057042998   0.38704  -0.27868  -0.52669  -0.17883
  23   49369.7    202.6   0.070201107   0.46812  -0.39924  -0.10756   0.54513
  24   48616.1    205.7   0.090339516   0.61175   0.56430  -0.48437  -0.24227
  25   49642.6    201.4   0.211264774   1.40103  -0.76411  -0.77700   0.46199
  26   49661.2    201.4   0.144794616   0.95987  -0.43335  -0.85079  -0.21963
  27   49449.5    202.2   1.182064048   7.86964   1.33566  -0.38179  -2.43719
  28   50405.3    198.4   0.579872069   3.78731   0.97279   0.85382  -1.45327
  29   49678.8    201.3   0.194405074   1.28828  -0.56627  -0.47540  -0.86117
  30   49728.9    201.1   0.224582821   1.48677  -1.11736   0.27073   0.40617
  31   49953.0    200.2   0.294478282   1.94074  -0.00943  -1.37806  -0.20395
  32   50633.0    197.5   0.924784871   6.01289   2.21047  -0.94837  -0.47674
  33   50334.6    198.7   0.209901522   1.37285   0.82254  -0.54222   0.63426
  34   50575.2    197.7   0.446133906   2.90405   1.23672  -0.90625   0.74383
  35   50961.5    196.2   0.082007127   0.52977   0.70017  -0.13026  -0.15020
  36   51045.4    195.9   0.025818934   0.16652  -0.24832  -0.28216   0.15887
  37   51579.3    193.9   0.105115964   0.67092   0.76674  -0.08331  -0.27583
  38   51569.4    193.9   0.056162320   0.35853  -0.07100   0.58147  -0.12404
  39   51726.1    193.3   0.116995971   0.74462  -0.63381  -0.38263  -0.44329
  40   51554.7    194.0   0.086011992   0.54925   0.35327  -0.64701   0.07631
  41   51857.0    192.8   0.194646108   1.23570  -0.88561  -0.66486   0.09675
  42   51858.6    192.8   0.029888130   0.18974  -0.10701  -0.18337   0.38034
  43   52288.1    191.2   0.036791728   0.23164   0.22523  -0.24727  -0.34608
  44   51812.2    193.0   0.024665172   0.15672   0.09919  -0.18788   0.33404
  45   52845.8    189.2   0.398763775   2.48417  -0.69599  -1.41413  -0.00289
  46   51975.4    192.4   0.067244554   0.42593   0.00767  -0.06248  -0.64959
  47   53960.2    185.3   0.021303408   0.12997  -0.04937   0.35003   0.07082
  48   53721.3    186.1   0.081717436   0.50078   0.50908  -0.44995   0.19788
  49   52647.4    189.9   0.102858344   0.64319  -0.23945  -0.76541   0.00147
  50   54715.0    182.8   0.024506476   0.14745   0.09094  -0.37307  -0.00039
  51   54643.2    183.0   0.123820664   0.74599   0.83696   0.16435  -0.13595
  52   54093.1    184.9   0.143547916   0.87364  -0.71316  -0.49160  -0.35125
  53   53158.6    188.1   0.003852312   0.02386  -0.10703  -0.10549  -0.03569
  54   54520.8    183.4   0.012736856   0.07691  -0.13829   0.02321   0.23926
  55   53366.2    187.4   0.015802507   0.09748   0.00644   0.28612   0.12481
  56   53697.0    186.2   0.035725321   0.21903  -0.18166   0.42521  -0.07228
  57   54508.9    183.5   0.003292864   0.01989  -0.06469  -0.05877   0.11067
  58   54003.4    185.2   0.036169149   0.22049  -0.28492  -0.22318   0.29917
  59   53756.3    186.0   0.000629652   0.00386  -0.01780   0.04653   0.03707
  60   54625.0    183.1   0.072398922   0.43633  -0.21032   0.50855  -0.36534

FINAL SINGLE POINT ENERGY     -2062.526817170838

DIPOLE MOMENT
-------------
                                X             Y             Z
Electronic contribution:     -2.08171       0.49431      -0.33941
Nuclear contribution   :      0.52582       0.54399      -0.36258
                        -----------------------------------------
Total Dipole Moment    :     -1.55589       1.03831      -0.70199
                        -----------------------------------------
Magnitude (a.u.)       :      1.99791
Magnitude (Debye)      :      5.07829

Rotational constants in cm-1:     0.002315     0.002172     0.001481
Rotational constants in MHz :    69.390748    65.102508    44.409379

                             ****ORCA TERMINATED NORMALLY****
TOTAL RUN TIME: 1 days 2 hours 46 minutes 2 seconds 459 msec
