                         Program Version 5.0.2 -  RELEASE  -
|  1> %maxcore 24000
|  2> %pal
|  3>  nprocs= 8
|  4> end
|  5> ! RI-DSD-BLYP D3BJ def2-TZVP def2/J def2-TZVP/C RIJCOSX CPCM TightSCF
|  6> %TDDFT DCORR 4
|  7>    NROOTS   60
|  8>   TDA      FALSE
|  9> END
| 10>
| 11>  %CPCM
| 12>    SMD          TRUE
| 13>    SMDsolvent   "ACETONITRILE"
| 14>  END
| 15>
| 16>
| 17> * xyz 0 1
| 18> C                  -0.09813300    1.39242200    0.01340000
| 19> C                  -1.20637900    0.60874400   -0.29352100
| 20> C                  -1.19524300   -0.78207400   -0.27236200
| 21> C                   0.03211700   -1.43179700    0.00936000
| 22> C                   1.18254600   -0.68059500    0.30053400
| 23> C                   1.10095000    0.71991200    0.34893500
| 24> C                   0.10905800   -2.84191600    0.00152300
| 25> C                   2.20820800    1.44917600    0.83684900
| 26> F                  -2.32243000    1.22148900   -0.69634000
| 27> N                   0.18172800   -3.99861900    0.00279700
| 28> N                   3.11213500    2.03242400    1.26805200
| 29> N                   2.40257400   -1.31501700    0.58267100
| 30> C                   3.54736000   -0.93505600   -0.15925700
| 31> C                   2.47202700   -2.26177900    1.63312100
| 32> C                   3.41016000   -0.56535400   -1.49760300
| 33> C                   4.80666700   -0.88523200    0.43791100
| 34> C                   1.67530700   -2.10006700    2.76587800
| 35> C                   3.30954700   -3.37277600    1.53715400
| 36> C                   4.51316200   -0.13516200   -2.21728600
| 37> H                   2.43702300   -0.61638900   -1.97148600
| 38> C                   5.90440100   -0.47135100   -0.29617700
| 39> H                   4.91794500   -1.15275100    1.48064200
| 40> C                   1.70763900   -3.04523900    3.77860500
| 41> H                   1.02969900   -1.23392500    2.84858600
| 42> C                   3.34553300   -4.30174200    2.56190900
| 43> H                   3.91866800   -3.51091500    0.65322400
| 44> C                   5.76637200   -0.08683400   -1.62395500
| 45> H                   4.38942700    0.15208700   -3.25410100
| 46> H                   6.87487800   -0.43099800    0.18245000
| 47> C                   2.54325600   -4.14863000    3.68589500
| 48> H                   1.08216200   -2.90774000    4.65167500
| 49> H                   3.99637400   -5.16250000    2.47269900
| 50> H                   6.62742400    0.24434000   -2.18951600
| 51> H                   2.57091600   -4.88227700    4.48085000
| 52> N                  -2.35461600   -1.48622000   -0.58604000
| 53> C                  -2.31584000   -2.51804500   -1.55954300
| 54> C                  -3.57137900   -1.12006900    0.04154900
| 55> C                  -1.50701900   -2.37888600   -2.68521200
| 56> C                  -3.06545300   -3.67977300   -1.38688900
| 57> C                  -3.56216100   -0.67398200    1.36251700
| 58> C                  -4.77810200   -1.18220100   -0.65382800
| 59> C                  -1.43563900   -3.40256300   -3.61632400
| 60> H                  -0.93421300   -1.46968200   -2.82465500
| 61> C                  -2.99855800   -4.68925100   -2.33086700
| 62> H                  -3.68574500   -3.79106700   -0.50680900
| 63> C                  -4.74379600   -0.28414300    1.97131600
| 64> H                  -2.62844600   -0.63768700    1.91099700
| 65> C                  -5.95480100   -0.80638400   -0.02939600
| 66> H                  -4.78865300   -1.51533000   -1.68337700
| 67> C                  -2.18018800   -4.56065900   -3.44620000
| 68> H                  -0.80179000   -3.28570600   -4.48622600
| 69> H                  -3.57954700   -5.59114600   -2.18485000
| 70> C                  -5.94648400   -0.35120600    1.28278700
| 71> H                  -4.72219800    0.06114700    2.99744800
| 72> H                  -6.88524500   -0.85588300   -0.58096000
| 73> H                  -2.12586800   -5.35662500   -4.17733100
| 74> H                  -6.86900700   -0.05323500    1.76357000
| 75> N                  -0.17654800    2.77809700   -0.02664800
| 76> C                   0.85731900    3.52236800   -0.65521300
| 77> C                  -1.28859700    3.43307200    0.56225100
| 78> C                   1.46649000    3.02592900   -1.80608100
| 79> C                   1.28606100    4.73255100   -0.11468100
| 80> C                  -1.85516300    2.92207900    1.72844200
| 81> C                  -1.83117100    4.57461600   -0.02474200
| 82> C                   2.50727300    3.72558000   -2.39474400
| 83> H                   1.12482800    2.09134900   -2.23419700
| 84> C                   2.31513300    5.43169000   -0.72110600
| 85> H                   0.82204500    5.11235400    0.78639000
| 86> C                  -2.95931500    3.54115700    2.29096900
| 87> H                  -1.42557100    2.04255400    2.19312000
| 88> C                  -2.92451700    5.19430400    0.55527800
| 89> H                  -1.39963600    4.96699800   -0.93645900
| 90> C                   2.93594500    4.93123000   -1.85846700
| 91> H                   2.97500800    3.32907900   -3.28717600
| 92> H                   2.64520400    6.36837200   -0.28997600
| 93> C                  -3.49782600    4.68107700    1.71163900
| 94> H                  -3.39081900    3.13471700    3.19710400
| 95> H                  -3.34016700    6.07894600    0.08956200
| 96> H                   3.74567900    5.47816800   -2.32338400
| 97> H                  -4.35599900    5.16686100    2.15721800
| 98> *
| 99>
|100>
|101>                          ****END OF INPUT****

CARTESIAN COORDINATES (ANGSTROEM)
---------------------------------
  C     -0.098133    1.392422    0.013400
  C     -1.206379    0.608744   -0.293521
  C     -1.195243   -0.782074   -0.272362
  C      0.032117   -1.431797    0.009360
  C      1.182546   -0.680595    0.300534
  C      1.100950    0.719912    0.348935
  C      0.109058   -2.841916    0.001523
  C      2.208208    1.449176    0.836849
  F     -2.322430    1.221489   -0.696340
  N      0.181728   -3.998619    0.002797
  N      3.112135    2.032424    1.268052
  N      2.402574   -1.315017    0.582671
  C      3.547360   -0.935056   -0.159257
  C      2.472027   -2.261779    1.633121
  C      3.410160   -0.565354   -1.497603
  C      4.806667   -0.885232    0.437911
  C      1.675307   -2.100067    2.765878
  C      3.309547   -3.372776    1.537154
  C      4.513162   -0.135162   -2.217286
  H      2.437023   -0.616389   -1.971486
  C      5.904401   -0.471351   -0.296177
  H      4.917945   -1.152751    1.480642
  C      1.707639   -3.045239    3.778605
  H      1.029699   -1.233925    2.848586
  C      3.345533   -4.301742    2.561909
  H      3.918668   -3.510915    0.653224
  C      5.766372   -0.086834   -1.623955
  H      4.389427    0.152087   -3.254101
  H      6.874878   -0.430998    0.182450
  C      2.543256   -4.148630    3.685895
  H      1.082162   -2.907740    4.651675
  H      3.996374   -5.162500    2.472699
  H      6.627424    0.244340   -2.189516
  H      2.570916   -4.882277    4.480850
  N     -2.354616   -1.486220   -0.586040
  C     -2.315840   -2.518045   -1.559543
  C     -3.571379   -1.120069    0.041549
  C     -1.507019   -2.378886   -2.685212
  C     -3.065453   -3.679773   -1.386889
  C     -3.562161   -0.673982    1.362517
  C     -4.778102   -1.182201   -0.653828
  C     -1.435639   -3.402563   -3.616324
  H     -0.934213   -1.469682   -2.824655
  C     -2.998558   -4.689251   -2.330867
  H     -3.685745   -3.791067   -0.506809
  C     -4.743796   -0.284143    1.971316
  H     -2.628446   -0.637687    1.910997
  C     -5.954801   -0.806384   -0.029396
  H     -4.788653   -1.515330   -1.683377
  C     -2.180188   -4.560659   -3.446200
  H     -0.801790   -3.285706   -4.486226
  H     -3.579547   -5.591146   -2.184850
  C     -5.946484   -0.351206    1.282787
  H     -4.722198    0.061147    2.997448
  H     -6.885245   -0.855883   -0.580960
  H     -2.125868   -5.356625   -4.177331
  H     -6.869007   -0.053235    1.763570
  N     -0.176548    2.778097   -0.026648
  C      0.857319    3.522368   -0.655213
  C     -1.288597    3.433072    0.562251
  C      1.466490    3.025929   -1.806081
  C      1.286061    4.732551   -0.114681
  C     -1.855163    2.922079    1.728442
  C     -1.831171    4.574616   -0.024742
  C      2.507273    3.725580   -2.394744
  H      1.124828    2.091349   -2.234197
  C      2.315133    5.431690   -0.721106
  H      0.822045    5.112354    0.786390
  C     -2.959315    3.541157    2.290969
  H     -1.425571    2.042554    2.193120
  C     -2.924517    5.194304    0.555278
  H     -1.399636    4.966998   -0.936459
  C      2.935945    4.931230   -1.858467
  H      2.975008    3.329079   -3.287176
  H      2.645204    6.368372   -0.289976
  C     -3.497826    4.681077    1.711639
  H     -3.390819    3.134717    3.197104
  H     -3.340167    6.078946    0.089562
  H      3.745679    5.478168   -2.323384
  H     -4.355999    5.166861    2.157218

 Total Charge           Charge          ....    0
 Multiplicity           Mult            ....    1
 Number of Electrons    NEL             ....  338
 Basis Dimension        Dim             .... 1730

ORBITAL ENERGIES
----------------

  NO   OCC          E(Eh)            E(eV)
   0   2.0000     -25.710332      -699.6137
   1   2.0000     -15.137297      -411.9068
   2   2.0000     -15.134756      -411.8376
   3   2.0000     -15.130747      -411.7285
   4   2.0000     -15.102181      -410.9512
   5   2.0000     -15.102131      -410.9499
   6   2.0000     -10.936279      -297.5913
   7   2.0000     -10.926380      -297.3219
   8   2.0000     -10.925533      -297.2989
   9   2.0000     -10.925137      -297.2881
  10   2.0000     -10.888084      -296.2798
  11   2.0000     -10.887860      -296.2737
  12   2.0000     -10.884183      -296.1737
  13   2.0000     -10.884078      -296.1708
  14   2.0000     -10.879926      -296.0578
  15   2.0000     -10.879870      -296.0563
  16   2.0000     -10.879706      -296.0519
  17   2.0000     -10.879336      -296.0418
  18   2.0000     -10.878899      -296.0299
  19   2.0000     -10.878889      -296.0296
  20   2.0000     -10.830737      -294.7193
  21   2.0000     -10.830525      -294.7136
  22   2.0000     -10.830372      -294.7094
  23   2.0000     -10.830363      -294.7092
  24   2.0000     -10.830301      -294.7075
  25   2.0000     -10.830177      -294.7041
  26   2.0000     -10.830101      -294.7020
  27   2.0000     -10.830011      -294.6996
  28   2.0000     -10.829756      -294.6926
  29   2.0000     -10.829586      -294.6880
  30   2.0000     -10.829402      -294.6830
  31   2.0000     -10.829399      -294.6829
  32   2.0000     -10.829378      -294.6824
  33   2.0000     -10.828854      -294.6681
  34   2.0000     -10.828565      -294.6602
  35   2.0000     -10.828294      -294.6529
  36   2.0000     -10.828053      -294.6463
  37   2.0000     -10.827883      -294.6417
  38   2.0000     -10.827739      -294.6378
  39   2.0000     -10.827611      -294.6343
  40   2.0000     -10.827424      -294.6292
  41   2.0000     -10.827264      -294.6248
  42   2.0000     -10.826305      -294.5987
  43   2.0000     -10.826278      -294.5980
  44   2.0000     -10.825168      -294.5678
  45   2.0000     -10.824869      -294.5597
  46   2.0000     -10.824362      -294.5459
  47   2.0000     -10.823614      -294.5255
  48   2.0000     -10.823179      -294.5137
  49   2.0000     -10.823047      -294.5101
  50   2.0000      -1.500646       -40.8347
  51   2.0000      -1.200660       -32.6716
  52   2.0000      -1.191118       -32.4120
  53   2.0000      -1.187243       -32.3065
  54   2.0000      -1.116165       -30.3724
  55   2.0000      -1.115537       -30.3553
  56   2.0000      -1.075971       -29.2787
  57   2.0000      -1.050751       -28.5924
  58   2.0000      -1.050213       -28.5778
  59   2.0000      -1.049328       -28.5537
  60   2.0000      -1.038813       -28.2676
  61   2.0000      -1.036847       -28.2140
  62   2.0000      -1.023004       -27.8374
  63   2.0000      -0.979843       -26.6629
  64   2.0000      -0.963172       -26.2093
  65   2.0000      -0.932990       -25.3880
  66   2.0000      -0.932241       -25.3676
  67   2.0000      -0.931610       -25.3504
  68   2.0000      -0.922867       -25.1125
  69   2.0000      -0.922273       -25.0963
  70   2.0000      -0.920118       -25.0377
  71   2.0000      -0.917850       -24.9760
  72   2.0000      -0.917207       -24.9585
  73   2.0000      -0.916222       -24.9317
  74   2.0000      -0.898961       -24.4620
  75   2.0000      -0.889268       -24.1982
  76   2.0000      -0.887021       -24.1371
  77   2.0000      -0.830794       -22.6070
  78   2.0000      -0.816099       -22.2072
  79   2.0000      -0.772253       -21.0141
  80   2.0000      -0.771451       -20.9923
  81   2.0000      -0.768331       -20.9073
  82   2.0000      -0.766892       -20.8682
  83   2.0000      -0.755668       -20.5628
  84   2.0000      -0.753089       -20.4926
  85   2.0000      -0.746922       -20.3248
  86   2.0000      -0.745856       -20.2958
  87   2.0000      -0.744753       -20.2658
  88   2.0000      -0.743444       -20.2301
  89   2.0000      -0.731592       -19.9076
  90   2.0000      -0.715119       -19.4594
  91   2.0000      -0.709933       -19.3182
  92   2.0000      -0.693887       -18.8816
  93   2.0000      -0.672213       -18.2919
  94   2.0000      -0.664994       -18.0954
  95   2.0000      -0.660324       -17.9683
  96   2.0000      -0.652272       -17.7492
  97   2.0000      -0.652048       -17.7431
  98   2.0000      -0.650541       -17.7021
  99   2.0000      -0.634849       -17.2751
 100   2.0000      -0.624229       -16.9861
 101   2.0000      -0.620614       -16.8878
 102   2.0000      -0.614452       -16.7201
 103   2.0000      -0.605478       -16.4759
 104   2.0000      -0.599219       -16.3056
 105   2.0000      -0.595390       -16.2014
 106   2.0000      -0.594113       -16.1666
 107   2.0000      -0.593539       -16.1510
 108   2.0000      -0.575557       -15.6617
 109   2.0000      -0.572694       -15.5838
 110   2.0000      -0.569829       -15.5058
 111   2.0000      -0.563965       -15.3463
 112   2.0000      -0.563207       -15.3256
 113   2.0000      -0.558406       -15.1950
 114   2.0000      -0.551201       -14.9989
 115   2.0000      -0.547521       -14.8988
 116   2.0000      -0.546611       -14.8740
 117   2.0000      -0.543561       -14.7911
 118   2.0000      -0.541088       -14.7238
 119   2.0000      -0.537173       -14.6172
 120   2.0000      -0.533102       -14.5064
 121   2.0000      -0.532039       -14.4775
 122   2.0000      -0.529814       -14.4170
 123   2.0000      -0.529069       -14.3967
 124   2.0000      -0.527915       -14.3653
 125   2.0000      -0.527159       -14.3447
 126   2.0000      -0.526847       -14.3362
 127   2.0000      -0.512603       -13.9486
 128   2.0000      -0.509135       -13.8543
 129   2.0000      -0.503014       -13.6877
 130   2.0000      -0.490506       -13.3473
 131   2.0000      -0.489154       -13.3106
 132   2.0000      -0.486481       -13.2378
 133   2.0000      -0.482117       -13.1191
 134   2.0000      -0.472389       -12.8544
 135   2.0000      -0.467272       -12.7151
 136   2.0000      -0.465070       -12.6552
 137   2.0000      -0.463652       -12.6166
 138   2.0000      -0.462964       -12.5979
 139   2.0000      -0.460360       -12.5270
 140   2.0000      -0.454415       -12.3653
 141   2.0000      -0.453490       -12.3401
 142   2.0000      -0.452986       -12.3264
 143   2.0000      -0.445461       -12.1216
 144   2.0000      -0.443927       -12.0799
 145   2.0000      -0.442894       -12.0518
 146   2.0000      -0.441138       -12.0040
 147   2.0000      -0.439243       -11.9524
 148   2.0000      -0.438189       -11.9237
 149   2.0000      -0.435752       -11.8574
 150   2.0000      -0.430392       -11.7116
 151   2.0000      -0.428047       -11.6478
 152   2.0000      -0.414620       -11.2824
 153   2.0000      -0.410846       -11.1797
 154   2.0000      -0.395264       -10.7557
 155   2.0000      -0.341053        -9.2805
 156   2.0000      -0.339595        -9.2408
 157   2.0000      -0.324976        -8.8430
 158   2.0000      -0.321567        -8.7503
 159   2.0000      -0.320326        -8.7165
 160   2.0000      -0.319179        -8.6853
 161   2.0000      -0.317403        -8.6370
 162   2.0000      -0.316698        -8.6178
 163   2.0000      -0.314315        -8.5530
 164   2.0000      -0.311147        -8.4667
 165   2.0000      -0.309564        -8.4237
 166   2.0000      -0.262196        -7.1347
 167   2.0000      -0.256703        -6.9852
 168   2.0000      -0.252798        -6.8790
 169   0.0000      -0.008054        -0.2192
 170   0.0000       0.014544         0.3958
 171   0.0000       0.049317         1.3420
 172   0.0000       0.050355         1.3702
 173   0.0000       0.053697         1.4612

MULLIKEN ATOMIC CHARGES
-----------------------
   0 C :   -0.088977
   1 C :    0.412925
   2 C :   -0.151132
   3 C :    0.320667
   4 C :   -0.205798
   5 C :    0.287390
   6 C :   -0.130791
   7 C :   -0.124628
   8 F :   -0.268080
   9 N :   -0.198275
  10 N :   -0.197804
  11 N :    0.076466
  12 C :    0.194803
  13 C :    0.183935
  14 C :   -0.270913
  15 C :   -0.307648
  16 C :   -0.265114
  17 C :   -0.309892
  18 C :   -0.157039
  19 H :    0.175912
  20 C :   -0.106775
  21 H :    0.169158
  22 C :   -0.145318
  23 H :    0.172653
  24 C :   -0.113384
  25 H :    0.169419
  26 C :   -0.178122
  27 H :    0.162604
  28 H :    0.162626
  29 C :   -0.178030
  30 H :    0.162350
  31 H :    0.162293
  32 H :    0.162099
  33 H :    0.161216
  34 N :    0.092928
  35 C :    0.131484
  36 C :    0.213370
  37 C :   -0.246379
  38 C :   -0.271398
  39 C :   -0.272870
  40 C :   -0.306913
  41 C :   -0.150062
  42 H :    0.174562
  43 C :   -0.127306
  44 H :    0.171093
  45 C :   -0.153689
  46 H :    0.175993
  47 C :   -0.118372
  48 H :    0.171910
  49 C :   -0.164821
  50 H :    0.162803
  51 H :    0.163487
  52 C :   -0.175160
  53 H :    0.163406
  54 H :    0.162867
  55 H :    0.162315
  56 H :    0.162389
  57 N :    0.098791
  58 C :    0.138221
  59 C :    0.203796
  60 C :   -0.245836
  61 C :   -0.272482
  62 C :   -0.266241
  63 C :   -0.307308
  64 C :   -0.148171
  65 H :    0.172047
  66 C :   -0.122997
  67 H :    0.171352
  68 C :   -0.147498
  69 H :    0.175110
  70 C :   -0.114551
  71 H :    0.171724
  72 C :   -0.167826
  73 H :    0.163460
  74 H :    0.163324
  75 C :   -0.177053
  76 H :    0.163198
  77 H :    0.163202
  78 H :    0.162968
  79 H :    0.162335
Sum of atomic charges:   -0.0000000

LOEWDIN ATOMIC CHARGES
----------------------
   0 C :   -0.078163
   1 C :   -0.184056
   2 C :   -0.075727
   3 C :   -0.089244
   4 C :   -0.058408
   5 C :   -0.089494
   6 C :   -0.121161
   7 C :   -0.120756
   8 F :    0.199584
   9 N :    0.007238
  10 N :    0.006690
  11 N :    0.281615
  12 C :   -0.165710
  13 C :   -0.167183
  14 C :   -0.112236
  15 C :   -0.111433
  16 C :   -0.111737
  17 C :   -0.110926
  18 C :   -0.139487
  19 H :    0.160069
  20 C :   -0.139669
  21 H :    0.159428
  22 C :   -0.139469
  23 H :    0.160328
  24 C :   -0.139357
  25 H :    0.159190
  26 C :   -0.156105
  27 H :    0.152724
  28 H :    0.152652
  29 C :   -0.154859
  30 H :    0.152601
  31 H :    0.152604
  32 H :    0.149312
  33 H :    0.149317
  34 N :    0.285510
  35 C :   -0.167282
  36 C :   -0.162530
  37 C :   -0.108346
  38 C :   -0.107837
  39 C :   -0.112803
  40 C :   -0.112875
  41 C :   -0.138324
  42 H :    0.160571
  43 C :   -0.137977
  44 H :    0.159700
  45 C :   -0.139355
  46 H :    0.160431
  47 C :   -0.138831
  48 H :    0.159385
  49 C :   -0.150812
  50 H :    0.152845
  51 H :    0.152886
  52 C :   -0.155398
  53 H :    0.152795
  54 H :    0.152751
  55 H :    0.149961
  56 H :    0.149487
  57 N :    0.288630
  58 C :   -0.165420
  59 C :   -0.162973
  60 C :   -0.107838
  61 C :   -0.107608
  62 C :   -0.111371
  63 C :   -0.111288
  64 C :   -0.137716
  65 H :    0.160540
  66 C :   -0.137572
  67 H :    0.159999
  68 C :   -0.138993
  69 H :    0.160519
  70 C :   -0.138412
  71 H :    0.159487
  72 C :   -0.150325
  73 H :    0.152912
  74 H :    0.153007
  75 C :   -0.153219
  76 H :    0.152768
  77 H :    0.152834
  78 H :    0.150135
  79 H :    0.149779

  Mayer bond orders larger than 0.100000
B(  0-C ,  1-C ) :   1.4314 B(  0-C ,  5-C ) :   1.1987 B(  0-C , 57-N ) :   1.0907
B(  1-C ,  2-C ) :   1.4048 B(  1-C ,  8-F ) :   0.9919 B(  2-C ,  3-C ) :   1.2156
B(  2-C , 34-N ) :   1.0353 B(  3-C ,  4-C ) :   1.3964 B(  3-C ,  6-C ) :   0.9586
B(  4-C ,  5-C ) :   1.3554 B(  4-C , 11-N ) :   1.0277 B(  5-C ,  7-C ) :   0.9677
B(  6-C ,  9-N ) :   3.0013 B(  7-C , 10-N ) :   2.9982 B( 11-N , 12-C ) :   0.9597
B( 11-N , 13-C ) :   0.9544 B( 12-C , 14-C ) :   1.4102 B( 12-C , 15-C ) :   1.3903
B( 13-C , 16-C ) :   1.4149 B( 13-C , 17-C ) :   1.3915 B( 14-C , 18-C ) :   1.4243
B( 14-C , 19-H ) :   0.9669 B( 15-C , 20-C ) :   1.4326 B( 15-C , 21-H ) :   0.9863
B( 16-C , 22-C ) :   1.4243 B( 16-C , 23-H ) :   0.9716 B( 17-C , 24-C ) :   1.4394
B( 17-C , 25-H ) :   0.9844 B( 18-C , 26-C ) :   1.4009 B( 18-C , 27-H ) :   0.9842
B( 20-C , 26-C ) :   1.3877 B( 20-C , 28-H ) :   0.9805 B( 22-C , 29-C ) :   1.4058
B( 22-C , 30-H ) :   0.9802 B( 24-C , 29-C ) :   1.3853 B( 24-C , 31-H ) :   0.9800
B( 26-C , 32-H ) :   0.9817 B( 29-C , 33-H ) :   0.9824 B( 34-N , 35-C ) :   0.9410
B( 34-N , 36-C ) :   0.9723 B( 35-C , 37-C ) :   1.4241 B( 35-C , 38-C ) :   1.3993
B( 36-C , 39-C ) :   1.4135 B( 36-C , 40-C ) :   1.3900 B( 37-C , 41-C ) :   1.4269
B( 37-C , 42-H ) :   0.9708 B( 38-C , 43-C ) :   1.4394 B( 38-C , 44-H ) :   0.9808
B( 39-C , 45-C ) :   1.4281 B( 39-C , 46-H ) :   0.9620 B( 40-C , 47-C ) :   1.4356
B( 40-C , 48-H ) :   0.9785 B( 41-C , 49-C ) :   1.4053 B( 41-C , 50-H ) :   0.9804
B( 43-C , 49-C ) :   1.3873 B( 43-C , 51-H ) :   0.9790 B( 45-C , 52-C ) :   1.3990
B( 45-C , 53-H ) :   0.9831 B( 47-C , 52-C ) :   1.3905 B( 47-C , 54-H ) :   0.9808
B( 49-C , 55-H ) :   0.9811 B( 52-C , 56-H ) :   0.9812 B( 57-N , 58-C ) :   0.9431
B( 57-N , 59-C ) :   0.9632 B( 58-C , 60-C ) :   1.4181 B( 58-C , 61-C ) :   1.4036
B( 59-C , 62-C ) :   1.4145 B( 59-C , 63-C ) :   1.3882 B( 60-C , 64-C ) :   1.4312
B( 60-C , 65-H ) :   0.9708 B( 61-C , 66-C ) :   1.4357 B( 61-C , 67-H ) :   0.9813
B( 62-C , 68-C ) :   1.4332 B( 62-C , 69-H ) :   0.9607 B( 63-C , 70-C ) :   1.4366
B( 63-C , 71-H ) :   0.9787 B( 64-C , 72-C ) :   1.4025 B( 64-C , 73-H ) :   0.9792
B( 66-C , 72-C ) :   1.3880 B( 66-C , 74-H ) :   0.9799 B( 68-C , 75-C ) :   1.4011
B( 68-C , 76-H ) :   0.9810 B( 70-C , 75-C ) :   1.3897 B( 70-C , 77-H ) :   0.9802
B( 72-C , 78-H ) :   0.9805 B( 75-C , 79-H ) :   0.9810

MP2 TOTAL ENERGY:    -2066.401080931 Eh

-----------------------------------------------------------------------------
         ABSORPTION SPECTRUM VIA TRANSITION ELECTRIC DIPOLE MOMENTS
-----------------------------------------------------------------------------
State   Energy    Wavelength  fosc         T2        TX        TY        TZ
        (cm-1)      (nm)                 (au**2)    (au)      (au)      (au)
-----------------------------------------------------------------------------
   1   13769.7    726.2   0.166081278   3.97075  -0.44340  -1.94128  -0.07464
   2   17604.5    568.0   0.136947081   2.56097  -1.52368   0.18887  -0.45133
   3   17607.3    567.9   0.148919557   2.78442   1.58522  -0.22700   0.46901
   4   13013.9    768.4   0.033887772   0.85725   0.24605  -0.89062   0.05920
   5   18590.9    537.9   0.206246585   3.65227  -0.69298  -1.75539  -0.30112
   6   20457.5    488.8   0.005401840   0.08693  -0.06761  -0.26308  -0.11466
   7   31927.8    313.2   0.169746835   1.75028   0.45388   0.90762  -0.84883
   8   33225.7    301.0   0.059277350   0.58734  -0.00959  -0.65209  -0.40252
   9   33224.8    301.0   0.383053332   3.79553  -1.56474   0.43889   1.07448
  10   28585.7    349.8   0.043490057   0.50086  -0.19196  -0.12638   0.66936
  11   28595.6    349.7   0.082746820   0.95264  -0.53943  -0.80479   0.11819
  12   25656.4    389.8   0.045490819   0.58372   0.52170  -0.01636  -0.55793
  13   30641.5    326.4   0.032455207   0.34870   0.42301  -0.37317   0.17465
  14   30744.7    325.3   0.017568845   0.18813   0.42397   0.08657  -0.02975
  15   30693.0    325.8   0.013134117   0.14088  -0.09676   0.32865   0.15330
  16   44244.0    226.0   0.029104286   0.21656   0.43454  -0.14302   0.08534
  17   31600.4    316.5   0.137692412   1.43448   0.39879   1.12842  -0.04583
  18   44144.3    226.5   0.047196002   0.35197   0.13104   0.57470   0.06720
  19   43503.6    229.9   0.005867079   0.04440   0.17663   0.09657   0.06224
  20   32786.2    305.0   0.013294066   0.13349   0.03017   0.04087   0.36181
  21   32650.5    306.3   0.003643079   0.03673  -0.08241  -0.15583   0.07522
  22   32855.1    304.4   0.075967885   0.76121   0.73480  -0.22755  -0.41170
  23   31531.9    317.1   0.039415530   0.41152   0.01319  -0.23613  -0.59632
  24   35057.0    285.2   0.036660954   0.34427  -0.17336  -0.35981   0.42983
  25   31737.6    315.1   0.182954318   1.89777   0.95012   0.92018  -0.38512
  26   32819.2    304.7   0.090016520   0.90296   0.00371  -0.09562  -0.94541
  27   33962.4    294.4   0.061392740   0.59511   0.52232   0.40041  -0.40244
  28   33914.0    294.9   0.075915361   0.73693  -0.02676   0.77374   0.37086
  29   34357.9    291.1   0.046434846   0.44493  -0.17163  -0.25560   0.59173
  30   35530.8    281.4   0.197353710   1.82859  -0.03281  -0.07458   1.34980
  31   31811.0    314.4   0.083898728   0.86827  -0.81126   0.39727  -0.22871
  32   37721.4    265.1   0.101169040   0.88295  -0.60944   0.70282   0.13256
  33   34498.4    289.9   0.151669545   1.44735   0.69796  -0.39083  -0.89859
  34   37902.7    263.8   0.419904430   3.64717   1.60722  -0.55162  -0.87162
  35   37211.4    268.7   0.476195569   4.21294  -1.59187   0.74059   1.06322
  36   31823.2    314.2   0.027256066   0.28197  -0.41519  -0.09651  -0.31665
  37   37917.2    263.7   0.044625870   0.38746  -0.06614  -0.60902   0.11036
  38   34164.8    292.7   0.073386762   0.70715  -0.59746   0.03403  -0.59079
  39   30084.1    332.4   0.039630254   0.43368   0.33044  -0.46084   0.33483
  40   34144.2    292.9   0.066042063   0.63676   0.63089   0.19799   0.44671
  41   32435.4    308.3   0.184791018   1.87559   0.33845  -0.93232   0.94436
  42   38104.7    262.4   0.189042560   1.63327  -1.02827   0.72308  -0.23039
  43   41506.0    240.9   0.421002725   3.33926   1.22514   0.59733  -1.21716
  44   32970.9    303.3   0.022760625   0.22726  -0.40753  -0.24225   0.04995
  45   36002.2    277.8   0.005170736   0.04728  -0.16575   0.13340   0.04487
  46   34259.3    291.9   0.047319525   0.45471  -0.11304  -0.57918  -0.32632
  47   31076.5    321.8   0.054930568   0.58191  -0.38251  -0.65780  -0.05381
  48   32806.5    304.8   0.071527749   0.71778   0.66816   0.37898  -0.35737
  49   32832.9    304.6   0.178813091   1.79294   0.63849   1.17440   0.07775
  50   34638.9    288.7   0.013803715   0.13119   0.23302   0.15570   0.22945
  51   29848.3    335.0   0.040513974   0.44685  -0.35876  -0.49721  -0.26631
  52   35142.7    284.6   0.079264926   0.74254   0.29068  -0.80681   0.08435
  53   34025.5    293.9   0.046442256   0.44935   0.22717  -0.38091  -0.50264
  54   35502.0    281.7   0.132216077   1.22605  -0.80656  -0.75276  -0.09411
  55   30410.6    328.8   0.020890188   0.22615   0.36514  -0.20787  -0.22273
  56   34177.1    292.6   0.079421328   0.76503  -0.56333  -0.65422  -0.14027
  57   35056.4    285.3   0.020579661   0.19326   0.08022   0.41771   0.11110
  58   34045.4    293.7   0.079842085   0.77206   0.21466  -0.71708   0.46018
  59   34829.8    287.1   0.005138695   0.04857  -0.12271  -0.13704  -0.12138
  60   36131.9    276.8   0.019497794   0.17765   0.38236   0.08850   0.15370

Dispersion correction           -0.089760054
FINAL SINGLE POINT ENERGY     -2062.439255799592

DIPOLE MOMENT
-------------
                                X             Y             Z
Electronic contribution:     -2.10293       0.50543      -0.34581
Nuclear contribution   :      0.52582       0.54399      -0.36258
                        -----------------------------------------
Total Dipole Moment    :     -1.57711       1.04942      -0.70839
                        -----------------------------------------
Magnitude (a.u.)       :      2.02247
Magnitude (Debye)      :      5.14070

Rotational constants in cm-1:     0.002315     0.002172     0.001481
Rotational constants in MHz :    69.390748    65.102508    44.409379

                             ****ORCA TERMINATED NORMALLY****
TOTAL RUN TIME: 1 days 2 hours 55 minutes 28 seconds 442 msec
