 Gaussian 09, Revision E.01,
 Gaussian 09:  ES64L-G09RevE.01 30-Nov-2015

 ----------------------------------------------------------------------
 #p hf/def2TZVP td=(NStates=50) int=ultrafine scrf=(SMD,solvent=Acetoni
 trile)
 ----------------------------------------------------------------------

 -----
 Title
 -----
 Symbolic Z-matrix:
 Charge =  0 Multiplicity = 1

                         Standard orientation:
 ---------------------------------------------------------------------
 Center     Atomic      Atomic             Coordinates (Angstroms)
 Number     Number       Type             X           Y           Z
 ---------------------------------------------------------------------
      1          6           0        0.473816    1.297792   -0.063327
      2          6           0        1.286346    0.222805    0.239679
      3          6           0        0.837384   -1.082099    0.247737
      4          6           0       -0.509967   -1.305736   -0.042209
      5          6           0       -1.375628   -0.261648   -0.342715
      6          6           0       -0.861622    1.029311   -0.367926
      7          6           0       -1.008620   -2.654333   -0.030373
      8          6           0       -1.706103    2.109798   -0.799357
      9          9           0        2.535771    0.456655    0.577513
     10          7           0       -1.398041   -3.712347   -0.021694
     11          7           0       -2.359816    2.953258   -1.163145
     12          7           0       -2.729898   -0.503190   -0.647181
     13          6           0       -3.723050   -0.111210    0.291724
     14          6           0       -3.071570   -1.138322   -1.868266
     15          6           0       -3.542919   -0.352161    1.643921
     16          6           0       -4.878874    0.527701   -0.135977
     17          6           0       -2.368379   -0.855248   -3.028903
     18          6           0       -4.107756   -2.062119   -1.914484
     19          6           0       -4.503817    0.047052    2.556750
     20          1           0       -2.659472   -0.853254    1.990038
     21          6           0       -5.841557    0.904999    0.777709
     22          1           0       -5.023730    0.730554   -1.179194
     23          6           0       -2.694022   -1.490758   -4.214349
     24          1           0       -1.568862   -0.140012   -3.016524
     25          6           0       -4.437973   -2.676881   -3.104795
     26          1           0       -4.652011   -2.303163   -1.022556
     27          6           0       -5.659084    0.671233    2.130361
     28          1           0       -4.347894   -0.145639    3.601895
     29          1           0       -6.731475    1.396959    0.431423
     30          6           0       -3.732364   -2.399339   -4.263219
     31          1           0       -2.136336   -1.259649   -5.102890
     32          1           0       -5.243168   -3.387789   -3.121850
     33          1           0       -6.407081    0.973393    2.839041
     34          1           0       -3.988392   -2.885305   -5.185792
     35          7           0        1.704388   -2.134723    0.572360
     36          6           0        1.546401   -2.823344    1.804348
     37          6           0        2.859155   -2.331605   -0.233915
     38          6           0        1.159736   -2.150749    2.951236
     39          6           0        1.772459   -4.192236    1.861714
     40          6           0        2.731120   -2.381965   -1.612400
     41          6           0        4.114898   -2.468860    0.339202
     42          6           0        0.992354   -2.841769    4.139646
     43          1           0        0.990095   -1.091394    2.926648
     44          6           0        1.624065   -4.869668    3.053809
     45          1           0        2.060423   -4.723935    0.975392
     46          6           0        3.848760   -2.556666   -2.408978
     47          1           0        1.762186   -2.289382   -2.065131
     48          6           0        5.223175   -2.662339   -0.461041
     49          1           0        4.227245   -2.421892    1.404896
     50          6           0        1.228296   -4.200172    4.200355
     51          1           0        0.688614   -2.306228    5.019872
     52          1           0        1.803556   -5.928318    3.083461
     53          6           0        5.098551   -2.702961   -1.839181
     54          1           0        3.734350   -2.591309   -3.476431
     55          1           0        6.189708   -2.768482   -0.004555
     56          1           0        1.105290   -4.732838    5.124516
     57          1           0        5.964216   -2.846737   -2.458022
     58          7           0        0.977878    2.603140   -0.058832
     59          6           0        0.511194    3.530172    0.912932
     60          6           0        2.091068    2.911019   -0.886161
     61          6           0        0.278577    3.130234    2.217440
     62          6           0        0.280894    4.850561    0.552647
     63          6           0        2.098389    2.496240   -2.208064
     64          6           0        3.175360    3.619193   -0.388804
     65          6           0       -0.188767    4.040415    3.150447
     66          1           0        0.462377    2.114714    2.511839
     67          6           0       -0.164798    5.756695    1.492258
     68          1           0        0.448144    5.164673   -0.459562
     69          6           0        3.182767    2.777523   -3.019611
     70          1           0        1.259771    1.958100   -2.607166
     71          6           0        4.245398    3.912791   -1.210442
     72          1           0        3.186425    3.937719    0.635279
     73          6           0       -0.406948    5.356559    2.796274
     74          1           0       -0.367962    3.715266    4.158349
     75          1           0       -0.337468    6.776086    1.200965
     76          6           0        4.258921    3.491004   -2.528758
     77          1           0        3.174472    2.447337   -4.041707
     78          1           0        5.077811    4.463113   -0.812751
     79          1           0       -0.762053    6.062807    3.522974
     80          1           0        5.096117    3.716269   -3.162223
 ---------------------------------------------------------------------

 SCF Done:  E(RHF) =  -2056.08390427     A.U. after   19 cycles

 Excitation energies and oscillator strengths:

 Excited State   1:      Singlet-A      4.6227 eV  268.21 nm  f=0.2110  <S**2>=0.000
     156 -> 170       -0.23166
     157 -> 170       -0.10226
     157 -> 171       -0.13178
     167 -> 170       -0.14066
     168 -> 170       -0.32378
     168 -> 171        0.11522
     169 -> 170        0.44038
     169 -> 171        0.13464
 This state for optimization and/or second-order correction.
 Total Energy, E(TD-HF/TD-KS) =  -2055.91402441
 Copying the excited state density for this state as the 1-particle RhoCI density.

 Excited State   2:      Singlet-A      4.7482 eV  261.12 nm  f=0.3248  <S**2>=0.000
     156 -> 170        0.10401
     157 -> 170       -0.25503
     167 -> 170       -0.22066
     168 -> 170        0.43708
     169 -> 170        0.29691
     169 -> 171       -0.12397

 Excited State   3:      Singlet-A      5.2096 eV  237.99 nm  f=0.4109  <S**2>=0.000
     157 -> 171       -0.12813
     167 -> 171        0.18766
     168 -> 170        0.19294
     168 -> 171        0.15908
     169 -> 170       -0.12615
     169 -> 171        0.47905

 Excited State   4:      Singlet-A      5.3062 eV  233.66 nm  f=0.1159  <S**2>=0.000
     167 -> 170        0.33260
     167 -> 173        0.18489
     167 -> 175        0.12349
     168 -> 171        0.14896
     168 -> 173        0.12447
     168 -> 175        0.11354
     169 -> 173        0.26295
     169 -> 175        0.17008

 Excited State   5:      Singlet-A      5.3885 eV  230.09 nm  f=0.2053  <S**2>=0.000
     167 -> 174       -0.15256
     167 -> 176       -0.16352
     167 -> 177        0.13963
     168 -> 171        0.24388
     168 -> 172        0.18345
     168 -> 174        0.24272
     168 -> 177       -0.18199
     169 -> 171       -0.10577
     169 -> 173       -0.11158
     169 -> 174       -0.10235

 Excited State   6:      Singlet-A      5.4082 eV  229.25 nm  f=0.1151  <S**2>=0.000
     166 -> 175       -0.11123
     167 -> 171        0.11045
     167 -> 172        0.14067
     167 -> 173        0.11578
     167 -> 174        0.16298
     167 -> 176       -0.25011
     168 -> 176       -0.13865
     168 -> 177        0.11223
     169 -> 172       -0.20849
     169 -> 176        0.29111

 Excited State   7:      Singlet-A      5.4303 eV  228.32 nm  f=0.2067  <S**2>=0.000
     156 -> 171       -0.10069
     167 -> 170       -0.18702
     167 -> 171       -0.13765
     167 -> 172       -0.13810
     167 -> 175        0.16339
     168 -> 171       -0.16355
     168 -> 174        0.24143
     168 -> 176        0.10329
     169 -> 172       -0.18546
     169 -> 173        0.15389

 Excited State   8:      Singlet-A      5.5023 eV  225.33 nm  f=0.0736  <S**2>=0.000
     158 -> 180        0.10313
     166 -> 173       -0.10678
     167 -> 170       -0.10277
     167 -> 172       -0.12199
     167 -> 173        0.11842
     167 -> 175       -0.14903
     167 -> 177        0.10049
     168 -> 171        0.19673
     168 -> 172       -0.22592
     168 -> 173       -0.11707
     169 -> 174        0.19839
     169 -> 177        0.19164

 Excited State   9:      Singlet-A      5.5401 eV  223.79 nm  f=0.0703  <S**2>=0.000
     158 -> 178        0.12691
     159 -> 182        0.14286
     165 -> 176       -0.10613
     167 -> 171        0.19152
     167 -> 172       -0.22044
     167 -> 175       -0.11693
     167 -> 177       -0.11633
     168 -> 173        0.19767
     168 -> 175       -0.16872
     168 -> 176        0.13320
     169 -> 175        0.20932

 Excited State  10:      Singlet-A      5.6025 eV  221.30 nm  f=0.0139  <S**2>=0.000
     156 -> 171        0.12953
     157 -> 170       -0.18856
     158 -> 182        0.12210
     159 -> 178        0.11090
     160 -> 180       -0.11955
     166 -> 172        0.10539
     167 -> 170        0.15265
     167 -> 173       -0.16182
     167 -> 174        0.14795
     167 -> 177        0.12829
     168 -> 176        0.11236
     168 -> 177        0.21414
     169 -> 172       -0.16582
     169 -> 174        0.12625
     169 -> 175       -0.19035

 Excited State  11:      Singlet-A      5.7977 eV  213.85 nm  f=0.0059  <S**2>=0.000
     160 -> 172       -0.16221
     160 -> 174        0.16928
     160 -> 177        0.10999
     162 -> 173       -0.17919
     162 -> 175       -0.14948
     162 -> 177        0.14393
     166 -> 183       -0.11792
     167 -> 180       -0.15966
     167 -> 182       -0.13336
     168 -> 180       -0.12183
     169 -> 178       -0.14439
     169 -> 179        0.12252
     169 -> 180       -0.21861
     169 -> 182       -0.11644

 Excited State  12:      Singlet-A      5.8067 eV  213.52 nm  f=0.0143  <S**2>=0.000
     158 -> 175       -0.12165
     158 -> 176        0.12528
     159 -> 172        0.17474
     161 -> 173       -0.10133
     163 -> 174        0.12636
     163 -> 176       -0.10602
     163 -> 177       -0.12458
     164 -> 170       -0.10204
     165 -> 181        0.13772
     167 -> 180        0.11646
     167 -> 182       -0.20002
     168 -> 178        0.21172
     168 -> 180       -0.15101
     169 -> 178       -0.13799
     169 -> 182        0.12491

 Excited State  13:      Singlet-A      5.8083 eV  213.46 nm  f=0.0030  <S**2>=0.000
     158 -> 172       -0.16872
     159 -> 175        0.15648
     159 -> 176       -0.12376
     161 -> 176        0.11681
     163 -> 173        0.10606
     163 -> 176       -0.11228
     164 -> 181       -0.14145
     167 -> 178        0.23005
     168 -> 180        0.16265
     168 -> 182       -0.18061
     169 -> 178       -0.11640
     169 -> 182        0.17850

 Excited State  14:      Singlet-A      5.9067 eV  209.90 nm  f=0.1733  <S**2>=0.000
     155 -> 170        0.10300
     156 -> 171       -0.20707
     167 -> 170        0.33194
     167 -> 175       -0.11194
     168 -> 171       -0.25297
     169 -> 170        0.23940
     169 -> 171        0.16174
     169 -> 177        0.12419

 Excited State  15:      Singlet-A      5.9429 eV  208.63 nm  f=0.0167  <S**2>=0.000
     156 -> 170        0.18032
     157 -> 171        0.10729
     159 -> 173        0.10038
     159 -> 176       -0.10625
     160 -> 177        0.10364
     161 -> 172        0.17937
     163 -> 175       -0.13247
     163 -> 176        0.12168
     164 -> 178       -0.16932
     165 -> 180        0.12781
     165 -> 182       -0.11151
     166 -> 182        0.13183
     167 -> 181       -0.18755
     168 -> 183       -0.14921
     169 -> 184        0.13538
     169 -> 185       -0.10417

 Excited State  16:      Singlet-A      6.0260 eV  205.75 nm  f=0.0873  <S**2>=0.000
     157 -> 171       -0.12387
     158 -> 177        0.10706
     160 -> 173        0.15173
     160 -> 175        0.10561
     162 -> 172       -0.17215
     162 -> 174        0.14644
     164 -> 180        0.11343
     165 -> 182       -0.11478
     166 -> 180       -0.14625
     167 -> 183        0.10690
     168 -> 170        0.13572
     169 -> 171        0.16212
     169 -> 183        0.17398

 Excited State  17:      Singlet-A      6.1063 eV  203.04 nm  f=0.2193  <S**2>=0.000
     156 -> 171        0.13809
     159 -> 176       -0.11199
     161 -> 175        0.14444
     161 -> 176       -0.12171
     163 -> 172       -0.18191
     164 -> 182        0.17824
     165 -> 178        0.15217
     165 -> 180       -0.10894
     166 -> 178       -0.11955
     167 -> 170        0.17763
     167 -> 184       -0.10445
     167 -> 185        0.10091
     168 -> 171        0.14776
     168 -> 181       -0.11308
     168 -> 183        0.10114

 Excited State  18:      Singlet-A      6.2929 eV  197.02 nm  f=0.0092  <S**2>=0.000
     155 -> 171        0.11498
     156 -> 170        0.21436
     157 -> 171        0.24407
     167 -> 171        0.40073
     168 -> 170       -0.17653

 Excited State  19:      Singlet-A      6.6344 eV  186.88 nm  f=0.1662  <S**2>=0.000
     153 -> 170        0.11579
     154 -> 170        0.10235
     157 -> 170        0.42580
     161 -> 170        0.16039
     166 -> 170       -0.15541
     168 -> 170        0.18702
     168 -> 171        0.12925
     169 -> 170        0.22650

 Excited State  20:      Singlet-A      6.6763 eV  185.71 nm  f=0.3003  <S**2>=0.000
     154 -> 170        0.11125
     156 -> 170        0.33942
     165 -> 170        0.12156
     167 -> 171       -0.29458
     168 -> 171        0.19038
     169 -> 171        0.14540

 Excited State  21:      Singlet-A      6.7144 eV  184.66 nm  f=0.0566  <S**2>=0.000
     161 -> 182        0.17307
     163 -> 178        0.16525
     164 -> 173       -0.18268
     164 -> 174        0.11400
     164 -> 175        0.19035
     165 -> 171        0.10644
     165 -> 176       -0.13189
     165 -> 177       -0.19103
     166 -> 172        0.10877
     166 -> 175        0.17341
     167 -> 176       -0.13114
     168 -> 172        0.10549
     168 -> 174        0.10912
     169 -> 172       -0.14654
     169 -> 176        0.10247

 Excited State  22:      Singlet-A      6.7288 eV  184.26 nm  f=0.1626  <S**2>=0.000
     161 -> 180       -0.10657
     162 -> 180       -0.10819
     162 -> 181       -0.11291
     164 -> 177       -0.18705
     165 -> 173       -0.15971
     165 -> 174        0.17881
     166 -> 174        0.14327
     166 -> 175       -0.11569
     166 -> 177        0.20339
     168 -> 172        0.12534
     169 -> 173       -0.13515

 Excited State  23:      Singlet-A      6.7962 eV  182.43 nm  f=2.9749  <S**2>=0.000
     161 -> 178       -0.17117
     162 -> 180       -0.10613
     163 -> 182       -0.14866
     164 -> 172        0.14805
     164 -> 174       -0.10059
     164 -> 175        0.12188
     164 -> 176        0.10431
     165 -> 173        0.13480
     165 -> 175       -0.15030
     165 -> 177        0.14325
     166 -> 174        0.13948
     166 -> 175        0.10436
     166 -> 177        0.12800
     167 -> 172        0.14662
     169 -> 173       -0.11246
     169 -> 176        0.11884

 Excited State  24:      Singlet-A      6.8737 eV  180.38 nm  f=0.1082  <S**2>=0.000
     161 -> 170       -0.12631
     163 -> 178       -0.10432
     163 -> 181        0.17227
     164 -> 176        0.22707
     165 -> 172        0.23757
     165 -> 174        0.14889
     166 -> 173       -0.10104
     166 -> 174       -0.10008
     167 -> 175        0.12792
     168 -> 174       -0.11631
     168 -> 177        0.12814

 Excited State  25:      Singlet-A      6.9166 eV  179.26 nm  f=0.2075  <S**2>=0.000
     157 -> 170       -0.12203
     162 -> 180        0.11796
     164 -> 173        0.13688
     164 -> 174        0.13626
     165 -> 175       -0.11551
     165 -> 176        0.11661
     166 -> 172        0.21331
     166 -> 173       -0.15628
     166 -> 176       -0.11941
     167 -> 177       -0.13934
     169 -> 172        0.12030
     169 -> 175        0.17022

 Excited State  26:      Singlet-A      6.9757 eV  177.74 nm  f=0.6778  <S**2>=0.000
     157 -> 171        0.12498
     161 -> 181       -0.13598
     163 -> 170        0.14940
     164 -> 172       -0.18846
     165 -> 174       -0.13664
     165 -> 176       -0.14064
     166 -> 173       -0.17513
     166 -> 175       -0.11951
     167 -> 172        0.11537
     168 -> 173       -0.10086
     168 -> 177       -0.12535
     169 -> 174       -0.12190
     169 -> 177       -0.10462

 Excited State  27:      Singlet-A      7.0605 eV  175.60 nm  f=0.0490  <S**2>=0.000
     144 -> 170       -0.11259
     147 -> 170        0.16991
     151 -> 171        0.17030
     151 -> 210        0.12665
     152 -> 208        0.13808
     156 -> 192       -0.12485
     160 -> 170        0.14701

 Excited State  28:      Singlet-A      7.1121 eV  174.33 nm  f=0.5668  <S**2>=0.000
     161 -> 176       -0.18293
     163 -> 172       -0.18382
     163 -> 174       -0.13940
     164 -> 170        0.25519
     165 -> 181       -0.16431
     166 -> 181        0.10722
     167 -> 182       -0.17109
     168 -> 178        0.15684
     168 -> 180       -0.12209
     169 -> 178       -0.13992
     169 -> 182        0.11045

 Excited State  29:      Singlet-A      7.1208 eV  174.11 nm  f=0.0842  <S**2>=0.000
     147 -> 171       -0.12683
     151 -> 170       -0.20279
     157 -> 171        0.10017
     159 -> 170       -0.12139
     166 -> 170        0.10909

 Excited State  30:      Singlet-A      7.1414 eV  173.61 nm  f=0.1927  <S**2>=0.000
     151 -> 170       -0.11951
     161 -> 174       -0.10188
     162 -> 172        0.10536
     162 -> 173       -0.13171
     162 -> 175       -0.10246
     163 -> 176       -0.11862
     164 -> 171       -0.11765
     165 -> 170        0.16369
     166 -> 183       -0.10551
     167 -> 180        0.12116
     168 -> 182        0.13663
     169 -> 178        0.10308
     169 -> 180        0.12223

 Excited State  31:      Singlet-A      7.1882 eV  172.48 nm  f=1.4309  <S**2>=0.000
     156 -> 170       -0.12252
     157 -> 171        0.15497
     161 -> 172       -0.11193
     162 -> 170        0.11648
     163 -> 176       -0.11188
     164 -> 181       -0.12771
     165 -> 170        0.10614
     167 -> 178       -0.10455
     168 -> 180       -0.11148
     169 -> 183        0.12850

 Excited State  32:      Singlet-A      7.2254 eV  171.59 nm  f=0.6404  <S**2>=0.000
     157 -> 171        0.11196
     160 -> 173        0.12431
     161 -> 172        0.10821
     162 -> 172        0.13606
     162 -> 173       -0.18106
     162 -> 174       -0.14560
     164 -> 181        0.10431
     165 -> 170       -0.13793
     165 -> 183       -0.10531
     166 -> 171        0.10105
     166 -> 184        0.10187
     167 -> 178        0.14340
     168 -> 180        0.12917
     169 -> 181        0.10210
     169 -> 182        0.14467

 Excited State  33:      Singlet-A      7.3336 eV  169.06 nm  f=0.0280  <S**2>=0.000
     152 -> 170        0.13300
     156 -> 171        0.18615
     157 -> 170        0.11121
     158 -> 170        0.12672
     161 -> 170       -0.15540
     164 -> 182       -0.10731
     165 -> 178       -0.10391
     168 -> 181       -0.16252
     169 -> 181        0.10241

 Excited State  34:      Singlet-A      7.4205 eV  167.08 nm  f=0.3096  <S**2>=0.000
     156 -> 171        0.11142
     158 -> 170        0.17178
     160 -> 170        0.15843
     167 -> 184        0.10251
     168 -> 171       -0.11957
     168 -> 181        0.14365
     169 -> 181       -0.14098

 Excited State  35:      Singlet-A      7.4329 eV  166.81 nm  f=0.0626  <S**2>=0.000
     159 -> 170       -0.37345
     160 -> 170       -0.10047
     163 -> 170        0.40061

 Excited State  36:      Singlet-A      7.4720 eV  165.93 nm  f=0.2514  <S**2>=0.000
     156 -> 171        0.29653
     160 -> 170       -0.13263
     161 -> 170        0.13684
     168 -> 171       -0.21662
     169 -> 171        0.12956

 Excited State  37:      Singlet-A      7.5055 eV  165.19 nm  f=0.0251  <S**2>=0.000
     157 -> 171        0.11615
     158 -> 172       -0.11836
     161 -> 172       -0.10093
     162 -> 170       -0.13692
     162 -> 174        0.13149
     162 -> 177        0.15317
     163 -> 175        0.12397
     164 -> 178        0.14372
     165 -> 180       -0.12176
     166 -> 182       -0.13632
     167 -> 181       -0.21377
     168 -> 183       -0.16609
     169 -> 183       -0.10497
     169 -> 184        0.18534
     169 -> 185       -0.12826

 Excited State  38:      Singlet-A      7.5409 eV  164.41 nm  f=0.0563  <S**2>=0.000
     158 -> 170       -0.17031
     161 -> 170        0.33134
     162 -> 170       -0.17290
     164 -> 170        0.15241
     166 -> 170        0.12116

 Excited State  39:      Singlet-A      7.5597 eV  164.01 nm  f=0.0416  <S**2>=0.000
     151 -> 170        0.13969
     157 -> 171       -0.10736
     160 -> 171        0.10327
     161 -> 170        0.17370
     163 -> 170        0.22347
     165 -> 170        0.13644
     166 -> 170       -0.11769

 Excited State  40:      Singlet-A      7.5999 eV  163.14 nm  f=0.0016  <S**2>=0.000
     167 -> 187       -0.11538
     168 -> 179       -0.17387
     169 -> 172        0.12844
     169 -> 178       -0.12251
     169 -> 179       -0.39492
     169 -> 180       -0.12046

 Excited State  41:      Singlet-A      7.6600 eV  161.86 nm  f=0.0140  <S**2>=0.000
     151 -> 170        0.10080
     156 -> 170       -0.10194
     157 -> 171        0.22076
     161 -> 170       -0.13290
     165 -> 170       -0.15844
     167 -> 171       -0.11505
     167 -> 186        0.10346
     168 -> 179       -0.17562
     169 -> 179        0.16773
     169 -> 180        0.10468
     169 -> 181       -0.10375

 Excited State  42:      Singlet-A      7.6882 eV  161.27 nm  f=0.0109  <S**2>=0.000
     157 -> 171       -0.14512
     164 -> 170       -0.10556
     168 -> 172        0.11862
     168 -> 179       -0.36745
     168 -> 187        0.10219

 Excited State  43:      Singlet-A      7.7327 eV  160.34 nm  f=0.0524  <S**2>=0.000
     156 -> 171       -0.10341
     158 -> 170        0.26654
     164 -> 170        0.43567
     166 -> 170        0.17795

 Excited State  44:      Singlet-A      7.7445 eV  160.09 nm  f=0.0059  <S**2>=0.000
     164 -> 170        0.15404
     166 -> 170       -0.13851
     167 -> 178       -0.10454
     167 -> 179       -0.33352
     167 -> 180       -0.12753
     168 -> 179       -0.10739
     168 -> 187       -0.10542
     169 -> 186       -0.18905
     169 -> 187       -0.16305

 Excited State  45:      Singlet-A      7.7642 eV  159.69 nm  f=0.0128  <S**2>=0.000
     156 -> 170       -0.22297
     157 -> 171        0.15323
     159 -> 170        0.20219
     165 -> 170        0.38643
     166 -> 170       -0.16690

 Excited State  46:      Singlet-A      7.7975 eV  159.01 nm  f=0.0029  <S**2>=0.000
     158 -> 170       -0.10831
     160 -> 170        0.18504
     161 -> 170        0.18301
     162 -> 170        0.48795
     166 -> 170       -0.12895
     169 -> 183       -0.10647

 Excited State  47:      Singlet-A      7.8051 eV  158.85 nm  f=0.0743  <S**2>=0.000
     160 -> 171        0.14882
     162 -> 170        0.14014
     162 -> 171        0.29147
     164 -> 170       -0.20211
     165 -> 170        0.24087
     166 -> 170        0.35565

 Excited State  48:      Singlet-A      7.8632 eV  157.68 nm  f=0.0315  <S**2>=0.000
     151 -> 170       -0.10024
     157 -> 170       -0.12342
     158 -> 171       -0.15645
     160 -> 171        0.31827
     162 -> 171        0.22769
     163 -> 170       -0.10340
     164 -> 170        0.12183
     166 -> 170       -0.29722

 Excited State  49:      Singlet-A      7.9354 eV  156.24 nm  f=0.0597  <S**2>=0.000
     159 -> 170        0.38237
     163 -> 170        0.37665
     165 -> 170       -0.21132

 Excited State  50:      Singlet-A      7.9668 eV  155.63 nm  f=0.0373  <S**2>=0.000
     158 -> 170        0.38069
     160 -> 170        0.17196
     161 -> 170        0.33125
     162 -> 170       -0.12498
     164 -> 170       -0.18671
     166 -> 170       -0.12075

 The electronic state is 1-A.
 Alpha  occ. eigenvalues --  -26.33240 -15.59658 -15.59515 -15.59386 -15.57699
 Alpha  occ. eigenvalues --  -15.57685 -11.34323 -11.32650 -11.32448 -11.32370
 Alpha  occ. eigenvalues --  -11.29331 -11.29296 -11.28790 -11.28790 -11.28147
 Alpha  occ. eigenvalues --  -11.28058 -11.28019 -11.27994 -11.27977 -11.27941
 Alpha  occ. eigenvalues --  -11.23095 -11.23090 -11.23077 -11.23058 -11.23056
 Alpha  occ. eigenvalues --  -11.23044 -11.23044 -11.23043 -11.23038 -11.23019
 Alpha  occ. eigenvalues --  -11.23001 -11.22982 -11.22852 -11.22798 -11.22764
 Alpha  occ. eigenvalues --  -11.22753 -11.22753 -11.22707 -11.22680 -11.22665
 Alpha  occ. eigenvalues --  -11.22658 -11.22642 -11.22636 -11.22523 -11.22465
 Alpha  occ. eigenvalues --  -11.22426 -11.22390 -11.22387 -11.22387 -11.22235
 Alpha  occ. eigenvalues --   -1.66447  -1.31551  -1.30187  -1.29839  -1.25069
 Alpha  occ. eigenvalues --   -1.24931  -1.19479  -1.16389  -1.16362  -1.16308
 Alpha  occ. eigenvalues --   -1.15056  -1.14876  -1.13336  -1.08361  -1.06619
 Alpha  occ. eigenvalues --   -1.03278  -1.03244  -1.03209  -1.02339  -1.02313
 Alpha  occ. eigenvalues --   -1.02187  -1.02023  -1.02003  -1.01916  -0.99436
 Alpha  occ. eigenvalues --   -0.98676  -0.98501  -0.91653  -0.90056  -0.85068
 Alpha  occ. eigenvalues --   -0.84987  -0.84933  -0.84890  -0.83658  -0.83594
 Alpha  occ. eigenvalues --   -0.83239  -0.82976  -0.82923  -0.82821  -0.81089
 Alpha  occ. eigenvalues --   -0.79612  -0.79088  -0.77411  -0.74112  -0.73759
 Alpha  occ. eigenvalues --   -0.72942  -0.72644  -0.72560  -0.71885  -0.71751
 Alpha  occ. eigenvalues --   -0.69515  -0.69166  -0.68161  -0.67365  -0.66499
 Alpha  occ. eigenvalues --   -0.66352  -0.66345  -0.66202  -0.64326  -0.63798
 Alpha  occ. eigenvalues --   -0.63518  -0.62858  -0.62718  -0.62272  -0.61980
 Alpha  occ. eigenvalues --   -0.61465  -0.61112  -0.60770  -0.60594  -0.60179
 Alpha  occ. eigenvalues --   -0.60024  -0.59163  -0.59014  -0.58975  -0.58953
 Alpha  occ. eigenvalues --   -0.58896  -0.58864  -0.58243  -0.57400  -0.56862
 Alpha  occ. eigenvalues --   -0.53890  -0.53454  -0.53392  -0.52858  -0.52160
 Alpha  occ. eigenvalues --   -0.52071  -0.51971  -0.51795  -0.51711  -0.51507
 Alpha  occ. eigenvalues --   -0.51046  -0.50974  -0.50957  -0.50093  -0.50000
 Alpha  occ. eigenvalues --   -0.49928  -0.49762  -0.49601  -0.49459  -0.49270
 Alpha  occ. eigenvalues --   -0.49090  -0.48868  -0.45232  -0.44719  -0.44028
 Alpha  occ. eigenvalues --   -0.37984  -0.37624  -0.35422  -0.35273  -0.35177
 Alpha  occ. eigenvalues --   -0.34677  -0.34612  -0.34596  -0.34079  -0.33876
 Alpha  occ. eigenvalues --   -0.33836  -0.29673  -0.29170  -0.28812
 Alpha virt. eigenvalues --    0.04850   0.07498   0.10456   0.11077   0.11170
 Alpha virt. eigenvalues --    0.11282   0.11307   0.11413   0.13181   0.13214
 Alpha virt. eigenvalues --    0.13417   0.13511   0.13664   0.14738   0.15027

 Mulliken charges:
               1
     1  C   -0.210435
     2  C    0.502223
     3  C   -0.180243
     4  C    0.466922
     5  C   -0.136335
     6  C    0.461446
     7  C   -0.264850
     8  C   -0.229680
     9  F   -0.290765
    10  N   -0.202475
    11  N   -0.203188
    12  N    0.081125
    13  C    0.261047
    14  C    0.223996
    15  C   -0.359998
    16  C   -0.341546
    17  C   -0.326399
    18  C   -0.333625
    19  C   -0.098847
    20  H    0.169019
    21  C   -0.071089
    22  H    0.163542
    23  C   -0.124773
    24  H    0.172318
    25  C   -0.081784
    26  H    0.163406
    27  C   -0.197143
    28  H    0.164001
    29  H    0.163475
    30  C   -0.190433
    31  H    0.163019
    32  H    0.163029
    33  H    0.163156
    34  H    0.162998
    35  N    0.088137
    36  C    0.122909
    37  C    0.247754
    38  C   -0.280015
    39  C   -0.282823
    40  C   -0.344275
    41  C   -0.313124
    42  C   -0.146833
    43  H    0.175269
    44  C   -0.109340
    45  H    0.165493
    46  C   -0.106855
    47  H    0.166973
    48  C   -0.096573
    49  H    0.166181
    50  C   -0.159336
    51  H    0.162998
    52  H    0.162886
    53  C   -0.178352
    54  H    0.163535
    55  H    0.163324
    56  H    0.164028
    57  H    0.163944
    58  N    0.097414
    59  C    0.132237
    60  C    0.215296
    61  C   -0.284908
    62  C   -0.289071
    63  C   -0.310640
    64  C   -0.305092
    65  C   -0.140293
    66  H    0.174646
    67  C   -0.104476
    68  H    0.165079
    69  C   -0.129846
    70  H    0.172529
    71  C   -0.108208
    72  H    0.166244
    73  C   -0.159642
    74  H    0.162855
    75  H    0.163046
    76  C   -0.168007
    77  H    0.162585
    78  H    0.163181
    79  H    0.164122
    80  H    0.163926
 Sum of Mulliken charges =  -0.00000

 Dipole moment (field-independent basis, Debye):
    X=              4.4408    Y=              1.1399    Z=              1.7706  Tot=              4.9148
 Quadrupole moment (field-independent basis, Debye-Ang):
   XX=           -277.4351   YY=           -305.9283   ZZ=           -251.4528
   XY=              1.6301   XZ=            -12.0624   YZ=              7.9091

 Normal termination of Gaussian 09 at Sun Jul  3 08:05:28 2022.
