 Gaussian 09, Revision E.01,
 Gaussian 09:  ES64L-G09RevE.01 30-Nov-2015

 ----------------------------------------------------------------------
 #p m06l/def2TZVP td=(NStates=50) int=ultrafine scrf=(SMD,solvent=Aceto
 nitrile)
 ----------------------------------------------------------------------

 -----
 Title
 -----
 Symbolic Z-matrix:
 Charge =  0 Multiplicity = 1

                         Standard orientation:
 ---------------------------------------------------------------------
 Center     Atomic      Atomic             Coordinates (Angstroms)
 Number     Number       Type             X           Y           Z
 ---------------------------------------------------------------------
      1          6           0       -0.098133    1.392422    0.013400
      2          6           0       -1.206379    0.608744   -0.293521
      3          6           0       -1.195243   -0.782074   -0.272362
      4          6           0        0.032117   -1.431797    0.009360
      5          6           0        1.182546   -0.680595    0.300534
      6          6           0        1.100950    0.719912    0.348935
      7          6           0        0.109058   -2.841916    0.001523
      8          6           0        2.208208    1.449176    0.836849
      9          9           0       -2.322430    1.221489   -0.696340
     10          7           0        0.181728   -3.998619    0.002797
     11          7           0        3.112135    2.032424    1.268052
     12          7           0        2.402574   -1.315017    0.582671
     13          6           0        3.547360   -0.935056   -0.159257
     14          6           0        2.472027   -2.261779    1.633121
     15          6           0        3.410160   -0.565354   -1.497603
     16          6           0        4.806667   -0.885232    0.437911
     17          6           0        1.675307   -2.100067    2.765878
     18          6           0        3.309547   -3.372776    1.537154
     19          6           0        4.513162   -0.135162   -2.217286
     20          1           0        2.437023   -0.616389   -1.971486
     21          6           0        5.904401   -0.471351   -0.296177
     22          1           0        4.917945   -1.152751    1.480642
     23          6           0        1.707639   -3.045239    3.778605
     24          1           0        1.029699   -1.233925    2.848586
     25          6           0        3.345533   -4.301742    2.561909
     26          1           0        3.918668   -3.510915    0.653224
     27          6           0        5.766372   -0.086834   -1.623955
     28          1           0        4.389427    0.152087   -3.254101
     29          1           0        6.874878   -0.430998    0.182450
     30          6           0        2.543256   -4.148630    3.685895
     31          1           0        1.082162   -2.907740    4.651675
     32          1           0        3.996374   -5.162500    2.472699
     33          1           0        6.627424    0.244340   -2.189516
     34          1           0        2.570916   -4.882277    4.480850
     35          7           0       -2.354616   -1.486220   -0.586040
     36          6           0       -2.315840   -2.518045   -1.559543
     37          6           0       -3.571379   -1.120069    0.041549
     38          6           0       -1.507019   -2.378886   -2.685212
     39          6           0       -3.065453   -3.679773   -1.386889
     40          6           0       -3.562161   -0.673982    1.362517
     41          6           0       -4.778102   -1.182201   -0.653828
     42          6           0       -1.435639   -3.402563   -3.616324
     43          1           0       -0.934213   -1.469682   -2.824655
     44          6           0       -2.998558   -4.689251   -2.330867
     45          1           0       -3.685745   -3.791067   -0.506809
     46          6           0       -4.743796   -0.284143    1.971316
     47          1           0       -2.628446   -0.637687    1.910997
     48          6           0       -5.954801   -0.806384   -0.029396
     49          1           0       -4.788653   -1.515330   -1.683377
     50          6           0       -2.180188   -4.560659   -3.446200
     51          1           0       -0.801790   -3.285706   -4.486226
     52          1           0       -3.579547   -5.591146   -2.184850
     53          6           0       -5.946484   -0.351206    1.282787
     54          1           0       -4.722198    0.061147    2.997448
     55          1           0       -6.885245   -0.855883   -0.580960
     56          1           0       -2.125868   -5.356625   -4.177331
     57          1           0       -6.869007   -0.053235    1.763570
     58          7           0       -0.176548    2.778097   -0.026648
     59          6           0        0.857319    3.522368   -0.655213
     60          6           0       -1.288597    3.433072    0.562251
     61          6           0        1.466490    3.025929   -1.806081
     62          6           0        1.286061    4.732551   -0.114681
     63          6           0       -1.855163    2.922079    1.728442
     64          6           0       -1.831171    4.574616   -0.024742
     65          6           0        2.507273    3.725580   -2.394744
     66          1           0        1.124828    2.091349   -2.234197
     67          6           0        2.315133    5.431690   -0.721106
     68          1           0        0.822045    5.112354    0.786390
     69          6           0       -2.959315    3.541157    2.290969
     70          1           0       -1.425571    2.042554    2.193120
     71          6           0       -2.924517    5.194304    0.555278
     72          1           0       -1.399636    4.966998   -0.936459
     73          6           0        2.935945    4.931230   -1.858467
     74          1           0        2.975008    3.329079   -3.287176
     75          1           0        2.645204    6.368372   -0.289976
     76          6           0       -3.497826    4.681077    1.711639
     77          1           0       -3.390819    3.134717    3.197104
     78          1           0       -3.340167    6.078946    0.089562
     79          1           0        3.745679    5.478168   -2.323384
     80          1           0       -4.355999    5.166861    2.157218
 ---------------------------------------------------------------------

 SCF Done:  E(RM06L) =  -2068.82069863     A.U. after   17 cycles

 Excitation energies and oscillator strengths:

 Excited State   1:      Singlet-A      2.4315 eV  509.91 nm  f=0.0357  <S**2>=0.000
     167 -> 170        0.18734
     169 -> 170        0.66826
 This state for optimization and/or second-order correction.
 Total Energy, E(TD-HF/TD-KS) =  -2068.73134334
 Copying the excited state density for this state as the 1-particle RhoCI density.

 Excited State   2:      Singlet-A      2.6569 eV  466.65 nm  f=0.2359  <S**2>=0.000
     167 -> 170        0.40346
     168 -> 170        0.54121
     168 -> 171        0.11236
     169 -> 170       -0.15520

 Excited State   3:      Singlet-A      2.7523 eV  450.48 nm  f=0.2282  <S**2>=0.000
     167 -> 170        0.52777
     168 -> 170       -0.42350
     169 -> 171        0.16002

 Excited State   4:      Singlet-A      2.9668 eV  417.90 nm  f=0.0480  <S**2>=0.000
     167 -> 170       -0.12346
     169 -> 171        0.67843

 Excited State   5:      Singlet-A      2.9979 eV  413.57 nm  f=0.0876  <S**2>=0.000
     167 -> 171        0.35195
     168 -> 171        0.60281

 Excited State   6:      Singlet-A      3.1123 eV  398.36 nm  f=0.2580  <S**2>=0.000
     167 -> 171        0.60045
     168 -> 171       -0.32572
     169 -> 170       -0.10890

 Excited State   7:      Singlet-A      3.6704 eV  337.80 nm  f=0.0159  <S**2>=0.000
     169 -> 172        0.64263
     169 -> 173       -0.25329

 Excited State   8:      Singlet-A      3.7587 eV  329.86 nm  f=0.0005  <S**2>=0.000
     167 -> 172       -0.13811
     169 -> 173        0.19660
     169 -> 174        0.65301

 Excited State   9:      Singlet-A      3.7744 eV  328.49 nm  f=0.0118  <S**2>=0.000
     166 -> 170       -0.14855
     167 -> 172       -0.18033
     167 -> 173       -0.13142
     168 -> 172       -0.28799
     168 -> 173       -0.13651
     169 -> 172        0.19055
     169 -> 173        0.48031
     169 -> 174       -0.16545
     169 -> 175       -0.12265

 Excited State  10:      Singlet-A      3.7960 eV  326.62 nm  f=0.0094  <S**2>=0.000
     166 -> 170       -0.11894
     167 -> 172       -0.11145
     167 -> 173       -0.10139
     168 -> 172        0.57345
     168 -> 173        0.11942
     168 -> 174       -0.19693
     169 -> 173        0.18332
     169 -> 174       -0.15355

 Excited State  11:      Singlet-A      3.8089 eV  325.51 nm  f=0.0052  <S**2>=0.000
     166 -> 170        0.66153
     167 -> 172       -0.15066
     169 -> 173        0.11054

 Excited State  12:      Singlet-A      3.8299 eV  323.73 nm  f=0.0010  <S**2>=0.000
     165 -> 170       -0.26875
     167 -> 172       -0.19885
     169 -> 175        0.59749
     169 -> 176       -0.10824

 Excited State  13:      Singlet-A      3.8399 eV  322.88 nm  f=0.0018  <S**2>=0.000
     165 -> 170       -0.32846
     168 -> 173        0.55594
     168 -> 174        0.17368
     169 -> 175       -0.17090

 Excited State  14:      Singlet-A      3.8445 eV  322.50 nm  f=0.0065  <S**2>=0.000
     165 -> 170        0.54317
     167 -> 172       -0.11836
     168 -> 173        0.32099
     168 -> 174        0.14849
     169 -> 175        0.18064

 Excited State  15:      Singlet-A      3.8781 eV  319.70 nm  f=0.0011  <S**2>=0.000
     167 -> 173       -0.15737
     169 -> 176        0.65621
     169 -> 177        0.12815

 Excited State  16:      Singlet-A      3.8944 eV  318.37 nm  f=0.0024  <S**2>=0.000
     164 -> 170        0.61242
     167 -> 172        0.21956
     167 -> 173       -0.14019
     167 -> 174        0.12332

 Excited State  17:      Singlet-A      3.9019 eV  317.75 nm  f=0.0043  <S**2>=0.000
     164 -> 170       -0.32085
     167 -> 172        0.42979
     167 -> 173       -0.14433
     167 -> 174        0.32626
     169 -> 173        0.15736
     169 -> 175        0.11517

 Excited State  18:      Singlet-A      3.9311 eV  315.39 nm  f=0.0051  <S**2>=0.000
     162 -> 170       -0.15098
     163 -> 170        0.60074
     168 -> 174        0.23215
     168 -> 175        0.15822

 Excited State  19:      Singlet-A      3.9427 eV  314.47 nm  f=0.0148  <S**2>=0.000
     162 -> 170        0.46036
     163 -> 170        0.19989
     167 -> 173        0.24620
     168 -> 175       -0.12492
     169 -> 177       -0.34443

 Excited State  20:      Singlet-A      3.9500 eV  313.88 nm  f=0.0124  <S**2>=0.000
     161 -> 170        0.14319
     162 -> 170        0.43014
     163 -> 170        0.10421
     167 -> 173       -0.18246
     167 -> 177       -0.14670
     169 -> 175       -0.10570
     169 -> 176       -0.14647
     169 -> 177        0.40335

 Excited State  21:      Singlet-A      3.9627 eV  312.88 nm  f=0.0232  <S**2>=0.000
     159 -> 170        0.12947
     162 -> 170        0.17098
     163 -> 170       -0.18193
     168 -> 174        0.27825
     168 -> 175        0.37404
     168 -> 176        0.39274

 Excited State  22:      Singlet-A      3.9761 eV  311.83 nm  f=0.0039  <S**2>=0.000
     159 -> 170        0.26555
     161 -> 170        0.47806
     167 -> 174       -0.25544
     168 -> 174        0.23170
     168 -> 175       -0.19648

 Excited State  23:      Singlet-A      3.9859 eV  311.06 nm  f=0.0009  <S**2>=0.000
     159 -> 170       -0.25968
     160 -> 170        0.27541
     161 -> 170        0.36974
     168 -> 174       -0.21759
     168 -> 175        0.35933

 Excited State  24:      Singlet-A      3.9989 eV  310.04 nm  f=0.0350  <S**2>=0.000
     159 -> 170        0.14736
     160 -> 170        0.44863
     161 -> 170       -0.16187
     167 -> 172        0.13418
     167 -> 173        0.14460
     167 -> 174       -0.18168
     167 -> 177       -0.13343
     168 -> 176       -0.19623
     168 -> 177       -0.17805
     169 -> 173        0.12592
     169 -> 177        0.20674

 Excited State  25:      Singlet-A      4.0121 eV  309.02 nm  f=0.0239  <S**2>=0.000
     158 -> 170        0.10866
     160 -> 170        0.37699
     167 -> 172       -0.15674
     167 -> 173       -0.19368
     167 -> 174        0.26591
     167 -> 175       -0.17840
     168 -> 175       -0.11902
     168 -> 177        0.29023
     169 -> 173       -0.14656

 Excited State  26:      Singlet-A      4.0252 eV  308.02 nm  f=0.0010  <S**2>=0.000
     158 -> 170       -0.15064
     161 -> 170       -0.14946
     167 -> 172        0.10025
     167 -> 174       -0.20994
     167 -> 175        0.25072
     167 -> 176       -0.17426
     168 -> 177        0.52023

 Excited State  27:      Singlet-A      4.0400 eV  306.90 nm  f=0.0683  <S**2>=0.000
     158 -> 170        0.13228
     159 -> 170       -0.13426
     167 -> 173        0.28789
     167 -> 175       -0.19740
     167 -> 176        0.35977
     167 -> 177       -0.11123
     168 -> 177        0.27529
     169 -> 177        0.21696

 Excited State  28:      Singlet-A      4.0417 eV  306.76 nm  f=0.0138  <S**2>=0.000
     158 -> 170        0.29420
     159 -> 170       -0.21278
     160 -> 170        0.12368
     167 -> 173        0.15809
     167 -> 174        0.19867
     167 -> 175        0.46147
     167 -> 176       -0.12260
     168 -> 174        0.10620
     168 -> 175       -0.12634

 Excited State  29:      Singlet-A      4.1053 eV  302.01 nm  f=0.0074  <S**2>=0.000
     158 -> 170        0.19895
     159 -> 170        0.40766
     167 -> 175        0.16991
     168 -> 174       -0.16668
     168 -> 175        0.25195
     168 -> 176       -0.27055
     169 -> 178       -0.16408

 Excited State  30:      Singlet-A      4.1185 eV  301.04 nm  f=0.0111  <S**2>=0.000
     167 -> 175        0.12569
     167 -> 176        0.20432
     167 -> 177       -0.32878
     168 -> 176       -0.10705
     169 -> 178        0.51006
     169 -> 179       -0.15322

 Excited State  31:      Singlet-A      4.1468 eV  298.99 nm  f=0.0077  <S**2>=0.000
     158 -> 170        0.36576
     159 -> 170       -0.12543
     160 -> 170       -0.12006
     167 -> 174       -0.15889
     167 -> 175       -0.21730
     167 -> 176       -0.34105
     167 -> 177        0.12387
     168 -> 176       -0.13323
     169 -> 177        0.11165
     169 -> 178        0.21694

 Excited State  32:      Singlet-A      4.1628 eV  297.84 nm  f=0.0655  <S**2>=0.000
     158 -> 170       -0.23913
     163 -> 171        0.10879
     167 -> 173        0.13903
     167 -> 174        0.10852
     167 -> 177        0.44641
     169 -> 177        0.17024
     169 -> 178        0.31243

 Excited State  33:      Singlet-A      4.1903 eV  295.88 nm  f=0.1437  <S**2>=0.000
     158 -> 170        0.26290
     159 -> 170        0.16622
     163 -> 170        0.12842
     165 -> 171       -0.14299
     168 -> 172       -0.15705
     168 -> 173        0.12642
     168 -> 174       -0.25804
     168 -> 176        0.33996
     168 -> 178        0.24246
     168 -> 179        0.10033

 Excited State  34:      Singlet-A      4.2026 eV  295.02 nm  f=0.0467  <S**2>=0.000
     165 -> 171        0.10845
     166 -> 171        0.12230
     167 -> 176       -0.12112
     169 -> 178        0.15485
     169 -> 179        0.54160
     169 -> 180        0.24872

 Excited State  35:      Singlet-A      4.2232 eV  293.58 nm  f=0.1350  <S**2>=0.000
     158 -> 170        0.13361
     159 -> 170       -0.10322
     161 -> 170       -0.10868
     166 -> 171        0.28513
     167 -> 172        0.12660
     167 -> 173       -0.19360
     167 -> 174       -0.14101
     167 -> 176        0.30104
     167 -> 177        0.23463
     168 -> 178       -0.14771
     169 -> 179        0.15801
     169 -> 180        0.16570

 Excited State  36:      Singlet-A      4.2335 eV  292.86 nm  f=0.0045  <S**2>=0.000
     166 -> 171       -0.47108
     169 -> 180        0.49272

 Excited State  37:      Singlet-A      4.2600 eV  291.04 nm  f=0.0360  <S**2>=0.000
     165 -> 171        0.48664
     168 -> 178        0.44352

 Excited State  38:      Singlet-A      4.2794 eV  289.72 nm  f=0.0238  <S**2>=0.000
     158 -> 170       -0.10245
     164 -> 171       -0.11237
     165 -> 171       -0.29696
     166 -> 171        0.25987
     167 -> 178        0.18049
     168 -> 176       -0.13514
     168 -> 178        0.30979
     168 -> 179        0.16863
     169 -> 179       -0.11727
     169 -> 180        0.23458

 Excited State  39:      Singlet-A      4.2960 eV  288.61 nm  f=0.0653  <S**2>=0.000
     165 -> 171        0.33734
     166 -> 171        0.23607
     167 -> 178        0.27596
     167 -> 179        0.10366
     167 -> 180       -0.11775
     168 -> 178       -0.22752
     168 -> 180       -0.11391
     169 -> 179       -0.25495
     169 -> 180        0.17939

 Excited State  40:      Singlet-A      4.3237 eV  286.75 nm  f=0.0018  <S**2>=0.000
     164 -> 171       -0.29409
     167 -> 178        0.24181
     168 -> 179       -0.33080
     168 -> 180        0.25066
     169 -> 181        0.40320

 Excited State  41:      Singlet-A      4.3299 eV  286.34 nm  f=0.0405  <S**2>=0.000
     163 -> 171       -0.15724
     164 -> 171        0.15434
     168 -> 179        0.33871
     168 -> 180       -0.23949
     169 -> 181        0.48792

 Excited State  42:      Singlet-A      4.3356 eV  285.97 nm  f=0.0151  <S**2>=0.000
     164 -> 171        0.54795
     167 -> 179        0.18648
     168 -> 179       -0.21891
     168 -> 180        0.27497

 Excited State  43:      Singlet-A      4.3599 eV  284.38 nm  f=0.0195  <S**2>=0.000
     164 -> 171        0.15916
     166 -> 171       -0.12716
     167 -> 178        0.44864
     167 -> 179       -0.32832
     167 -> 180       -0.17537
     168 -> 179        0.11684
     169 -> 180       -0.13337
     169 -> 181       -0.13836

 Excited State  44:      Singlet-A      4.3863 eV  282.66 nm  f=0.0309  <S**2>=0.000
     162 -> 171       -0.38414
     163 -> 171        0.51822
     169 -> 181        0.10953

 Excited State  45:      Singlet-A      4.4091 eV  281.20 nm  f=0.0653  <S**2>=0.000
     160 -> 171        0.15357
     161 -> 171        0.10441
     162 -> 171        0.51768
     163 -> 171        0.31382
     168 -> 180       -0.15634

 Excited State  46:      Singlet-A      4.4246 eV  280.21 nm  f=0.0012  <S**2>=0.000
     161 -> 171        0.34724
     162 -> 171        0.12766
     167 -> 178       -0.18445
     167 -> 179       -0.14030
     168 -> 178       -0.16039
     168 -> 179        0.22107
     168 -> 180        0.38118
     168 -> 181       -0.11124

 Excited State  47:      Singlet-A      4.4317 eV  279.77 nm  f=0.0148  <S**2>=0.000
     159 -> 171       -0.10532
     160 -> 171        0.11343
     161 -> 171       -0.23610
     163 -> 171        0.10077
     166 -> 171       -0.11121
     167 -> 178        0.14788
     167 -> 179        0.40959
     168 -> 179        0.23054
     168 -> 180        0.20094
     168 -> 181       -0.17118
     169 -> 179        0.11684
     169 -> 180       -0.13583

 Excited State  48:      Singlet-A      4.4424 eV  279.09 nm  f=0.0680  <S**2>=0.000
     157 -> 170       -0.17561
     160 -> 171       -0.15580
     161 -> 171        0.47307
     167 -> 178        0.11811
     167 -> 179        0.31011
     167 -> 181        0.10972
     168 -> 180       -0.14293

 Excited State  49:      Singlet-A      4.4634 eV  277.78 nm  f=0.0191  <S**2>=0.000
     157 -> 170       -0.26704
     160 -> 171        0.45820
     163 -> 171       -0.18332
     167 -> 179       -0.11519
     168 -> 179       -0.11380
     168 -> 181       -0.31659

 Excited State  50:      Singlet-A      4.4751 eV  277.06 nm  f=0.1398  <S**2>=0.000
     157 -> 170        0.25223
     159 -> 171       -0.31283
     160 -> 171        0.37640
     161 -> 171        0.18276
     162 -> 171       -0.10759
     168 -> 181        0.29655

 The electronic state is 1-A.
 Alpha  occ. eigenvalues --  -24.53186 -14.23069 -14.22837 -14.22324 -14.17530
 Alpha  occ. eigenvalues --  -14.17489 -10.15209 -10.13263 -10.13116 -10.13099
 Alpha  occ. eigenvalues --  -10.10105 -10.10089 -10.09909 -10.09905 -10.09889
 Alpha  occ. eigenvalues --  -10.09830 -10.09777 -10.09744 -10.09704 -10.09665
 Alpha  occ. eigenvalues --  -10.05297 -10.05242 -10.05239 -10.05234 -10.05227
 Alpha  occ. eigenvalues --  -10.05203 -10.05190 -10.05190 -10.05187 -10.05185
 Alpha  occ. eigenvalues --  -10.05169 -10.05162 -10.05145 -10.05138 -10.05111
 Alpha  occ. eigenvalues --  -10.05109 -10.05089 -10.05074 -10.05060 -10.05058
 Alpha  occ. eigenvalues --  -10.05050 -10.05027 -10.04925 -10.04925 -10.04787
 Alpha  occ. eigenvalues --  -10.04746 -10.04736 -10.04664 -10.04547 -10.04542
 Alpha  occ. eigenvalues --   -1.23042  -0.96315  -0.95679  -0.95284  -0.87663
 Alpha  occ. eigenvalues --   -0.87552  -0.84959  -0.82844  -0.82787  -0.82648
 Alpha  occ. eigenvalues --   -0.81847  -0.81645  -0.80585  -0.76993  -0.75511
 Alpha  occ. eigenvalues --   -0.72948  -0.72879  -0.72769  -0.71982  -0.71935
 Alpha  occ. eigenvalues --   -0.71697  -0.71554  -0.71496  -0.71354  -0.70132
 Alpha  occ. eigenvalues --   -0.69304  -0.69092  -0.64539  -0.63373  -0.59691
 Alpha  occ. eigenvalues --   -0.59577  -0.59297  -0.59145  -0.58194  -0.57828
 Alpha  occ. eigenvalues --   -0.57293  -0.57201  -0.57092  -0.56955  -0.56082
 Alpha  occ. eigenvalues --   -0.54652  -0.54253  -0.52528  -0.51399  -0.50684
 Alpha  occ. eigenvalues --   -0.50340  -0.49722  -0.49602  -0.49212  -0.46859
 Alpha  occ. eigenvalues --   -0.46770  -0.46245  -0.45289  -0.45154  -0.44958
 Alpha  occ. eigenvalues --   -0.44566  -0.44397  -0.44275  -0.42675  -0.42440
 Alpha  occ. eigenvalues --   -0.42274  -0.41773  -0.41562  -0.41296  -0.40471
 Alpha  occ. eigenvalues --   -0.40345  -0.40147  -0.40069  -0.39964  -0.39620
 Alpha  occ. eigenvalues --   -0.39130  -0.38869  -0.38830  -0.38713  -0.38676
 Alpha  occ. eigenvalues --   -0.38603  -0.37885  -0.37614  -0.36472  -0.36240
 Alpha  occ. eigenvalues --   -0.35889  -0.35632  -0.35153  -0.34792  -0.34534
 Alpha  occ. eigenvalues --   -0.34337  -0.34077  -0.33281  -0.33167  -0.33098
 Alpha  occ. eigenvalues --   -0.32477  -0.32396  -0.32312  -0.32275  -0.31832
 Alpha  occ. eigenvalues --   -0.31824  -0.31613  -0.31576  -0.31320  -0.31239
 Alpha  occ. eigenvalues --   -0.30992  -0.30900  -0.29918  -0.29667  -0.28537
 Alpha  occ. eigenvalues --   -0.25770  -0.25405  -0.24617  -0.24379  -0.24249
 Alpha  occ. eigenvalues --   -0.24153  -0.24027  -0.23971  -0.23818  -0.23590
 Alpha  occ. eigenvalues --   -0.23502  -0.18966  -0.18698  -0.18231
 Alpha virt. eigenvalues --   -0.09554  -0.07943  -0.04842  -0.04617  -0.04442
 Alpha virt. eigenvalues --   -0.04206  -0.04013  -0.03927  -0.03146  -0.02878
 Alpha virt. eigenvalues --   -0.02711  -0.02419  -0.01181  -0.00864  -0.00716

 Mulliken charges:
               1
     1  C   -0.136323
     2  C    0.679966
     3  C   -0.258534
     4  C    0.453660
     5  C   -0.292471
     6  C    0.437032
     7  C    0.194982
     8  C    0.065446
     9  F   -0.309958
    10  N   -0.515780
    11  N   -0.494057
    12  N    0.029910
    13  C    0.384459
    14  C    0.307891
    15  C   -0.345333
    16  C   -0.363779
    17  C   -0.309099
    18  C   -0.366825
    19  C   -0.103945
    20  H    0.139199
    21  C    0.014407
    22  H    0.130411
    23  C   -0.052901
    24  H    0.134684
    25  C    0.008965
    26  H    0.127578
    27  C   -0.117381
    28  H    0.101721
    29  H    0.094590
    30  C   -0.133737
    31  H    0.093370
    32  H    0.094550
    33  H    0.093380
    34  H    0.093230
    35  N   -0.041821
    36  C    0.253263
    37  C    0.423360
    38  C   -0.300444
    39  C   -0.304482
    40  C   -0.358195
    41  C   -0.336089
    42  C   -0.050849
    43  H    0.135080
    44  C   -0.012404
    45  H    0.126302
    46  C   -0.098761
    47  H    0.141390
    48  C   -0.011946
    49  H    0.127083
    50  C   -0.112527
    51  H    0.093682
    52  H    0.094995
    53  C   -0.106546
    54  H    0.107434
    55  H    0.094875
    56  H    0.094507
    57  H    0.094559
    58  N   -0.051787
    59  C    0.287967
    60  C    0.397090
    61  C   -0.318777
    62  C   -0.304018
    63  C   -0.342180
    64  C   -0.341304
    65  C   -0.077214
    66  H    0.139600
    67  C   -0.010672
    68  H    0.128103
    69  C   -0.086909
    70  H    0.149560
    71  C   -0.006063
    72  H    0.127024
    73  C   -0.103957
    74  H    0.104851
    75  H    0.094990
    76  C   -0.111654
    77  H    0.109393
    78  H    0.095053
    79  H    0.094626
    80  H    0.094506
 Sum of Mulliken charges =  -0.00000

 Dipole moment (field-independent basis, Debye):
    X=             -4.6049    Y=              3.0204    Z=             -1.9391  Tot=              5.8385
 Quadrupole moment (field-independent basis, Debye-Ang):
   XX=           -269.2839   YY=           -289.4130   ZZ=           -261.7175
   XY=             -7.3398   XZ=            -16.5648   YZ=             -3.5153

 Normal termination of Gaussian 09 at Sat Jul  2 01:57:15 2022.
