 Gaussian 09, Revision E.01,
 Gaussian 09:  ES64L-G09RevE.01 30-Nov-2015

 ----------------------------------------------------------------------
 #p TPSSTPSS/def2TZVP td=(NStates=50) int=ultrafine scrf=(SMD,solvent=A
 cetonitrile)
 ----------------------------------------------------------------------

 -----
 Title
 -----
 Symbolic Z-matrix:
 Charge =  0 Multiplicity = 1

                         Standard orientation:
 ---------------------------------------------------------------------
 Center     Atomic      Atomic             Coordinates (Angstroms)
 Number     Number       Type             X           Y           Z
 ---------------------------------------------------------------------
      1          6           0       -0.225630    1.391874    0.041109
      2          6           0       -1.263043    0.495285   -0.243962
      3          6           0       -1.109295   -0.895091   -0.255395
      4          6           0        0.188051   -1.420985    0.013990
      5          6           0        1.266915   -0.559479    0.313935
      6          6           0        1.048052    0.835131    0.355484
      7          6           0        0.400163   -2.823638   -0.012602
      8          6           0        2.075181    1.679450    0.852037
      9          9           0       -2.457391    1.002404   -0.622003
     10          7           0        0.577139   -3.974611   -0.029586
     11          7           0        2.902752    2.362884    1.304027
     12          7           0        2.542030   -1.084220    0.628358
     13          6           0        3.664661   -0.681199   -0.155287
     14          6           0        2.682534   -1.973312    1.735845
     15          6           0        3.508799   -0.461785   -1.532389
     16          6           0        4.923826   -0.492068    0.434994
     17          6           0        1.886473   -1.797972    2.877649
     18          6           0        3.606209   -3.029010    1.694581
     19          6           0        4.597080   -0.051497   -2.302647
     20          1           0        2.540735   -0.618377   -1.999729
     21          6           0        6.007553   -0.100533   -0.348180
     22          1           0        5.050415   -0.642275    1.502492
     23          6           0        2.011130   -2.671896    3.957761
     24          1           0        1.175808   -0.977670    2.921905
     25          6           0        3.734964   -3.883997    2.786993
     26          1           0        4.214056   -3.182757    0.808447
     27          6           0        5.853085    0.125667   -1.719167
     28          1           0        4.460810    0.114013   -3.368265
     29          1           0        6.976397    0.044696    0.122846
     30          6           0        2.938518   -3.715052    3.923616
     31          1           0        1.387864   -2.522828    4.835723
     32          1           0        4.453325   -4.698485    2.740702
     33          1           0        6.700756    0.437034   -2.323158
     34          1           0        3.039583   -4.388633    4.769984
     35          7           0       -2.190059   -1.720681   -0.598436
     36          6           0       -2.063127   -2.655560   -1.673267
     37          6           0       -3.436723   -1.545880    0.075856
     38          6           0       -1.331025   -2.310498   -2.817524
     39          6           0       -2.671874   -3.915873   -1.590262
     40          6           0       -3.446487   -1.261323    1.448842
     41          6           0       -4.649897   -1.653848   -0.619782
     42          6           0       -1.200141   -3.226222   -3.861912
     43          1           0       -0.872171   -1.328542   -2.892246
     44          6           0       -2.550478   -4.814841   -2.647482
     45          1           0       -3.228756   -4.190285   -0.699556
     46          6           0       -4.658671   -1.077017    2.113652
     47          1           0       -2.508847   -1.194255    1.993575
     48          6           0       -5.855034   -1.485744    0.059088
     49          1           0       -4.647894   -1.861567   -1.685240
     50          6           0       -1.811550   -4.479100   -3.786144
     51          1           0       -0.629983   -2.948475   -4.744537
     52          1           0       -3.023670   -5.790452   -2.572478
     53          6           0       -5.868539   -1.193006    1.426192
     54          1           0       -4.653304   -0.857758    3.178135
     55          1           0       -6.789515   -1.569784   -0.489653
     56          1           0       -1.714123   -5.187180   -4.604316
     57          1           0       -6.811562   -1.058229    1.948554
     58          7           0       -0.437515    2.772936    0.002275
     59          6           0        0.462227    3.612651   -0.728702
     60          6           0       -1.580763    3.331777    0.654522
     61          6           0        0.987228    3.174665   -1.952068
     62          6           0        0.813950    4.875004   -0.231064
     63          6           0       -1.983373    2.828508    1.898883
     64          6           0       -2.300406    4.377754    0.059506
     65          6           0        1.868058    3.990688   -2.662043
     66          1           0        0.701895    2.204102   -2.347865
     67          6           0        1.679642    5.689245   -0.958407
     68          1           0        0.416891    5.211639    0.721658
     69          6           0       -3.104989    3.360952    2.534478
     70          1           0       -1.415564    2.030117    2.368496
     71          6           0       -3.408766    4.913470    0.712126
     72          1           0       -1.997811    4.762498   -0.909550
     73          6           0        2.215148    5.251849   -2.173453
     74          1           0        2.269875    3.641644   -3.609614
     75          1           0        1.948503    6.665522   -0.563678
     76          6           0       -3.820199    4.407542    1.948916
     77          1           0       -3.408827    2.963499    3.499320
     78          1           0       -3.962202    5.722384    0.242439
     79          1           0        2.895285    5.888085   -2.732808
     80          1           0       -4.688498    4.826029    2.450107
 ---------------------------------------------------------------------

 SCF Done:  E(RTPSS-TPSS) =  -2069.44473454     A.U. after   16 cycles

 Excitation energies and oscillator strengths:

 Excited State   1:      Singlet-A      2.2168 eV  559.30 nm  f=0.0227  <S**2>=0.000
     167 -> 170        0.18032
     169 -> 170        0.67132
 This state for optimization and/or second-order correction.
 Total Energy, E(TD-HF/TD-KS) =  -2069.36327022
 Copying the excited state density for this state as the 1-particle RhoCI density.

 Excited State   2:      Singlet-A      2.4545 eV  505.14 nm  f=0.2314  <S**2>=0.000
     167 -> 170       -0.32916
     168 -> 170        0.59068
     168 -> 171        0.11533
     169 -> 170        0.13557

 Excited State   3:      Singlet-A      2.5644 eV  483.49 nm  f=0.2364  <S**2>=0.000
     167 -> 170        0.56328
     168 -> 170        0.34182
     169 -> 171        0.20773

 Excited State   4:      Singlet-A      2.7469 eV  451.36 nm  f=0.1076  <S**2>=0.000
     167 -> 170       -0.11631
     167 -> 171        0.23303
     168 -> 171       -0.34152
     169 -> 171        0.55330

 Excited State   5:      Singlet-A      2.7651 eV  448.39 nm  f=0.0060  <S**2>=0.000
     167 -> 170       -0.13350
     167 -> 171       -0.20991
     168 -> 170       -0.13095
     168 -> 171        0.52566
     169 -> 171        0.37290

 Excited State   6:      Singlet-A      2.8944 eV  428.36 nm  f=0.2633  <S**2>=0.000
     167 -> 171        0.61665
     168 -> 171        0.28457
     169 -> 170       -0.10813

 Excited State   7:      Singlet-A      3.4629 eV  358.03 nm  f=0.0131  <S**2>=0.000
     169 -> 172        0.62899
     169 -> 173       -0.28525

 Excited State   8:      Singlet-A      3.5344 eV  350.79 nm  f=0.0014  <S**2>=0.000
     166 -> 170        0.68461
     169 -> 173       -0.11872

 Excited State   9:      Singlet-A      3.5466 eV  349.59 nm  f=0.0000  <S**2>=0.000
     167 -> 172       -0.12080
     169 -> 173        0.14947
     169 -> 174        0.67006

 Excited State  10:      Singlet-A      3.5711 eV  347.19 nm  f=0.0096  <S**2>=0.000
     165 -> 170        0.13785
     167 -> 172       -0.10830
     168 -> 172        0.55289
     168 -> 173        0.15286
     168 -> 174       -0.16513
     169 -> 172        0.11151
     169 -> 173        0.26430

 Excited State  11:      Singlet-A      3.5838 eV  345.96 nm  f=0.0081  <S**2>=0.000
     165 -> 170        0.67148
     169 -> 173       -0.11601

 Excited State  12:      Singlet-A      3.5885 eV  345.51 nm  f=0.0112  <S**2>=0.000
     165 -> 170        0.11422
     167 -> 172       -0.27524
     167 -> 173       -0.14988
     168 -> 172       -0.34048
     168 -> 174        0.14706
     169 -> 172        0.17350
     169 -> 173        0.38654
     169 -> 174       -0.13831
     169 -> 175        0.15471

 Excited State  13:      Singlet-A      3.6239 eV  342.13 nm  f=0.0004  <S**2>=0.000
     164 -> 170        0.67255
     168 -> 173        0.11043
     169 -> 175        0.10928

 Excited State  14:      Singlet-A      3.6289 eV  341.66 nm  f=0.0000  <S**2>=0.000
     167 -> 172        0.21395
     168 -> 173       -0.31328
     169 -> 175        0.55603

 Excited State  15:      Singlet-A      3.6313 eV  341.43 nm  f=0.0051  <S**2>=0.000
     164 -> 170       -0.16654
     167 -> 172        0.18989
     167 -> 173        0.12812
     168 -> 173        0.55979
     168 -> 174        0.17187
     169 -> 175        0.22726

 Excited State  16:      Singlet-A      3.6589 eV  338.85 nm  f=0.0008  <S**2>=0.000
     167 -> 172       -0.12415
     167 -> 173       -0.13980
     169 -> 176        0.66936

 Excited State  17:      Singlet-A      3.6868 eV  336.29 nm  f=0.0106  <S**2>=0.000
     162 -> 170       -0.25393
     163 -> 170        0.57258
     167 -> 172        0.16423
     167 -> 173       -0.15150
     167 -> 174        0.16609
     169 -> 175       -0.12962

 Excited State  18:      Singlet-A      3.6898 eV  336.02 nm  f=0.0154  <S**2>=0.000
     161 -> 170       -0.11272
     163 -> 170       -0.35290
     167 -> 172        0.35695
     167 -> 173       -0.21571
     167 -> 174        0.33220
     169 -> 173        0.17576
     169 -> 175       -0.11248

 Excited State  19:      Singlet-A      3.7041 eV  334.72 nm  f=0.0018  <S**2>=0.000
     161 -> 170       -0.15636
     162 -> 170        0.58810
     163 -> 170        0.16975
     167 -> 172        0.10258
     167 -> 174        0.12627
     168 -> 174        0.18251
     168 -> 175       -0.12620

 Excited State  20:      Singlet-A      3.7337 eV  332.07 nm  f=0.0195  <S**2>=0.000
     160 -> 170       -0.10559
     161 -> 170        0.59395
     162 -> 170        0.11870
     167 -> 173        0.13511
     167 -> 174        0.16751
     167 -> 175        0.11889
     168 -> 174       -0.11417
     169 -> 177        0.11758

 Excited State  21:      Singlet-A      3.7474 eV  330.85 nm  f=0.0091  <S**2>=0.000
     159 -> 170        0.15336
     161 -> 170       -0.10445
     162 -> 170        0.11784
     168 -> 174       -0.27899
     168 -> 175        0.40234
     168 -> 176       -0.39674
     169 -> 177       -0.13730

 Excited State  22:      Singlet-A      3.7499 eV  330.63 nm  f=0.0060  <S**2>=0.000
     160 -> 170        0.65136
     167 -> 173        0.10038
     168 -> 175        0.17934
     169 -> 177        0.10644

 Excited State  23:      Singlet-A      3.7635 eV  329.43 nm  f=0.0017  <S**2>=0.000
     159 -> 170        0.21353
     161 -> 170       -0.18983
     167 -> 173        0.22513
     167 -> 174       -0.17938
     167 -> 177       -0.13136
     168 -> 174       -0.15662
     168 -> 177        0.10289
     169 -> 175       -0.15092
     169 -> 177        0.42127

 Excited State  24:      Singlet-A      3.7747 eV  328.46 nm  f=0.0013  <S**2>=0.000
     159 -> 170        0.46484
     160 -> 170        0.15129
     167 -> 173       -0.11836
     167 -> 174       -0.17088
     168 -> 174       -0.16583
     168 -> 175       -0.29129
     168 -> 176        0.13528
     169 -> 177       -0.20641

 Excited State  25:      Singlet-A      3.7956 eV  326.65 nm  f=0.0340  <S**2>=0.000
     158 -> 170        0.22903
     160 -> 170        0.11033
     167 -> 172       -0.21731
     167 -> 173       -0.15001
     167 -> 174        0.33146
     167 -> 175        0.15711
     168 -> 174       -0.15067
     168 -> 175       -0.18225
     168 -> 177        0.21575
     169 -> 172       -0.10110
     169 -> 173       -0.20632
     169 -> 175        0.10907
     169 -> 177        0.13557

 Excited State  26:      Singlet-A      3.8149 eV  325.00 nm  f=0.0112  <S**2>=0.000
     158 -> 170       -0.19613
     167 -> 173       -0.15643
     167 -> 174       -0.13187
     167 -> 175       -0.23043
     167 -> 176       -0.26255
     168 -> 176       -0.14828
     168 -> 177        0.49121

 Excited State  27:      Singlet-A      3.8264 eV  324.02 nm  f=0.0628  <S**2>=0.000
     158 -> 170       -0.27365
     159 -> 170        0.17756
     167 -> 173       -0.27172
     167 -> 175        0.12673
     167 -> 176       -0.11249
     167 -> 177       -0.18343
     168 -> 174        0.10994
     168 -> 175        0.15143
     168 -> 177       -0.24899
     169 -> 173       -0.14369
     169 -> 177        0.27531

 Excited State  28:      Singlet-A      3.8316 eV  323.59 nm  f=0.0049  <S**2>=0.000
     158 -> 170       -0.28582
     167 -> 175        0.45380
     167 -> 176        0.29528
     167 -> 177        0.13593
     168 -> 177        0.24678
     169 -> 177       -0.14172

 Excited State  29:      Singlet-A      3.8982 eV  318.06 nm  f=0.0123  <S**2>=0.000
     158 -> 170        0.22612
     159 -> 170        0.28288
     168 -> 174        0.21388
     168 -> 175        0.32804
     168 -> 176        0.30749
     168 -> 177        0.24617

 Excited State  30:      Singlet-A      3.9292 eV  315.54 nm  f=0.0170  <S**2>=0.000
     163 -> 171        0.12520
     167 -> 175       -0.24409
     167 -> 176        0.27775
     167 -> 177        0.46494
     169 -> 177        0.21380
     169 -> 178       -0.17492

 Excited State  31:      Singlet-A      3.9406 eV  314.64 nm  f=0.0370  <S**2>=0.000
     158 -> 170        0.29171
     159 -> 170       -0.14775
     167 -> 172        0.10195
     167 -> 173       -0.11260
     167 -> 174       -0.21673
     167 -> 175        0.28268
     167 -> 176       -0.25783
     167 -> 177        0.27539
     169 -> 178       -0.19415

 Excited State  32:      Singlet-A      3.9546 eV  313.52 nm  f=0.0011  <S**2>=0.000
     158 -> 170        0.12227
     165 -> 171        0.16604
     166 -> 171        0.63366

 Excited State  33:      Singlet-A      3.9670 eV  312.54 nm  f=0.0100  <S**2>=0.000
     158 -> 170        0.15875
     165 -> 171        0.41934
     166 -> 171       -0.16877
     168 -> 174        0.16582
     168 -> 176       -0.19160
     169 -> 178        0.36567

 Excited State  34:      Singlet-A      3.9723 eV  312.12 nm  f=0.0164  <S**2>=0.000
     165 -> 171       -0.31844
     166 -> 171        0.14506
     167 -> 177        0.19829
     169 -> 178        0.47251
     169 -> 179       -0.20405

 Excited State  35:      Singlet-A      3.9972 eV  310.18 nm  f=0.2070  <S**2>=0.000
     159 -> 170        0.17266
     162 -> 170       -0.12138
     164 -> 171        0.34493
     165 -> 171       -0.22616
     167 -> 173        0.12440
     167 -> 176       -0.17860
     168 -> 172        0.11640
     168 -> 174        0.19893
     168 -> 176       -0.23284
     169 -> 178       -0.11377
     169 -> 179       -0.17167

 Excited State  36:      Singlet-A      4.0116 eV  309.07 nm  f=0.0206  <S**2>=0.000
     158 -> 170       -0.21565
     161 -> 170       -0.12616
     162 -> 171        0.14850
     164 -> 171        0.19777
     165 -> 171        0.33730
     167 -> 172       -0.12123
     167 -> 173        0.17448
     167 -> 174        0.14656
     167 -> 176       -0.23156
     167 -> 177        0.16762
     168 -> 174       -0.14232
     168 -> 176        0.16596

 Excited State  37:      Singlet-A      4.0272 eV  307.87 nm  f=0.0278  <S**2>=0.000
     169 -> 179        0.48501
     169 -> 180       -0.43382

 Excited State  38:      Singlet-A      4.0429 eV  306.67 nm  f=0.1166  <S**2>=0.000
     161 -> 171       -0.10289
     164 -> 171        0.55709
     167 -> 173       -0.12594
     167 -> 174       -0.10015
     167 -> 176        0.16283
     168 -> 178       -0.15508
     169 -> 178        0.10867

 Excited State  39:      Singlet-A      4.0841 eV  303.58 nm  f=0.0213  <S**2>=0.000
     163 -> 171        0.23579
     169 -> 179       -0.13955
     169 -> 180       -0.26246
     169 -> 181        0.55408

 Excited State  40:      Singlet-A      4.0965 eV  302.66 nm  f=0.0358  <S**2>=0.000
     162 -> 171        0.22074
     168 -> 178        0.53090
     168 -> 179        0.28236
     169 -> 180        0.12416

 Excited State  41:      Singlet-A      4.1163 eV  301.20 nm  f=0.0049  <S**2>=0.000
     166 -> 171        0.10761
     167 -> 178       -0.21446
     167 -> 179       -0.18130
     167 -> 180       -0.14802
     168 -> 178       -0.19757
     168 -> 180        0.15968
     169 -> 179        0.29323
     169 -> 180        0.33057
     169 -> 181        0.27555

 Excited State  42:      Singlet-A      4.1253 eV  300.54 nm  f=0.0278  <S**2>=0.000
     162 -> 171        0.57860
     163 -> 171       -0.26520
     168 -> 178       -0.11913
     169 -> 180       -0.10977

 Excited State  43:      Singlet-A      4.1319 eV  300.07 nm  f=0.0585  <S**2>=0.000
     160 -> 171       -0.19301
     161 -> 171        0.12991
     162 -> 171        0.23682
     163 -> 171        0.54069
     167 -> 177       -0.10458
     169 -> 177       -0.10933
     169 -> 181       -0.16003

 Excited State  44:      Singlet-A      4.1500 eV  298.76 nm  f=0.0035  <S**2>=0.000
     161 -> 171       -0.13543
     167 -> 179        0.10441
     168 -> 179        0.40575
     168 -> 180        0.51559

 Excited State  45:      Singlet-A      4.1631 eV  297.82 nm  f=0.0329  <S**2>=0.000
     160 -> 171        0.24770
     161 -> 171        0.54555
     167 -> 178        0.24642
     167 -> 179       -0.16856
     167 -> 180        0.10360

 Excited State  46:      Singlet-A      4.1835 eV  296.37 nm  f=0.0393  <S**2>=0.000
     161 -> 171       -0.27507
     167 -> 178        0.44223
     167 -> 179       -0.37402
     167 -> 180        0.17723

 Excited State  47:      Singlet-A      4.2027 eV  295.01 nm  f=0.0642  <S**2>=0.000
     159 -> 171       -0.26282
     160 -> 171        0.52270
     161 -> 171       -0.15178
     163 -> 171        0.10969
     168 -> 180       -0.16457
     169 -> 182        0.13134

 Excited State  48:      Singlet-A      4.2228 eV  293.61 nm  f=0.0377  <S**2>=0.000
     159 -> 171        0.57708
     160 -> 171        0.23960
     167 -> 179        0.10078
     168 -> 179       -0.14533
     168 -> 180        0.12227
     169 -> 182        0.11579

 Excited State  49:      Singlet-A      4.2307 eV  293.06 nm  f=0.0485  <S**2>=0.000
     157 -> 170        0.20925
     159 -> 171        0.16367
     160 -> 171       -0.10419
     167 -> 181        0.14919
     168 -> 180       -0.13883
     168 -> 181        0.56412

 Excited State  50:      Singlet-A      4.2563 eV  291.29 nm  f=0.0179  <S**2>=0.000
     157 -> 170       -0.10998
     158 -> 171       -0.16536
     167 -> 178        0.28297
     167 -> 179        0.44339
     168 -> 178       -0.12912
     168 -> 179        0.12707
     168 -> 180       -0.17705
     169 -> 179        0.14015
     169 -> 180        0.16871
     169 -> 181        0.12579

 The electronic state is 1-A.
 Alpha  occ. eigenvalues --  -24.44146 -14.15717 -14.15468 -14.14981 -14.10822
 Alpha  occ. eigenvalues --  -14.10792 -10.09251 -10.07169 -10.07078 -10.07017
 Alpha  occ. eigenvalues --  -10.04416 -10.04329 -10.03730 -10.03717 -10.03685
 Alpha  occ. eigenvalues --  -10.03679 -10.03628 -10.03584 -10.03568 -10.03567
 Alpha  occ. eigenvalues --   -9.99312  -9.99269  -9.99252  -9.99218  -9.99215
 Alpha  occ. eigenvalues --   -9.99199  -9.99182  -9.99172  -9.99156  -9.99154
 Alpha  occ. eigenvalues --   -9.99148  -9.99148  -9.99145  -9.99126  -9.99110
 Alpha  occ. eigenvalues --   -9.99105  -9.99058  -9.99044  -9.99003  -9.98998
 Alpha  occ. eigenvalues --   -9.98991  -9.98990  -9.98943  -9.98932  -9.98785
 Alpha  occ. eigenvalues --   -9.98778  -9.98739  -9.98699  -9.98530  -9.98521
 Alpha  occ. eigenvalues --   -1.16942  -0.92779  -0.92124  -0.91694  -0.85237
 Alpha  occ. eigenvalues --   -0.85198  -0.82323  -0.80110  -0.80052  -0.79885
 Alpha  occ. eigenvalues --   -0.79177  -0.78951  -0.77899  -0.74557  -0.73084
 Alpha  occ. eigenvalues --   -0.70580  -0.70517  -0.70379  -0.69682  -0.69631
 Alpha  occ. eigenvalues --   -0.69386  -0.69263  -0.69206  -0.69025  -0.67921
 Alpha  occ. eigenvalues --   -0.67059  -0.66859  -0.62625  -0.61619  -0.58127
 Alpha  occ. eigenvalues --   -0.57938  -0.57712  -0.57549  -0.56625  -0.56299
 Alpha  occ. eigenvalues --   -0.55783  -0.55737  -0.55550  -0.55434  -0.54627
 Alpha  occ. eigenvalues --   -0.53240  -0.52811  -0.51298  -0.50348  -0.49717
 Alpha  occ. eigenvalues --   -0.49419  -0.48737  -0.48495  -0.48377  -0.45905
 Alpha  occ. eigenvalues --   -0.45837  -0.45461  -0.44304  -0.44229  -0.44085
 Alpha  occ. eigenvalues --   -0.43837  -0.43611  -0.43212  -0.41580  -0.41343
 Alpha  occ. eigenvalues --   -0.41230  -0.40744  -0.40645  -0.40471  -0.39757
 Alpha  occ. eigenvalues --   -0.39662  -0.39506  -0.39409  -0.39227  -0.38875
 Alpha  occ. eigenvalues --   -0.38434  -0.38266  -0.38229  -0.38139  -0.38125
 Alpha  occ. eigenvalues --   -0.38007  -0.37149  -0.36635  -0.35588  -0.35170
 Alpha  occ. eigenvalues --   -0.34917  -0.34663  -0.34347  -0.34140  -0.33901
 Alpha  occ. eigenvalues --   -0.33700  -0.33516  -0.32788  -0.32686  -0.32598
 Alpha  occ. eigenvalues --   -0.31989  -0.31913  -0.31777  -0.31619  -0.31304
 Alpha  occ. eigenvalues --   -0.31246  -0.31067  -0.31052  -0.30855  -0.30843
 Alpha  occ. eigenvalues --   -0.30659  -0.30512  -0.29069  -0.28769  -0.27829
 Alpha  occ. eigenvalues --   -0.25450  -0.25187  -0.24239  -0.24027  -0.23845
 Alpha  occ. eigenvalues --   -0.23763  -0.23638  -0.23577  -0.23324  -0.23142
 Alpha  occ. eigenvalues --   -0.23029  -0.18684  -0.18428  -0.17979
 Alpha virt. eigenvalues --   -0.10082  -0.08556  -0.05363  -0.05122  -0.04971
 Alpha virt. eigenvalues --   -0.04693  -0.04556  -0.04401  -0.03464  -0.03275
 Alpha virt. eigenvalues --   -0.03150  -0.03061  -0.02106  -0.01679  -0.01503

 Mulliken charges:
               1
     1  C   -0.157865
     2  C    0.516496
     3  C   -0.239570
     4  C    0.222483
     5  C   -0.239627
     6  C    0.181643
     7  C   -0.154409
     8  C   -0.116382
     9  F   -0.192474
    10  N   -0.070763
    11  N   -0.076778
    12  N    0.073235
    13  C    0.103844
    14  C    0.092299
    15  C   -0.204268
    16  C   -0.228127
    17  C   -0.196747
    18  C   -0.227062
    19  C   -0.137890
    20  H    0.148976
    21  C   -0.104101
    22  H    0.145045
    23  C   -0.142193
    24  H    0.153149
    25  C   -0.112147
    26  H    0.146191
    27  C   -0.149812
    28  H    0.138548
    29  H    0.140636
    30  C   -0.145076
    31  H    0.138270
    32  H    0.140591
    33  H    0.140183
    34  H    0.140561
    35  N    0.110853
    36  C    0.034999
    37  C    0.126843
    38  C   -0.173906
    39  C   -0.193630
    40  C   -0.197935
    41  C   -0.229700
    42  C   -0.144095
    43  H    0.153800
    44  C   -0.120156
    45  H    0.146503
    46  C   -0.139630
    47  H    0.148759
    48  C   -0.118707
    49  H    0.149363
    50  C   -0.132507
    51  H    0.139256
    52  H    0.141595
    53  C   -0.140302
    54  H    0.139682
    55  H    0.141347
    56  H    0.142145
    57  H    0.141503
    58  N    0.117972
    59  C    0.031826
    60  C    0.107736
    61  C   -0.165470
    62  C   -0.191189
    63  C   -0.185853
    64  C   -0.222829
    65  C   -0.142313
    66  H    0.149029
    67  C   -0.116913
    68  H    0.146394
    69  C   -0.140148
    70  H    0.152268
    71  C   -0.119042
    72  H    0.149147
    73  C   -0.132452
    74  H    0.139141
    75  H    0.141751
    76  C   -0.136983
    77  H    0.139367
    78  H    0.141636
    79  H    0.142102
    80  H    0.141884
 Sum of Mulliken charges =  -0.00000

 Dipole moment (field-independent basis, Debye):
    X=             -4.8928    Y=              2.6891    Z=             -1.9867  Tot=              5.9260
 Quadrupole moment (field-independent basis, Debye-Ang):
   XX=           -268.1554   YY=           -291.9741   ZZ=           -256.3302
   XY=             -5.5489   XZ=            -17.0968   YZ=             -5.7205

 Normal termination of Gaussian 09 at Sat Jul  2 02:19:25 2022.
