                         Program Version 5.0.2 -  RELEASE  -
|  1> %maxcore 20000
|  2> %pal
|  3>  nprocs= 4
|  4> end
|  5> ! RI-SCS-PBE-QIDH   def2-TZVP def2/J def2-TZVP/C RIJCOSX CPCM TightSCF
|  6> %TDDFT
|  7>    NROOTS   60
|  8>    dcorr 4
|  9>    doscs true
| 10>    TDA      FALSE
| 11> END
| 12>
| 13> %CPCM
| 14>    SMD          TRUE
| 15>    SMDsolvent   "ACETONITRILE"
| 16>  END
| 17>
| 18>
| 19> * xyz 0 1
| 20> C                  -0.09813300    1.39242200    0.01340000
| 21> C                  -1.20637900    0.60874400   -0.29352100
| 22> C                  -1.19524300   -0.78207400   -0.27236200
| 23> C                   0.03211700   -1.43179700    0.00936000
| 24> C                   1.18254600   -0.68059500    0.30053400
| 25> C                   1.10095000    0.71991200    0.34893500
| 26> C                   0.10905800   -2.84191600    0.00152300
| 27> C                   2.20820800    1.44917600    0.83684900
| 28> F                  -2.32243000    1.22148900   -0.69634000
| 29> N                   0.18172800   -3.99861900    0.00279700
| 30> N                   3.11213500    2.03242400    1.26805200
| 31> N                   2.40257400   -1.31501700    0.58267100
| 32> C                   3.54736000   -0.93505600   -0.15925700
| 33> C                   2.47202700   -2.26177900    1.63312100
| 34> C                   3.41016000   -0.56535400   -1.49760300
| 35> C                   4.80666700   -0.88523200    0.43791100
| 36> C                   1.67530700   -2.10006700    2.76587800
| 37> C                   3.30954700   -3.37277600    1.53715400
| 38> C                   4.51316200   -0.13516200   -2.21728600
| 39> H                   2.43702300   -0.61638900   -1.97148600
| 40> C                   5.90440100   -0.47135100   -0.29617700
| 41> H                   4.91794500   -1.15275100    1.48064200
| 42> C                   1.70763900   -3.04523900    3.77860500
| 43> H                   1.02969900   -1.23392500    2.84858600
| 44> C                   3.34553300   -4.30174200    2.56190900
| 45> H                   3.91866800   -3.51091500    0.65322400
| 46> C                   5.76637200   -0.08683400   -1.62395500
| 47> H                   4.38942700    0.15208700   -3.25410100
| 48> H                   6.87487800   -0.43099800    0.18245000
| 49> C                   2.54325600   -4.14863000    3.68589500
| 50> H                   1.08216200   -2.90774000    4.65167500
| 51> H                   3.99637400   -5.16250000    2.47269900
| 52> H                   6.62742400    0.24434000   -2.18951600
| 53> H                   2.57091600   -4.88227700    4.48085000
| 54> N                  -2.35461600   -1.48622000   -0.58604000
| 55> C                  -2.31584000   -2.51804500   -1.55954300
| 56> C                  -3.57137900   -1.12006900    0.04154900
| 57> C                  -1.50701900   -2.37888600   -2.68521200
| 58> C                  -3.06545300   -3.67977300   -1.38688900
| 59> C                  -3.56216100   -0.67398200    1.36251700
| 60> C                  -4.77810200   -1.18220100   -0.65382800
| 61> C                  -1.43563900   -3.40256300   -3.61632400
| 62> H                  -0.93421300   -1.46968200   -2.82465500
| 63> C                  -2.99855800   -4.68925100   -2.33086700
| 64> H                  -3.68574500   -3.79106700   -0.50680900
| 65> C                  -4.74379600   -0.28414300    1.97131600
| 66> H                  -2.62844600   -0.63768700    1.91099700
| 67> C                  -5.95480100   -0.80638400   -0.02939600
| 68> H                  -4.78865300   -1.51533000   -1.68337700
| 69> C                  -2.18018800   -4.56065900   -3.44620000
| 70> H                  -0.80179000   -3.28570600   -4.48622600
| 71> H                  -3.57954700   -5.59114600   -2.18485000
| 72> C                  -5.94648400   -0.35120600    1.28278700
| 73> H                  -4.72219800    0.06114700    2.99744800
| 74> H                  -6.88524500   -0.85588300   -0.58096000
| 75> H                  -2.12586800   -5.35662500   -4.17733100
| 76> H                  -6.86900700   -0.05323500    1.76357000
| 77> N                  -0.17654800    2.77809700   -0.02664800
| 78> C                   0.85731900    3.52236800   -0.65521300
| 79> C                  -1.28859700    3.43307200    0.56225100
| 80> C                   1.46649000    3.02592900   -1.80608100
| 81> C                   1.28606100    4.73255100   -0.11468100
| 82> C                  -1.85516300    2.92207900    1.72844200
| 83> C                  -1.83117100    4.57461600   -0.02474200
| 84> C                   2.50727300    3.72558000   -2.39474400
| 85> H                   1.12482800    2.09134900   -2.23419700
| 86> C                   2.31513300    5.43169000   -0.72110600
| 87> H                   0.82204500    5.11235400    0.78639000
| 88> C                  -2.95931500    3.54115700    2.29096900
| 89> H                  -1.42557100    2.04255400    2.19312000
| 90> C                  -2.92451700    5.19430400    0.55527800
| 91> H                  -1.39963600    4.96699800   -0.93645900
| 92> C                   2.93594500    4.93123000   -1.85846700
| 93> H                   2.97500800    3.32907900   -3.28717600
| 94> H                   2.64520400    6.36837200   -0.28997600
| 95> C                  -3.49782600    4.68107700    1.71163900
| 96> H                  -3.39081900    3.13471700    3.19710400
| 97> H                  -3.34016700    6.07894600    0.08956200
| 98> H                   3.74567900    5.47816800   -2.32338400
| 99> H                  -4.35599900    5.16686100    2.15721800
|100> *
|101>
|102>
|103>                          ****END OF INPUT****

CARTESIAN COORDINATES (ANGSTROEM)
---------------------------------
  C     -0.098133    1.392422    0.013400
  C     -1.206379    0.608744   -0.293521
  C     -1.195243   -0.782074   -0.272362
  C      0.032117   -1.431797    0.009360
  C      1.182546   -0.680595    0.300534
  C      1.100950    0.719912    0.348935
  C      0.109058   -2.841916    0.001523
  C      2.208208    1.449176    0.836849
  F     -2.322430    1.221489   -0.696340
  N      0.181728   -3.998619    0.002797
  N      3.112135    2.032424    1.268052
  N      2.402574   -1.315017    0.582671
  C      3.547360   -0.935056   -0.159257
  C      2.472027   -2.261779    1.633121
  C      3.410160   -0.565354   -1.497603
  C      4.806667   -0.885232    0.437911
  C      1.675307   -2.100067    2.765878
  C      3.309547   -3.372776    1.537154
  C      4.513162   -0.135162   -2.217286
  H      2.437023   -0.616389   -1.971486
  C      5.904401   -0.471351   -0.296177
  H      4.917945   -1.152751    1.480642
  C      1.707639   -3.045239    3.778605
  H      1.029699   -1.233925    2.848586
  C      3.345533   -4.301742    2.561909
  H      3.918668   -3.510915    0.653224
  C      5.766372   -0.086834   -1.623955
  H      4.389427    0.152087   -3.254101
  H      6.874878   -0.430998    0.182450
  C      2.543256   -4.148630    3.685895
  H      1.082162   -2.907740    4.651675
  H      3.996374   -5.162500    2.472699
  H      6.627424    0.244340   -2.189516
  H      2.570916   -4.882277    4.480850
  N     -2.354616   -1.486220   -0.586040
  C     -2.315840   -2.518045   -1.559543
  C     -3.571379   -1.120069    0.041549
  C     -1.507019   -2.378886   -2.685212
  C     -3.065453   -3.679773   -1.386889
  C     -3.562161   -0.673982    1.362517
  C     -4.778102   -1.182201   -0.653828
  C     -1.435639   -3.402563   -3.616324
  H     -0.934213   -1.469682   -2.824655
  C     -2.998558   -4.689251   -2.330867
  H     -3.685745   -3.791067   -0.506809
  C     -4.743796   -0.284143    1.971316
  H     -2.628446   -0.637687    1.910997
  C     -5.954801   -0.806384   -0.029396
  H     -4.788653   -1.515330   -1.683377
  C     -2.180188   -4.560659   -3.446200
  H     -0.801790   -3.285706   -4.486226
  H     -3.579547   -5.591146   -2.184850
  C     -5.946484   -0.351206    1.282787
  H     -4.722198    0.061147    2.997448
  H     -6.885245   -0.855883   -0.580960
  H     -2.125868   -5.356625   -4.177331
  H     -6.869007   -0.053235    1.763570
  N     -0.176548    2.778097   -0.026648
  C      0.857319    3.522368   -0.655213
  C     -1.288597    3.433072    0.562251
  C      1.466490    3.025929   -1.806081
  C      1.286061    4.732551   -0.114681
  C     -1.855163    2.922079    1.728442
  C     -1.831171    4.574616   -0.024742
  C      2.507273    3.725580   -2.394744
  H      1.124828    2.091349   -2.234197
  C      2.315133    5.431690   -0.721106
  H      0.822045    5.112354    0.786390
  C     -2.959315    3.541157    2.290969
  H     -1.425571    2.042554    2.193120
  C     -2.924517    5.194304    0.555278
  H     -1.399636    4.966998   -0.936459
  C      2.935945    4.931230   -1.858467
  H      2.975008    3.329079   -3.287176
  H      2.645204    6.368372   -0.289976
  C     -3.497826    4.681077    1.711639
  H     -3.390819    3.134717    3.197104
  H     -3.340167    6.078946    0.089562
  H      3.745679    5.478168   -2.323384
  H     -4.355999    5.166861    2.157218

 Total Charge           Charge          ....    0
 Multiplicity           Mult            ....    1
 Number of Electrons    NEL             ....  338
 Basis Dimension        Dim             .... 1730

ORBITAL ENERGIES
----------------

  NO   OCC          E(Eh)            E(eV)
   0   2.0000     -25.704470      -699.4542
   1   2.0000     -15.137363      -411.9086
   2   2.0000     -15.134810      -411.8391
   3   2.0000     -15.130817      -411.7305
   4   2.0000     -15.098062      -410.8392
   5   2.0000     -15.098002      -410.8375
   6   2.0000     -10.931864      -297.4712
   7   2.0000     -10.922415      -297.2140
   8   2.0000     -10.921172      -297.1802
   9   2.0000     -10.920819      -297.1706
  10   2.0000     -10.882244      -296.1209
  11   2.0000     -10.882020      -296.1148
  12   2.0000     -10.880491      -296.0732
  13   2.0000     -10.880459      -296.0724
  14   2.0000     -10.875305      -295.9321
  15   2.0000     -10.875288      -295.9316
  16   2.0000     -10.875266      -295.9310
  17   2.0000     -10.874827      -295.9191
  18   2.0000     -10.874388      -295.9072
  19   2.0000     -10.874327      -295.9055
  20   2.0000     -10.825183      -294.5682
  21   2.0000     -10.824871      -294.5597
  22   2.0000     -10.824718      -294.5556
  23   2.0000     -10.824680      -294.5545
  24   2.0000     -10.824597      -294.5523
  25   2.0000     -10.824457      -294.5485
  26   2.0000     -10.824416      -294.5473
  27   2.0000     -10.824278      -294.5436
  28   2.0000     -10.824099      -294.5387
  29   2.0000     -10.824079      -294.5382
  30   2.0000     -10.823838      -294.5316
  31   2.0000     -10.823715      -294.5283
  32   2.0000     -10.823632      -294.5260
  33   2.0000     -10.823460      -294.5213
  34   2.0000     -10.823273      -294.5162
  35   2.0000     -10.823013      -294.5092
  36   2.0000     -10.822727      -294.5014
  37   2.0000     -10.822599      -294.4979
  38   2.0000     -10.822400      -294.4925
  39   2.0000     -10.822328      -294.4905
  40   2.0000     -10.822060      -294.4832
  41   2.0000     -10.821940      -294.4800
  42   2.0000     -10.821010      -294.4547
  43   2.0000     -10.820974      -294.4537
  44   2.0000     -10.819485      -294.4132
  45   2.0000     -10.819124      -294.4033
  46   2.0000     -10.818677      -294.3912
  47   2.0000     -10.817919      -294.3705
  48   2.0000     -10.817415      -294.3568
  49   2.0000     -10.817339      -294.3548
  50   2.0000      -1.512563       -41.1589
  51   2.0000      -1.213840       -33.0303
  52   2.0000      -1.204251       -32.7693
  53   2.0000      -1.200340       -32.6629
  54   2.0000      -1.127055       -30.6687
  55   2.0000      -1.126583       -30.6559
  56   2.0000      -1.088370       -29.6160
  57   2.0000      -1.062732       -28.9184
  58   2.0000      -1.062147       -28.9025
  59   2.0000      -1.061250       -28.8781
  60   2.0000      -1.050701       -28.5910
  61   2.0000      -1.048709       -28.5368
  62   2.0000      -1.034842       -28.1595
  63   2.0000      -0.991408       -26.9776
  64   2.0000      -0.974867       -26.5275
  65   2.0000      -0.944152       -25.6917
  66   2.0000      -0.943366       -25.6703
  67   2.0000      -0.942716       -25.6526
  68   2.0000      -0.933628       -25.4053
  69   2.0000      -0.933003       -25.3883
  70   2.0000      -0.930820       -25.3289
  71   2.0000      -0.928545       -25.2670
  72   2.0000      -0.927870       -25.2486
  73   2.0000      -0.926874       -25.2215
  74   2.0000      -0.909756       -24.7557
  75   2.0000      -0.899944       -24.4887
  76   2.0000      -0.897737       -24.4287
  77   2.0000      -0.841602       -22.9012
  78   2.0000      -0.827110       -22.5068
  79   2.0000      -0.783011       -21.3068
  80   2.0000      -0.782090       -21.2818
  81   2.0000      -0.778806       -21.1924
  82   2.0000      -0.777334       -21.1523
  83   2.0000      -0.765914       -20.8416
  84   2.0000      -0.762876       -20.7589
  85   2.0000      -0.756999       -20.5990
  86   2.0000      -0.755600       -20.5609
  87   2.0000      -0.754574       -20.5330
  88   2.0000      -0.753116       -20.4933
  89   2.0000      -0.741425       -20.1752
  90   2.0000      -0.724739       -19.7211
  91   2.0000      -0.719589       -19.5810
  92   2.0000      -0.704115       -19.1599
  93   2.0000      -0.682545       -18.5730
  94   2.0000      -0.675243       -18.3743
  95   2.0000      -0.670514       -18.2456
  96   2.0000      -0.662312       -18.0224
  97   2.0000      -0.662143       -18.0178
  98   2.0000      -0.660592       -17.9756
  99   2.0000      -0.644285       -17.5319
 100   2.0000      -0.633573       -17.2404
 101   2.0000      -0.629718       -17.1355
 102   2.0000      -0.623302       -16.9609
 103   2.0000      -0.614518       -16.7219
 104   2.0000      -0.608141       -16.5483
 105   2.0000      -0.604113       -16.4387
 106   2.0000      -0.603076       -16.4105
 107   2.0000      -0.602444       -16.3933
 108   2.0000      -0.584482       -15.9046
 109   2.0000      -0.581387       -15.8204
 110   2.0000      -0.578405       -15.7392
 111   2.0000      -0.572322       -15.5737
 112   2.0000      -0.571550       -15.5527
 113   2.0000      -0.566486       -15.4149
 114   2.0000      -0.559197       -15.2165
 115   2.0000      -0.555977       -15.1289
 116   2.0000      -0.554338       -15.0843
 117   2.0000      -0.551481       -15.0066
 118   2.0000      -0.549197       -14.9444
 119   2.0000      -0.545211       -14.8359
 120   2.0000      -0.541221       -14.7274
 121   2.0000      -0.539757       -14.6875
 122   2.0000      -0.537008       -14.6127
 123   2.0000      -0.536306       -14.5936
 124   2.0000      -0.535164       -14.5626
 125   2.0000      -0.534347       -14.5403
 126   2.0000      -0.534020       -14.5314
 127   2.0000      -0.522086       -14.2067
 128   2.0000      -0.517192       -14.0735
 129   2.0000      -0.510675       -13.8962
 130   2.0000      -0.500818       -13.6280
 131   2.0000      -0.499912       -13.6033
 132   2.0000      -0.496573       -13.5124
 133   2.0000      -0.492362       -13.3978
 134   2.0000      -0.483517       -13.1572
 135   2.0000      -0.478146       -13.0110
 136   2.0000      -0.473572       -12.8865
 137   2.0000      -0.470892       -12.8136
 138   2.0000      -0.469713       -12.7815
 139   2.0000      -0.469007       -12.7623
 140   2.0000      -0.460925       -12.5424
 141   2.0000      -0.460027       -12.5180
 142   2.0000      -0.459476       -12.5030
 143   2.0000      -0.453197       -12.3321
 144   2.0000      -0.451018       -12.2728
 145   2.0000      -0.449824       -12.2403
 146   2.0000      -0.447643       -12.1810
 147   2.0000      -0.446660       -12.1542
 148   2.0000      -0.444573       -12.0975
 149   2.0000      -0.444160       -12.0862
 150   2.0000      -0.440228       -11.9792
 151   2.0000      -0.438000       -11.9186
 152   2.0000      -0.424298       -11.5457
 153   2.0000      -0.420633       -11.4460
 154   2.0000      -0.405188       -11.0257
 155   2.0000      -0.352107        -9.5813
 156   2.0000      -0.350628        -9.5411
 157   2.0000      -0.335837        -9.1386
 158   2.0000      -0.332451        -9.0465
 159   2.0000      -0.331169        -9.0116
 160   2.0000      -0.329995        -8.9796
 161   2.0000      -0.328174        -8.9301
 162   2.0000      -0.327492        -8.9115
 163   2.0000      -0.325054        -8.8452
 164   2.0000      -0.321919        -8.7599
 165   2.0000      -0.320411        -8.7188
 166   2.0000      -0.272348        -7.4110
 167   2.0000      -0.266863        -7.2617
 168   2.0000      -0.262805        -7.1513
 169   0.0000      -0.018919        -0.5148
 170   0.0000       0.004005         0.1090
 171   0.0000       0.040015         1.0889
 172   0.0000       0.041100         1.1184
 173   0.0000       0.044649         1.2150

MULLIKEN ATOMIC CHARGES
-----------------------
   0 C :   -0.092211
   1 C :    0.368000
   2 C :   -0.171463
   3 C :    0.344832
   4 C :   -0.250611
   5 C :    0.299169
   6 C :   -0.146707
   7 C :   -0.144820
   8 F :   -0.245231
   9 N :   -0.191017
  10 N :   -0.191464
  11 N :    0.154032
  12 C :    0.168818
  13 C :    0.153568
  14 C :   -0.279940
  15 C :   -0.321854
  16 C :   -0.269226
  17 C :   -0.323775
  18 C :   -0.161688
  19 H :    0.179689
  20 C :   -0.112315
  21 H :    0.180086
  22 C :   -0.153338
  23 H :    0.178774
  24 C :   -0.120448
  25 H :    0.180705
  26 C :   -0.185156
  27 H :    0.171337
  28 H :    0.171981
  29 C :   -0.183300
  30 H :    0.171247
  31 H :    0.171561
  32 H :    0.171944
  33 H :    0.171129
  34 N :    0.162223
  35 C :    0.092839
  36 C :    0.189496
  37 C :   -0.248243
  38 C :   -0.280290
  39 C :   -0.279314
  40 C :   -0.320834
  41 C :   -0.158770
  42 H :    0.180763
  43 C :   -0.136436
  44 H :    0.182433
  45 C :   -0.159528
  46 H :    0.181617
  47 C :   -0.125557
  48 H :    0.182732
  49 C :   -0.169149
  50 H :    0.171633
  51 H :    0.172687
  52 C :   -0.181886
  53 H :    0.171946
  54 H :    0.172149
  55 H :    0.172130
  56 H :    0.172201
  57 N :    0.168816
  58 C :    0.097195
  59 C :    0.178558
  60 C :   -0.245929
  61 C :   -0.280901
  62 C :   -0.272773
  63 C :   -0.320696
  64 C :   -0.156274
  65 H :    0.177265
  66 C :   -0.131091
  67 H :    0.182257
  68 C :   -0.153960
  69 H :    0.181455
  70 C :   -0.121963
  71 H :    0.182648
  72 C :   -0.172189
  73 H :    0.171874
  74 H :    0.172580
  75 C :   -0.182903
  76 H :    0.171532
  77 H :    0.172506
  78 H :    0.172714
  79 H :    0.172131
Sum of atomic charges:   -0.0000000

LOEWDIN ATOMIC CHARGES
----------------------
   0 C :   -0.083328
   1 C :   -0.186966
   2 C :   -0.081013
   3 C :   -0.090865
   4 C :   -0.064046
   5 C :   -0.091362
   6 C :   -0.123508
   7 C :   -0.123253
   8 F :    0.206056
   9 N :    0.012699
  10 N :    0.012352
  11 N :    0.284634
  12 C :   -0.171771
  13 C :   -0.173425
  14 C :   -0.114751
  15 C :   -0.114417
  16 C :   -0.113951
  17 C :   -0.113906
  18 C :   -0.142370
  19 H :    0.163846
  20 C :   -0.142106
  21 H :    0.163345
  22 C :   -0.142065
  23 H :    0.164084
  24 C :   -0.141864
  25 H :    0.163114
  26 C :   -0.158186
  27 H :    0.156433
  28 H :    0.156370
  29 C :   -0.157037
  30 H :    0.156280
  31 H :    0.156293
  32 H :    0.153020
  33 H :    0.152996
  34 N :    0.288478
  35 C :   -0.173550
  36 C :   -0.168537
  37 C :   -0.110590
  38 C :   -0.110702
  39 C :   -0.115310
  40 C :   -0.115200
  41 C :   -0.140928
  42 H :    0.164371
  43 C :   -0.140478
  44 H :    0.163615
  45 C :   -0.142376
  46 H :    0.164228
  47 C :   -0.141375
  48 H :    0.163224
  49 C :   -0.152999
  50 H :    0.156528
  51 H :    0.156573
  52 C :   -0.157419
  53 H :    0.156496
  54 H :    0.156439
  55 H :    0.153636
  56 H :    0.153200
  57 N :    0.291617
  58 C :   -0.171620
  59 C :   -0.169047
  60 C :   -0.110347
  61 C :   -0.110376
  62 C :   -0.113918
  63 C :   -0.113613
  64 C :   -0.140553
  65 H :    0.164362
  66 C :   -0.139974
  67 H :    0.163919
  68 C :   -0.141966
  69 H :    0.164339
  70 C :   -0.140924
  71 H :    0.163355
  72 C :   -0.152371
  73 H :    0.156620
  74 H :    0.156720
  75 C :   -0.155214
  76 H :    0.156475
  77 H :    0.156527
  78 H :    0.153840
  79 H :    0.153492

  Mayer bond orders larger than 0.100000
B(  0-C ,  1-C ) :   1.4266 B(  0-C ,  5-C ) :   1.2189 B(  0-C , 57-N ) :   1.1068
B(  1-C ,  2-C ) :   1.3931 B(  1-C ,  8-F ) :   1.0200 B(  2-C ,  3-C ) :   1.2342
B(  2-C , 34-N ) :   1.0522 B(  3-C ,  4-C ) :   1.4103 B(  3-C ,  6-C ) :   0.9353
B(  4-C ,  5-C ) :   1.3646 B(  4-C , 11-N ) :   1.0510 B(  5-C ,  7-C ) :   0.9417
B(  6-C ,  9-N ) :   2.9902 B(  7-C , 10-N ) :   2.9872 B( 11-N , 12-C ) :   0.9674
B( 11-N , 13-C ) :   0.9630 B( 12-C , 14-C ) :   1.4186 B( 12-C , 15-C ) :   1.3965
B( 13-C , 16-C ) :   1.4265 B( 13-C , 17-C ) :   1.3958 B( 14-C , 18-C ) :   1.4274
B( 14-C , 19-H ) :   0.9683 B( 15-C , 20-C ) :   1.4367 B( 15-C , 21-H ) :   0.9824
B( 16-C , 22-C ) :   1.4250 B( 16-C , 23-H ) :   0.9708 B( 17-C , 24-C ) :   1.4442
B( 17-C , 25-H ) :   0.9809 B( 18-C , 26-C ) :   1.3998 B( 18-C , 27-H ) :   0.9794
B( 20-C , 26-C ) :   1.3866 B( 20-C , 28-H ) :   0.9758 B( 22-C , 29-C ) :   1.4036
B( 22-C , 30-H ) :   0.9767 B( 24-C , 29-C ) :   1.3850 B( 24-C , 31-H ) :   0.9755
B( 26-C , 32-H ) :   0.9784 B( 29-C , 33-H ) :   0.9788 B( 34-N , 35-C ) :   0.9525
B( 34-N , 36-C ) :   0.9789 B( 35-C , 37-C ) :   1.4367 B( 35-C , 38-C ) :   1.4061
B( 36-C , 39-C ) :   1.4288 B( 36-C , 40-C ) :   1.3962 B( 37-C , 41-C ) :   1.4273
B( 37-C , 42-H ) :   0.9693 B( 38-C , 43-C ) :   1.4450 B( 38-C , 44-H ) :   0.9757
B( 39-C , 45-C ) :   1.4326 B( 39-C , 46-H ) :   0.9592 B( 40-C , 47-C ) :   1.4394
B( 40-C , 48-H ) :   0.9744 B( 41-C , 49-C ) :   1.4028 B( 41-C , 50-H ) :   0.9771
B( 43-C , 49-C ) :   1.3873 B( 43-C , 51-H ) :   0.9746 B( 45-C , 52-C ) :   1.3984
B( 45-C , 53-H ) :   0.9782 B( 47-C , 52-C ) :   1.3897 B( 47-C , 54-H ) :   0.9761
B( 49-C , 55-H ) :   0.9775 B( 52-C , 56-H ) :   0.9778 B( 57-N , 58-C ) :   0.9543
B( 57-N , 59-C ) :   0.9702 B( 58-C , 60-C ) :   1.4320 B( 58-C , 61-C ) :   1.4126
B( 59-C , 62-C ) :   1.4291 B( 59-C , 63-C ) :   1.3946 B( 60-C , 64-C ) :   1.4324
B( 60-C , 65-H ) :   0.9691 B( 61-C , 66-C ) :   1.4399 B( 61-C , 67-H ) :   0.9764
B( 62-C , 68-C ) :   1.4373 B( 62-C , 69-H ) :   0.9570 B( 63-C , 70-C ) :   1.4403
B( 63-C , 71-H ) :   0.9744 B( 64-C , 72-C ) :   1.4006 B( 64-C , 73-H ) :   0.9753
B( 66-C , 72-C ) :   1.3878 B( 66-C , 74-H ) :   0.9755 B( 68-C , 75-C ) :   1.4003
B( 68-C , 76-H ) :   0.9767 B( 70-C , 75-C ) :   1.3892 B( 70-C , 77-H ) :   0.9755
B( 72-C , 78-H ) :   0.9771 B( 75-C , 79-H ) :   0.9776

MP2 TOTAL ENERGY:    -2066.328210731 Eh

-----------------------------------------------------------------------------
         ABSORPTION SPECTRUM VIA TRANSITION ELECTRIC DIPOLE MOMENTS
-----------------------------------------------------------------------------
State   Energy    Wavelength  fosc         T2        TX        TY        TZ
        (cm-1)      (nm)                 (au**2)    (au)      (au)      (au)
-----------------------------------------------------------------------------
   1   23768.8    420.7   0.290414308   4.02241   0.47719   1.94624   0.08285
   2   25852.3    386.8   0.207408319   2.64121   1.54284  -0.23370   0.45413
   3   27720.4    360.7   0.229714688   2.72813  -1.57290   0.21158  -0.45753
   4   26800.6    373.1   0.069782104   0.85718   0.26545  -0.88494   0.06003
   5   29981.9    333.5   0.335561641   3.68458   0.69560   1.76425   0.29687
   6   31859.5    313.9   0.009092640   0.09396   0.00092   0.26779   0.14915
   7   36813.7    271.6   0.202705616   1.81272  -0.46728  -0.91547   0.86965
   8   37705.9    265.2   0.073465714   0.64143   0.00387   0.68340   0.41759
   9   37929.7    263.6   0.439548288   3.81507  -1.57782   0.43231   1.06709
  10   35891.5    278.6   0.057679919   0.52906   0.21324   0.15169  -0.67867
  11   36269.3    275.7   0.097445826   0.88450  -0.51451  -0.78141   0.09581
  12   35991.4    277.8   0.071653202   0.65541   0.54594  -0.00822  -0.59774
  13   37442.4    267.1   0.039991012   0.35162   0.43455  -0.37150   0.15741
  14   37575.2    266.1   0.021408053   0.18756  -0.42803  -0.05107   0.04180
  15   37629.5    265.7   0.015504251   0.13564  -0.05859   0.33477   0.14192
  16   44824.5    223.1   0.051286297   0.37667   0.55990   0.24171   0.06899
  17   41815.8    239.1   0.161252406   1.26953  -0.18569  -1.10823   0.08293
  18   46029.9    217.3   0.042740522   0.30569   0.10574   0.53045   0.11458
  19   44903.6    222.7   0.018116197   0.13282  -0.28436  -0.14001   0.17988
  20   44435.2    225.0   0.021209607   0.15714   0.01839   0.17384   0.35578
  21   42961.1    232.8   0.006805751   0.05215   0.09434   0.20222  -0.04859
  22   43288.1    231.0   0.111847595   0.85062   0.73902  -0.20924  -0.51057
  23   43284.5    231.0   0.051247476   0.38978  -0.18738  -0.12147  -0.58302
  24   44987.1    222.3   0.050526824   0.36975   0.15092   0.50105  -0.30972
  25   43465.5    230.1   0.210897763   1.59736  -0.91208  -0.84469   0.22795
  26   43587.5    229.4   0.135343491   1.02224   0.17388   0.05445  -0.99450
  27   44661.8    223.9   0.042941004   0.31653   0.42854   0.24631  -0.26873
  28   44116.1    226.7   0.090434023   0.67486  -0.02840   0.77248   0.27807
  29   44905.4    222.7   0.051352331   0.37648   0.15229   0.20953  -0.55622
  30   44988.2    222.3   0.243416375   1.78126   0.19585  -0.20661   1.30392
  31   44277.3    225.8   0.112084952   0.83338  -0.81686   0.35154   0.20626
  32   46134.1    216.8   0.050894127   0.36318   0.30900  -0.51415   0.05782
  33   45915.0    217.8   0.143251771   1.02712  -0.52743   0.51575   0.69494
  34   46742.8    213.9   0.275841246   1.94276  -1.20679   0.28281   0.63752
  35   47869.2    208.9   0.931884649   6.40887   1.93502  -0.90838  -1.35624
  36   45163.3    221.4   0.039792299   0.29006  -0.47191  -0.11674  -0.23181
  37   47780.2    209.3   0.056287227   0.38783  -0.22760  -0.57285  -0.08869
  38   46070.6    217.1   0.230198414   1.64495   0.76876  -0.68694   0.76294
  39   46371.0    215.7   0.076165399   0.54074  -0.60211  -0.17875  -0.38243
  40   46184.7    216.5   0.060266990   0.42959   0.43052  -0.01275   0.49405
  41   45564.3    219.5   0.195770656   1.41449   0.11002  -0.90996   0.75786
  42   48082.7    208.0   0.216917799   1.48519  -1.06567   0.57667  -0.13039
  43   49604.8    201.6   0.465672151   3.09053  -1.07790  -0.59911   1.25289
  44   46992.0    212.8   0.043703225   0.30617  -0.41825  -0.32125   0.16744
  45   47848.4    209.0   0.007039323   0.04843   0.13786   0.13137   0.11032
  46   48039.5    208.2   0.091698313   0.62840  -0.29011  -0.69078  -0.25897
  47   46827.4    213.6   0.121156850   0.85177   0.45573   0.80209  -0.02717
  48   47343.1    211.2   0.104452349   0.72634  -0.68627  -0.22328   0.45334
  49   47489.2    210.6   0.230437156   1.59747   0.57344   1.12601   0.02707
  50   48121.1    207.8   0.016064898   0.10991  -0.17272   0.02930  -0.28145
  51   46879.9    213.3   0.093056094   0.65348  -0.47364  -0.57427  -0.31522
  52   47919.7    208.7   0.144572348   0.99322  -0.39538   0.87130   0.27881
  53   48549.1    206.0   0.185616175   1.25866   0.83878   0.74337   0.05019
  54   46949.5    213.0   0.033985478   0.23831  -0.41548  -0.02311   0.25524
  55   48453.7    206.4   0.079960956   0.54328  -0.39909  -0.38079  -0.48889
  56   49245.8    203.1   0.141639605   0.94687   0.03002  -0.92461   0.30176
  57   47983.1    208.4   0.017845755   0.12244   0.26169   0.02221   0.23122
  58   48726.1    205.2   0.007980533   0.05392   0.08376   0.15654  -0.14966
  59   48535.1    206.0   0.040782309   0.27663  -0.48745   0.19023   0.05322
  60   49874.9    200.5   0.034952920   0.23072  -0.27287   0.37486  -0.12545

FINAL SINGLE POINT ENERGY     -2063.204441419839

DIPOLE MOMENT
-------------
                                X             Y             Z
Electronic contribution:     -2.11030       0.51183      -0.34670
Nuclear contribution   :      0.52582       0.54399      -0.36258
                        -----------------------------------------
Total Dipole Moment    :     -1.58448       1.05582      -0.70928
                        -----------------------------------------
Magnitude (a.u.)       :      2.03185
Magnitude (Debye)      :      5.16455

Rotational constants in cm-1:     0.002315     0.002172     0.001481
Rotational constants in MHz :    69.390748    65.102508    44.409379

                             ****ORCA TERMINATED NORMALLY****
TOTAL RUN TIME: 5 days 20 hours 9 minutes 10 seconds 699 msec
