                         Program Version 5.0.2 -  RELEASE  -
|  1> %maxcore 24000
|  2> %pal
|  3>  nprocs= 8
|  4> end
|  5> ! RI-B2PLYP D3BJ def2-TZVP def2/J def2-TZVP/C RIJCOSX CPCM TightSCF
|  6> %TDDFT DCORR 4
|  7>    NROOTS   60
|  8>   TDA      FALSE
|  9> END
| 10>
| 11>  %CPCM
| 12>    SMD          TRUE
| 13>    SMDsolvent   "ACETONITRILE"
| 14>  END
| 15>
| 16>
| 17> * xyz 0 1
| 18> C                  -0.09813300    1.39242200    0.01340000
| 19> C                  -1.20637900    0.60874400   -0.29352100
| 20> C                  -1.19524300   -0.78207400   -0.27236200
| 21> C                   0.03211700   -1.43179700    0.00936000
| 22> C                   1.18254600   -0.68059500    0.30053400
| 23> C                   1.10095000    0.71991200    0.34893500
| 24> C                   0.10905800   -2.84191600    0.00152300
| 25> C                   2.20820800    1.44917600    0.83684900
| 26> F                  -2.32243000    1.22148900   -0.69634000
| 27> N                   0.18172800   -3.99861900    0.00279700
| 28> N                   3.11213500    2.03242400    1.26805200
| 29> N                   2.40257400   -1.31501700    0.58267100
| 30> C                   3.54736000   -0.93505600   -0.15925700
| 31> C                   2.47202700   -2.26177900    1.63312100
| 32> C                   3.41016000   -0.56535400   -1.49760300
| 33> C                   4.80666700   -0.88523200    0.43791100
| 34> C                   1.67530700   -2.10006700    2.76587800
| 35> C                   3.30954700   -3.37277600    1.53715400
| 36> C                   4.51316200   -0.13516200   -2.21728600
| 37> H                   2.43702300   -0.61638900   -1.97148600
| 38> C                   5.90440100   -0.47135100   -0.29617700
| 39> H                   4.91794500   -1.15275100    1.48064200
| 40> C                   1.70763900   -3.04523900    3.77860500
| 41> H                   1.02969900   -1.23392500    2.84858600
| 42> C                   3.34553300   -4.30174200    2.56190900
| 43> H                   3.91866800   -3.51091500    0.65322400
| 44> C                   5.76637200   -0.08683400   -1.62395500
| 45> H                   4.38942700    0.15208700   -3.25410100
| 46> H                   6.87487800   -0.43099800    0.18245000
| 47> C                   2.54325600   -4.14863000    3.68589500
| 48> H                   1.08216200   -2.90774000    4.65167500
| 49> H                   3.99637400   -5.16250000    2.47269900
| 50> H                   6.62742400    0.24434000   -2.18951600
| 51> H                   2.57091600   -4.88227700    4.48085000
| 52> N                  -2.35461600   -1.48622000   -0.58604000
| 53> C                  -2.31584000   -2.51804500   -1.55954300
| 54> C                  -3.57137900   -1.12006900    0.04154900
| 55> C                  -1.50701900   -2.37888600   -2.68521200
| 56> C                  -3.06545300   -3.67977300   -1.38688900
| 57> C                  -3.56216100   -0.67398200    1.36251700
| 58> C                  -4.77810200   -1.18220100   -0.65382800
| 59> C                  -1.43563900   -3.40256300   -3.61632400
| 60> H                  -0.93421300   -1.46968200   -2.82465500
| 61> C                  -2.99855800   -4.68925100   -2.33086700
| 62> H                  -3.68574500   -3.79106700   -0.50680900
| 63> C                  -4.74379600   -0.28414300    1.97131600
| 64> H                  -2.62844600   -0.63768700    1.91099700
| 65> C                  -5.95480100   -0.80638400   -0.02939600
| 66> H                  -4.78865300   -1.51533000   -1.68337700
| 67> C                  -2.18018800   -4.56065900   -3.44620000
| 68> H                  -0.80179000   -3.28570600   -4.48622600
| 69> H                  -3.57954700   -5.59114600   -2.18485000
| 70> C                  -5.94648400   -0.35120600    1.28278700
| 71> H                  -4.72219800    0.06114700    2.99744800
| 72> H                  -6.88524500   -0.85588300   -0.58096000
| 73> H                  -2.12586800   -5.35662500   -4.17733100
| 74> H                  -6.86900700   -0.05323500    1.76357000
| 75> N                  -0.17654800    2.77809700   -0.02664800
| 76> C                   0.85731900    3.52236800   -0.65521300
| 77> C                  -1.28859700    3.43307200    0.56225100
| 78> C                   1.46649000    3.02592900   -1.80608100
| 79> C                   1.28606100    4.73255100   -0.11468100
| 80> C                  -1.85516300    2.92207900    1.72844200
| 81> C                  -1.83117100    4.57461600   -0.02474200
| 82> C                   2.50727300    3.72558000   -2.39474400
| 83> H                   1.12482800    2.09134900   -2.23419700
| 84> C                   2.31513300    5.43169000   -0.72110600
| 85> H                   0.82204500    5.11235400    0.78639000
| 86> C                  -2.95931500    3.54115700    2.29096900
| 87> H                  -1.42557100    2.04255400    2.19312000
| 88> C                  -2.92451700    5.19430400    0.55527800
| 89> H                  -1.39963600    4.96699800   -0.93645900
| 90> C                   2.93594500    4.93123000   -1.85846700
| 91> H                   2.97500800    3.32907900   -3.28717600
| 92> H                   2.64520400    6.36837200   -0.28997600
| 93> C                  -3.49782600    4.68107700    1.71163900
| 94> H                  -3.39081900    3.13471700    3.19710400
| 95> H                  -3.34016700    6.07894600    0.08956200
| 96> H                   3.74567900    5.47816800   -2.32338400
| 97> H                  -4.35599900    5.16686100    2.15721800
| 98> *
| 99>
|100>
|101>                          ****END OF INPUT****

CARTESIAN COORDINATES (ANGSTROEM)
---------------------------------
  C     -0.098133    1.392422    0.013400
  C     -1.206379    0.608744   -0.293521
  C     -1.195243   -0.782074   -0.272362
  C      0.032117   -1.431797    0.009360
  C      1.182546   -0.680595    0.300534
  C      1.100950    0.719912    0.348935
  C      0.109058   -2.841916    0.001523
  C      2.208208    1.449176    0.836849
  F     -2.322430    1.221489   -0.696340
  N      0.181728   -3.998619    0.002797
  N      3.112135    2.032424    1.268052
  N      2.402574   -1.315017    0.582671
  C      3.547360   -0.935056   -0.159257
  C      2.472027   -2.261779    1.633121
  C      3.410160   -0.565354   -1.497603
  C      4.806667   -0.885232    0.437911
  C      1.675307   -2.100067    2.765878
  C      3.309547   -3.372776    1.537154
  C      4.513162   -0.135162   -2.217286
  H      2.437023   -0.616389   -1.971486
  C      5.904401   -0.471351   -0.296177
  H      4.917945   -1.152751    1.480642
  C      1.707639   -3.045239    3.778605
  H      1.029699   -1.233925    2.848586
  C      3.345533   -4.301742    2.561909
  H      3.918668   -3.510915    0.653224
  C      5.766372   -0.086834   -1.623955
  H      4.389427    0.152087   -3.254101
  H      6.874878   -0.430998    0.182450
  C      2.543256   -4.148630    3.685895
  H      1.082162   -2.907740    4.651675
  H      3.996374   -5.162500    2.472699
  H      6.627424    0.244340   -2.189516
  H      2.570916   -4.882277    4.480850
  N     -2.354616   -1.486220   -0.586040
  C     -2.315840   -2.518045   -1.559543
  C     -3.571379   -1.120069    0.041549
  C     -1.507019   -2.378886   -2.685212
  C     -3.065453   -3.679773   -1.386889
  C     -3.562161   -0.673982    1.362517
  C     -4.778102   -1.182201   -0.653828
  C     -1.435639   -3.402563   -3.616324
  H     -0.934213   -1.469682   -2.824655
  C     -2.998558   -4.689251   -2.330867
  H     -3.685745   -3.791067   -0.506809
  C     -4.743796   -0.284143    1.971316
  H     -2.628446   -0.637687    1.910997
  C     -5.954801   -0.806384   -0.029396
  H     -4.788653   -1.515330   -1.683377
  C     -2.180188   -4.560659   -3.446200
  H     -0.801790   -3.285706   -4.486226
  H     -3.579547   -5.591146   -2.184850
  C     -5.946484   -0.351206    1.282787
  H     -4.722198    0.061147    2.997448
  H     -6.885245   -0.855883   -0.580960
  H     -2.125868   -5.356625   -4.177331
  H     -6.869007   -0.053235    1.763570
  N     -0.176548    2.778097   -0.026648
  C      0.857319    3.522368   -0.655213
  C     -1.288597    3.433072    0.562251
  C      1.466490    3.025929   -1.806081
  C      1.286061    4.732551   -0.114681
  C     -1.855163    2.922079    1.728442
  C     -1.831171    4.574616   -0.024742
  C      2.507273    3.725580   -2.394744
  H      1.124828    2.091349   -2.234197
  C      2.315133    5.431690   -0.721106
  H      0.822045    5.112354    0.786390
  C     -2.959315    3.541157    2.290969
  H     -1.425571    2.042554    2.193120
  C     -2.924517    5.194304    0.555278
  H     -1.399636    4.966998   -0.936459
  C      2.935945    4.931230   -1.858467
  H      2.975008    3.329079   -3.287176
  H      2.645204    6.368372   -0.289976
  C     -3.497826    4.681077    1.711639
  H     -3.390819    3.134717    3.197104
  H     -3.340167    6.078946    0.089562
  H      3.745679    5.478168   -2.323384
  H     -4.355999    5.166861    2.157218

 Total Charge           Charge          ....    0
 Multiplicity           Mult            ....    1
 Number of Electrons    NEL             ....  338
 Basis Dimension        Dim             .... 1730

ORBITAL ENERGIES
----------------

  NO   OCC          E(Eh)            E(eV)
   0   2.0000     -25.389383      -690.8802
   1   2.0000     -14.889872      -405.1740
   2   2.0000     -14.887333      -405.1049
   3   2.0000     -14.883038      -404.9880
   4   2.0000     -14.851712      -404.1356
   5   2.0000     -14.851627      -404.1333
   6   2.0000     -10.724162      -291.8193
   7   2.0000     -10.710994      -291.4610
   8   2.0000     -10.710109      -291.4369
   9   2.0000     -10.709748      -291.4270
  10   2.0000     -10.674904      -290.4789
  11   2.0000     -10.674676      -290.4727
  12   2.0000     -10.672470      -290.4127
  13   2.0000     -10.672447      -290.4120
  14   2.0000     -10.667606      -290.2803
  15   2.0000     -10.667573      -290.2794
  16   2.0000     -10.667486      -290.2771
  17   2.0000     -10.666840      -290.2595
  18   2.0000     -10.666674      -290.2550
  19   2.0000     -10.666433      -290.2484
  20   2.0000     -10.619286      -288.9655
  21   2.0000     -10.619033      -288.9586
  22   2.0000     -10.618884      -288.9545
  23   2.0000     -10.618879      -288.9544
  24   2.0000     -10.618810      -288.9525
  25   2.0000     -10.618668      -288.9486
  26   2.0000     -10.618552      -288.9455
  27   2.0000     -10.618463      -288.9431
  28   2.0000     -10.618312      -288.9390
  29   2.0000     -10.618093      -288.9330
  30   2.0000     -10.617943      -288.9289
  31   2.0000     -10.617784      -288.9246
  32   2.0000     -10.617754      -288.9238
  33   2.0000     -10.617738      -288.9233
  34   2.0000     -10.617604      -288.9197
  35   2.0000     -10.617320      -288.9120
  36   2.0000     -10.617118      -288.9065
  37   2.0000     -10.616927      -288.9013
  38   2.0000     -10.616751      -288.8965
  39   2.0000     -10.616458      -288.8885
  40   2.0000     -10.616334      -288.8851
  41   2.0000     -10.616292      -288.8840
  42   2.0000     -10.615243      -288.8554
  43   2.0000     -10.615214      -288.8547
  44   2.0000     -10.614074      -288.8236
  45   2.0000     -10.613760      -288.8151
  46   2.0000     -10.613367      -288.8044
  47   2.0000     -10.612618      -288.7840
  48   2.0000     -10.612017      -288.7677
  49   2.0000     -10.611884      -288.7641
  50   2.0000      -1.420063       -38.6419
  51   2.0000      -1.134943       -30.8834
  52   2.0000      -1.126197       -30.6454
  53   2.0000      -1.122258       -30.5382
  54   2.0000      -1.052489       -28.6397
  55   2.0000      -1.051945       -28.6249
  56   2.0000      -1.015029       -27.6203
  57   2.0000      -0.990358       -26.9490
  58   2.0000      -0.989795       -26.9337
  59   2.0000      -0.988792       -26.9064
  60   2.0000      -0.979049       -26.6413
  61   2.0000      -0.977025       -26.5862
  62   2.0000      -0.964042       -26.2329
  63   2.0000      -0.923567       -25.1315
  64   2.0000      -0.907317       -24.6894
  65   2.0000      -0.878289       -23.8994
  66   2.0000      -0.877512       -23.8783
  67   2.0000      -0.876754       -23.8577
  68   2.0000      -0.867964       -23.6185
  69   2.0000      -0.867408       -23.6034
  70   2.0000      -0.865127       -23.5413
  71   2.0000      -0.863020       -23.4840
  72   2.0000      -0.862375       -23.4664
  73   2.0000      -0.861285       -23.4368
  74   2.0000      -0.845980       -23.0203
  75   2.0000      -0.836295       -22.7567
  76   2.0000      -0.834277       -22.7018
  77   2.0000      -0.782325       -21.2881
  78   2.0000      -0.768866       -20.9219
  79   2.0000      -0.727371       -19.7928
  80   2.0000      -0.726184       -19.7605
  81   2.0000      -0.723017       -19.6743
  82   2.0000      -0.721529       -19.6338
  83   2.0000      -0.711264       -19.3545
  84   2.0000      -0.707614       -19.2551
  85   2.0000      -0.702056       -19.1039
  86   2.0000      -0.700619       -19.0648
  87   2.0000      -0.699676       -19.0392
  88   2.0000      -0.698149       -18.9976
  89   2.0000      -0.687402       -18.7051
  90   2.0000      -0.671550       -18.2738
  91   2.0000      -0.666775       -18.1439
  92   2.0000      -0.651823       -17.7370
  93   2.0000      -0.633067       -17.2266
  94   2.0000      -0.626124       -17.0377
  95   2.0000      -0.621830       -16.9209
  96   2.0000      -0.614031       -16.7086
  97   2.0000      -0.613717       -16.7001
  98   2.0000      -0.611849       -16.6492
  99   2.0000      -0.590526       -16.0690
 100   2.0000      -0.585479       -15.9317
 101   2.0000      -0.582175       -15.8418
 102   2.0000      -0.576500       -15.6874
 103   2.0000      -0.567335       -15.4380
 104   2.0000      -0.562243       -15.2994
 105   2.0000      -0.558176       -15.1887
 106   2.0000      -0.556877       -15.1534
 107   2.0000      -0.556402       -15.1405
 108   2.0000      -0.538683       -14.6583
 109   2.0000      -0.536138       -14.5891
 110   2.0000      -0.533516       -14.5177
 111   2.0000      -0.527796       -14.3621
 112   2.0000      -0.526867       -14.3368
 113   2.0000      -0.522565       -14.2197
 114   2.0000      -0.513986       -13.9863
 115   2.0000      -0.512312       -13.9407
 116   2.0000      -0.511483       -13.9182
 117   2.0000      -0.508846       -13.8464
 118   2.0000      -0.506701       -13.7880
 119   2.0000      -0.503036       -13.6883
 120   2.0000      -0.498037       -13.5523
 121   2.0000      -0.496682       -13.5154
 122   2.0000      -0.495662       -13.4877
 123   2.0000      -0.494991       -13.4694
 124   2.0000      -0.493793       -13.4368
 125   2.0000      -0.493081       -13.4174
 126   2.0000      -0.492680       -13.4065
 127   2.0000      -0.480244       -13.0681
 128   2.0000      -0.470083       -12.7916
 129   2.0000      -0.464599       -12.6424
 130   2.0000      -0.459794       -12.5116
 131   2.0000      -0.458742       -12.4830
 132   2.0000      -0.455044       -12.3824
 133   2.0000      -0.451350       -12.2819
 134   2.0000      -0.443382       -12.0650
 135   2.0000      -0.438138       -11.9223
 136   2.0000      -0.434438       -11.8217
 137   2.0000      -0.432438       -11.7672
 138   2.0000      -0.431424       -11.7396
 139   2.0000      -0.430532       -11.7154
 140   2.0000      -0.423241       -11.5170
 141   2.0000      -0.422350       -11.4927
 142   2.0000      -0.421726       -11.4758
 143   2.0000      -0.415213       -11.2985
 144   2.0000      -0.413453       -11.2506
 145   2.0000      -0.412174       -11.2158
 146   2.0000      -0.410578       -11.1724
 147   2.0000      -0.409435       -11.1413
 148   2.0000      -0.407624       -11.0920
 149   2.0000      -0.406805       -11.0697
 150   2.0000      -0.403021       -10.9668
 151   2.0000      -0.400811       -10.9066
 152   2.0000      -0.386715       -10.5231
 153   2.0000      -0.383233       -10.4283
 154   2.0000      -0.368591       -10.0299
 155   2.0000      -0.321631        -8.7520
 156   2.0000      -0.320048        -8.7089
 157   2.0000      -0.306849        -8.3498
 158   2.0000      -0.303566        -8.2604
 159   2.0000      -0.302370        -8.2279
 160   2.0000      -0.301267        -8.1979
 161   2.0000      -0.299552        -8.1512
 162   2.0000      -0.298958        -8.1351
 163   2.0000      -0.296668        -8.0727
 164   2.0000      -0.293618        -7.9897
 165   2.0000      -0.292188        -7.9509
 166   2.0000      -0.244689        -6.6583
 167   2.0000      -0.239925        -6.5287
 168   2.0000      -0.235865        -6.4182
 169   0.0000      -0.031711        -0.8629
 170   0.0000      -0.010563        -0.2874
 171   0.0000       0.023751         0.6463
 172   0.0000       0.025128         0.6838
 173   0.0000       0.028240         0.7685

MULLIKEN ATOMIC CHARGES
-----------------------
   0 C :   -0.096610
   1 C :    0.428081
   2 C :   -0.162620
   3 C :    0.283853
   4 C :   -0.208851
   5 C :    0.245657
   6 C :   -0.130946
   7 C :   -0.120199
   8 F :   -0.253833
   9 N :   -0.157580
  10 N :   -0.157923
  11 N :    0.066764
  12 C :    0.174542
  13 C :    0.166626
  14 C :   -0.253164
  15 C :   -0.287554
  16 C :   -0.248874
  17 C :   -0.290385
  18 C :   -0.160217
  19 H :    0.176018
  20 C :   -0.112081
  21 H :    0.166078
  22 C :   -0.148239
  23 H :    0.172011
  24 C :   -0.117585
  25 H :    0.166182
  26 C :   -0.171826
  27 H :    0.158309
  28 H :    0.158277
  29 C :   -0.172348
  30 H :    0.157921
  31 H :    0.158127
  32 H :    0.157625
  33 H :    0.157047
  34 N :    0.087637
  35 C :    0.120005
  36 C :    0.196893
  37 C :   -0.232222
  38 C :   -0.256070
  39 C :   -0.256794
  40 C :   -0.288044
  41 C :   -0.151708
  42 H :    0.173520
  43 C :   -0.128914
  44 H :    0.167666
  45 C :   -0.156299
  46 H :    0.175556
  47 C :   -0.122690
  48 H :    0.168986
  49 C :   -0.160407
  50 H :    0.158529
  51 H :    0.159367
  52 C :   -0.169024
  53 H :    0.159358
  54 H :    0.158621
  55 H :    0.158186
  56 H :    0.158008
  57 N :    0.092643
  58 C :    0.125985
  59 C :    0.187248
  60 C :   -0.232190
  61 C :   -0.256142
  62 C :   -0.249732
  63 C :   -0.287814
  64 C :   -0.149929
  65 H :    0.171036
  66 C :   -0.125489
  67 H :    0.168139
  68 C :   -0.150065
  69 H :    0.174441
  70 C :   -0.118961
  71 H :    0.168682
  72 C :   -0.162940
  73 H :    0.159392
  74 H :    0.159269
  75 C :   -0.171048
  76 H :    0.159258
  77 H :    0.159011
  78 H :    0.158700
  79 H :    0.158061
Sum of atomic charges:   -0.0000000

LOEWDIN ATOMIC CHARGES
----------------------
   0 C :   -0.085191
   1 C :   -0.188528
   2 C :   -0.082711
   3 C :   -0.088586
   4 C :   -0.064485
   5 C :   -0.088786
   6 C :   -0.126921
   7 C :   -0.126385
   8 F :    0.211047
   9 N :    0.013121
  10 N :    0.012626
  11 N :    0.288815
  12 C :   -0.167655
  13 C :   -0.169111
  14 C :   -0.111785
  15 C :   -0.111405
  16 C :   -0.111275
  17 C :   -0.110911
  18 C :   -0.140840
  19 H :    0.160559
  20 C :   -0.141051
  21 H :    0.159848
  22 C :   -0.140792
  23 H :    0.160809
  24 C :   -0.140734
  25 H :    0.159604
  26 C :   -0.155901
  27 H :    0.152870
  28 H :    0.152803
  29 C :   -0.154695
  30 H :    0.152755
  31 H :    0.152764
  32 H :    0.149566
  33 H :    0.149587
  34 N :    0.292741
  35 C :   -0.168953
  36 C :   -0.164953
  37 C :   -0.107944
  38 C :   -0.107784
  39 C :   -0.112322
  40 C :   -0.112453
  41 C :   -0.139332
  42 H :    0.161065
  43 C :   -0.139059
  44 H :    0.160133
  45 C :   -0.140554
  46 H :    0.160964
  47 C :   -0.140043
  48 H :    0.159865
  49 C :   -0.150572
  50 H :    0.153059
  51 H :    0.153091
  52 C :   -0.154815
  53 H :    0.152987
  54 H :    0.152946
  55 H :    0.150266
  56 H :    0.149811
  57 N :    0.295945
  58 C :   -0.167048
  59 C :   -0.165261
  60 C :   -0.107390
  61 C :   -0.107498
  62 C :   -0.110975
  63 C :   -0.110916
  64 C :   -0.138645
  65 H :    0.161044
  66 C :   -0.138607
  67 H :    0.160443
  68 C :   -0.140048
  69 H :    0.161055
  70 C :   -0.139483
  71 H :    0.159965
  72 C :   -0.150036
  73 H :    0.153137
  74 H :    0.153228
  75 C :   -0.152677
  76 H :    0.152990
  77 H :    0.153054
  78 H :    0.150438
  79 H :    0.150114

  Mayer bond orders larger than 0.100000
B(  0-C ,  1-C ) :   1.4119 B(  0-C ,  5-C ) :   1.1780 B(  0-C , 57-N ) :   1.0904
B(  1-C ,  2-C ) :   1.3866 B(  1-C ,  8-F ) :   1.0122 B(  2-C ,  3-C ) :   1.1972
B(  2-C , 34-N ) :   1.0390 B(  3-C ,  4-C ) :   1.3669 B(  3-C ,  6-C ) :   0.9945
B(  4-C ,  5-C ) :   1.3278 B(  4-C , 11-N ) :   1.0284 B(  5-C ,  7-C ) :   1.0074
B(  6-C ,  9-N ) :   2.9996 B(  7-C , 10-N ) :   2.9962 B( 11-N , 12-C ) :   0.9671
B( 11-N , 13-C ) :   0.9607 B( 12-C , 14-C ) :   1.3994 B( 12-C , 15-C ) :   1.3776
B( 13-C , 16-C ) :   1.4024 B( 13-C , 17-C ) :   1.3792 B( 14-C , 18-C ) :   1.4170
B( 14-C , 19-H ) :   0.9623 B( 15-C , 20-C ) :   1.4233 B( 15-C , 21-H ) :   0.9848
B( 16-C , 22-C ) :   1.4172 B( 16-C , 23-H ) :   0.9679 B( 17-C , 24-C ) :   1.4296
B( 17-C , 25-H ) :   0.9834 B( 18-C , 26-C ) :   1.3936 B( 18-C , 27-H ) :   0.9837
B( 20-C , 26-C ) :   1.3827 B( 20-C , 28-H ) :   0.9798 B( 22-C , 29-C ) :   1.3989
B( 22-C , 30-H ) :   0.9800 B( 24-C , 29-C ) :   1.3805 B( 24-C , 31-H ) :   0.9791
B( 26-C , 32-H ) :   0.9807 B( 29-C , 33-H ) :   0.9810 B( 34-N , 35-C ) :   0.9454
B( 34-N , 36-C ) :   0.9777 B( 35-C , 37-C ) :   1.4087 B( 35-C , 38-C ) :   1.3852
B( 36-C , 39-C ) :   1.4004 B( 36-C , 40-C ) :   1.3773 B( 37-C , 41-C ) :   1.4199
B( 37-C , 42-H ) :   0.9679 B( 38-C , 43-C ) :   1.4285 B( 38-C , 44-H ) :   0.9804
B( 39-C , 45-C ) :   1.4206 B( 39-C , 46-H ) :   0.9582 B( 40-C , 47-C ) :   1.4271
B( 40-C , 48-H ) :   0.9771 B( 41-C , 49-C ) :   1.3988 B( 41-C , 50-H ) :   0.9801
B( 43-C , 49-C ) :   1.3821 B( 43-C , 51-H ) :   0.9780 B( 45-C , 52-C ) :   1.3925
B( 45-C , 53-H ) :   0.9823 B( 47-C , 52-C ) :   1.3849 B( 47-C , 54-H ) :   0.9802
B( 49-C , 55-H ) :   0.9797 B( 52-C , 56-H ) :   0.9800 B( 57-N , 58-C ) :   0.9481
B( 57-N , 59-C ) :   0.9680 B( 58-C , 60-C ) :   1.4026 B( 58-C , 61-C ) :   1.3889
B( 59-C , 62-C ) :   1.4010 B( 59-C , 63-C ) :   1.3761 B( 60-C , 64-C ) :   1.4240
B( 60-C , 65-H ) :   0.9681 B( 61-C , 66-C ) :   1.4255 B( 61-C , 67-H ) :   0.9806
B( 62-C , 68-C ) :   1.4253 B( 62-C , 69-H ) :   0.9575 B( 63-C , 70-C ) :   1.4278
B( 63-C , 71-H ) :   0.9775 B( 64-C , 72-C ) :   1.3955 B( 64-C , 73-H ) :   0.9786
B( 66-C , 72-C ) :   1.3827 B( 66-C , 74-H ) :   0.9790 B( 68-C , 75-C ) :   1.3946
B( 68-C , 76-H ) :   0.9802 B( 70-C , 75-C ) :   1.3841 B( 70-C , 77-H ) :   0.9798
B( 72-C , 78-H ) :   0.9794 B( 75-C , 79-H ) :   0.9799

MP2 TOTAL ENERGY:    -2067.359307482 Eh

-----------------------------------------------------------------------------
         ABSORPTION SPECTRUM VIA TRANSITION ELECTRIC DIPOLE MOMENTS
-----------------------------------------------------------------------------
State   Energy    Wavelength  fosc         T2        TX        TY        TZ
        (cm-1)      (nm)                 (au**2)    (au)      (au)      (au)
-----------------------------------------------------------------------------
   1   22544.9    443.6   0.255705436   3.73393   0.50058   1.86417   0.09059
   2   24213.1    413.0   0.226993837   3.08630   1.65888  -0.31011   0.48810
   3   25312.7    395.1   0.109244891   1.42082  -1.11641  -0.26255  -0.32482
   4   25036.1    399.4   0.113965232   1.49858   0.86789  -0.83019   0.23692
   5   27961.3    357.6   0.311483604   3.66736  -0.67452  -1.77203  -0.26885
   6   28565.1    350.1   0.016868544   0.19441  -0.15777   0.38633   0.14235
   7   34771.1    287.6   0.193895241   1.83580   0.50674   0.91015  -0.86640
   8   35641.8    280.6   0.073991050   0.68343  -0.04353   0.71332   0.41558
   9   35763.8    279.6   0.357280675   3.28883   1.51677  -0.40888  -0.90611
  10   35415.2    282.4   0.076231035   0.70863  -0.28786  -0.23692   0.75474
  11   35740.2    279.8   0.067108535   0.61815   0.31005   0.71233   0.12084
  12   35594.2    280.9   0.163478272   1.51201   0.81157   0.04241  -0.92280
  13   37359.3    267.7   0.063404972   0.55873  -0.57868   0.47186  -0.03466
  14   37352.7    267.7   0.014485596   0.12767  -0.31652  -0.06808   0.15117
  15   37554.8    266.3   0.017074456   0.14968  -0.20882  -0.29537  -0.13722
  16   38155.3    262.1   0.092304077   0.79642  -0.35050  -0.81374   0.10676
  17   38051.6    262.8   0.033852354   0.29288  -0.31014   0.19751   0.39709
  18   38222.9    261.6   0.002149832   0.01852  -0.02927   0.13261  -0.00862
  19   38593.2    259.1   0.077410509   0.66034  -0.51526   0.23463   0.58291
  20   39115.0    255.7   0.024740000   0.20822  -0.45629  -0.00117  -0.00500
  21   39362.2    254.1   0.111690153   0.93414  -0.56912  -0.74951   0.22018
  22   40297.0    248.2   0.043233507   0.35320  -0.23288   0.54673  -0.00761
  23   39652.8    252.2   0.076610470   0.63605  -0.49518   0.16670  -0.60254
  24   39829.2    251.1   0.028804939   0.23809   0.42770   0.11377   0.20547
  25   39229.6    254.9   0.005540467   0.04650  -0.18606   0.06307  -0.08887
  26   39887.6    250.7   0.027902785   0.23030   0.00828   0.44012   0.19111
  27   41250.9    242.4   0.012205750   0.09741   0.06143   0.30451  -0.03014
  28   41710.5    239.7   0.037635033   0.29704   0.51796  -0.16608  -0.03434
  29   41198.7    242.7   0.006532250   0.05220  -0.06734  -0.18012   0.12338
  30   41840.5    239.0   0.003388331   0.02666   0.08381   0.05609   0.12841
  31   39970.0    250.2   0.001539356   0.01268  -0.08024  -0.07540  -0.02356
  32   41254.4    242.4   0.040525346   0.32339   0.10956   0.06704  -0.55398
  33   42161.1    237.2   0.019845787   0.15496  -0.29936   0.25463  -0.02262
  34   40797.8    245.1   0.037555109   0.30305  -0.26550   0.18393   0.44579
  35   41568.3    240.6   0.027763003   0.21988   0.10817  -0.20824  -0.40597
  36   41638.1    240.2   0.028921607   0.22867  -0.36605  -0.08471   0.29581
  37   40806.0    245.1   0.026635137   0.21489   0.35683  -0.03102   0.29427
  38   41350.1    241.8   0.048301104   0.38455   0.35642   0.50737   0.00972
  39   41701.8    239.8   0.041970322   0.33133   0.22660   0.50933  -0.14342
  40   41472.0    241.1   0.092873319   0.73724  -0.07354   0.66922   0.53290
  41   43018.8    232.5   0.207810421   1.59032   0.84295  -0.38692  -0.85443
  42   43465.7    230.1   0.261124149   1.97777   1.22580  -0.44899  -0.52306
  43   42628.8    234.6   0.105570282   0.81529   0.46004   0.74405  -0.22369
  44   42995.9    232.6   0.043653200   0.33424  -0.50804   0.02625  -0.27468
  45   44132.6    226.6   0.203079050   1.51489   0.86462  -0.28761   0.82741
  46   42898.9    233.1   0.090424695   0.69393  -0.83227  -0.02752   0.02244
  47   44283.4    225.8   0.132910687   0.98809  -0.11084  -0.97599   0.15243
  48   42698.3    234.2   0.018786418   0.14485   0.30539  -0.04870   0.22185
  49   44382.4    225.3   0.023909379   0.17735  -0.02752   0.41885  -0.03401
  50   44410.3    225.2   0.023692897   0.17563   0.00323   0.27951  -0.31224
  51   44112.7    226.7   0.015055217   0.11236  -0.04925  -0.12978   0.30510
  52   45427.2    220.1   0.170810153   1.23787   0.85765  -0.59566  -0.38405
  53   43971.4    227.4   0.053258738   0.39875  -0.26353   0.10720   0.56374
  54   44453.8    225.0   0.081742803   0.60536   0.62237  -0.15249  -0.44132
  55   44367.9    225.4   0.028143826   0.20883   0.18233   0.05365  -0.41558
  56   44812.8    223.2   0.052539628   0.38598   0.12511   0.03059  -0.60777
  57   44508.7    224.7   0.020355501   0.15056   0.13638   0.00194   0.36326
  58   46193.4    216.5   0.039578788   0.28207   0.20082   0.35447  -0.34073
  59   47360.0    211.1   0.266786569   1.85451   0.15890   0.23669  -1.33163
  60   47338.3    211.2   0.272660370   1.89620  -0.94597  -0.79846   0.60316

Dispersion correction           -0.112493824
FINAL SINGLE POINT ENERGY     -2064.709419084013

DIPOLE MOMENT
-------------
                                X             Y             Z
Electronic contribution:     -2.13537       0.52753      -0.35128
Nuclear contribution   :      0.52582       0.54399      -0.36258
                        -----------------------------------------
Total Dipole Moment    :     -1.60955       1.07152      -0.71386
                        -----------------------------------------
Magnitude (a.u.)       :      2.06117
Magnitude (Debye)      :      5.23907

Rotational constants in cm-1:     0.002315     0.002172     0.001481
Rotational constants in MHz :    69.390748    65.102508    44.409379

                             ****ORCA TERMINATED NORMALLY****
TOTAL RUN TIME: 1 days 0 hours 23 minutes 50 seconds 730 msec
