 Gaussian 09, Revision E.01,
 Gaussian 09:  ES64L-G09RevE.01 30-Nov-2015

 ----------------------------------------------------------------------
 #p B97D3/def2TZVP td=(NStates=50) int=ultrafine scrf=(SMD,solvent=Acet
 onitrile)
 ----------------------------------------------------------------------

 -----
 Title
 -----
 Symbolic Z-matrix:
 Charge =  0 Multiplicity = 1

                         Standard orientation:
 ---------------------------------------------------------------------
 Center     Atomic      Atomic             Coordinates (Angstroms)
 Number     Number       Type             X           Y           Z
 ---------------------------------------------------------------------
      1          6           0       -0.077564    1.399145    0.007245
      2          6           0       -1.203649    0.632702   -0.314611
      3          6           0       -1.217907   -0.765891   -0.280397
      4          6           0        0.003379   -1.440836    0.006673
      5          6           0        1.171063   -0.706958    0.307641
      6          6           0        1.109873    0.701161    0.362852
      7          6           0        0.052681   -2.856084   -0.008506
      8          6           0        2.213789    1.415457    0.890237
      9          9           0       -2.311164    1.269747   -0.745765
     10          7           0        0.102891   -4.018543   -0.014628
     11          7           0        3.108603    1.987962    1.364888
     12          7           0        2.381725   -1.361497    0.595567
     13          6           0        3.532974   -1.012654   -0.160569
     14          6           0        2.437768   -2.300393    1.659355
     15          6           0        3.396089   -0.701957   -1.521251
     16          6           0        4.796591   -0.941695    0.441877
     17          6           0        1.668746   -2.089263    2.811847
     18          6           0        3.238240   -3.446713    1.559958
     19          6           0        4.508990   -0.308949   -2.262908
     20          1           0        2.419818   -0.764883   -1.992805
     21          6           0        5.905935   -0.570267   -0.313858
     22          1           0        4.903474   -1.161733    1.499041
     23          6           0        1.693282   -3.022887    3.847037
     24          1           0        1.052659   -1.198379    2.892135
     25          6           0        3.271102   -4.362866    2.608010
     26          1           0        3.820505   -3.621362    0.660874
     27          6           0        5.770436   -0.245300   -1.667069
     28          1           0        4.387676   -0.063845   -3.315223
     29          1           0        6.880322   -0.514080    0.165435
     30          6           0        2.497189   -4.161031    3.755173
     31          1           0        1.089907   -2.849747    4.734805
     32          1           0        3.892804   -5.250440    2.519116
     33          1           0        6.638109    0.054807   -2.248543
     34          1           0        2.520557   -4.883757    4.566409
     35          7           0       -2.391503   -1.457802   -0.586994
     36          6           0       -2.384142   -2.461977   -1.594841
     37          6           0       -3.594207   -1.086889    0.074676
     38          6           0       -1.613565   -2.280247   -2.749931
     39          6           0       -3.131606   -3.635120   -1.431309
     40          6           0       -3.551638   -0.716470    1.425954
     41          6           0       -4.814275   -1.065631   -0.614574
     42          6           0       -1.577867   -3.276363   -3.724876
     43          1           0       -1.044056   -1.364165   -2.878803
     44          6           0       -3.104828   -4.615420   -2.419730
     45          1           0       -3.716954   -3.779112   -0.528655
     46          6           0       -4.717275   -0.310495    2.073591
     47          1           0       -2.608605   -0.747403    1.963950
     48          6           0       -5.976896   -0.679560    0.048382
     49          1           0       -4.846623   -1.340444   -1.664038
     50          6           0       -2.324574   -4.445839   -3.567940
     51          1           0       -0.973301   -3.128953   -4.616331
     52          1           0       -3.683263   -5.525825   -2.283269
     53          6           0       -5.936011   -0.293822    1.391874
     54          1           0       -4.671559   -0.019127    3.119982
     55          1           0       -6.918535   -0.663228   -0.494952
     56          1           0       -2.299773   -5.218350   -4.331892
     57          1           0       -6.844984    0.015646    1.900810
     58          7           0       -0.119007    2.789954   -0.035250
     59          6           0        0.927709    3.504300   -0.685964
     60          6           0       -1.207109    3.475965    0.573260
     61          6           0        1.484158    2.994589   -1.866107
     62          6           0        1.417572    4.697646   -0.141570
     63          6           0       -1.734162    2.999782    1.780619
     64          6           0       -1.765004    4.608542   -0.033813
     65          6           0        2.539500    3.664871   -2.482286
     66          1           0        1.095319    2.074846   -2.292701
     67          6           0        2.457542    5.371655   -0.777218
     68          1           0        0.995137    5.082808    0.781027
     69          6           0       -2.825157    3.641694    2.364296
     70          1           0       -1.289729    2.130279    2.256032
     71          6           0       -2.841442    5.255441    0.568806
     72          1           0       -1.361989    4.971344   -0.974147
     73          6           0        3.029178    4.857242   -1.944939
     74          1           0        2.970776    3.256599   -3.392830
     75          1           0        2.836299    6.294705   -0.345418
     76          6           0       -3.381641    4.773929    1.765452
     77          1           0       -3.231586    3.259957    3.297541
     78          1           0       -3.271309    6.131995    0.090451
     79          1           0        3.848545    5.380967   -2.430015
     80          1           0       -4.227739    5.277367    2.225530
 ---------------------------------------------------------------------

 SCF Done:  E(RB97D3) =  -2067.77230675     A.U. after   16 cycles

 Excitation energies and oscillator strengths:

 Excited State   1:      Singlet-A      2.1815 eV  568.33 nm  f=0.0247  <S**2>=0.000
     167 -> 170       -0.19178
     169 -> 170        0.66748
 This state for optimization and/or second-order correction.
 Total Energy, E(TD-HF/TD-KS) =  -2067.69213643
 Copying the excited state density for this state as the 1-particle RhoCI density.

 Excited State   2:      Singlet-A      2.4141 eV  513.58 nm  f=0.2168  <S**2>=0.000
     167 -> 170       -0.37704
     168 -> 170        0.55811
     168 -> 171        0.12478
     169 -> 170       -0.14277

 Excited State   3:      Singlet-A      2.5149 eV  493.00 nm  f=0.2161  <S**2>=0.000
     167 -> 170        0.53024
     168 -> 170        0.38910
     169 -> 171       -0.20767

 Excited State   4:      Singlet-A      2.7088 eV  457.72 nm  f=0.0995  <S**2>=0.000
     167 -> 171       -0.33950
     168 -> 171        0.58826
     169 -> 171        0.16598

 Excited State   5:      Singlet-A      2.7129 eV  457.02 nm  f=0.0269  <S**2>=0.000
     167 -> 170        0.17126
     168 -> 170        0.12444
     168 -> 171       -0.16252
     169 -> 171        0.64527

 Excited State   6:      Singlet-A      2.8415 eV  436.33 nm  f=0.2524  <S**2>=0.000
     167 -> 171        0.60343
     168 -> 171        0.31023
     169 -> 170        0.11541

 Excited State   7:      Singlet-A      3.3530 eV  369.77 nm  f=0.0141  <S**2>=0.000
     169 -> 172        0.63156
     169 -> 173       -0.27651

 Excited State   8:      Singlet-A      3.4462 eV  359.77 nm  f=0.0005  <S**2>=0.000
     166 -> 170       -0.10889
     167 -> 172        0.18627
     169 -> 173        0.29340
     169 -> 174        0.59564

 Excited State   9:      Singlet-A      3.4591 eV  358.43 nm  f=0.0063  <S**2>=0.000
     166 -> 170        0.31732
     168 -> 172        0.42193
     168 -> 173        0.13804
     168 -> 174       -0.12271
     169 -> 172       -0.13237
     169 -> 173       -0.27320
     169 -> 174        0.25218

 Excited State  10:      Singlet-A      3.4679 eV  357.52 nm  f=0.0028  <S**2>=0.000
     166 -> 170        0.55778
     168 -> 172       -0.38231
     168 -> 174        0.13050

 Excited State  11:      Singlet-A      3.4782 eV  356.46 nm  f=0.0153  <S**2>=0.000
     166 -> 170        0.24213
     167 -> 172        0.26180
     167 -> 173        0.16247
     168 -> 172        0.30982
     168 -> 174       -0.12819
     169 -> 172        0.16521
     169 -> 173        0.34862
     169 -> 174       -0.22736
     169 -> 175       -0.13036

 Excited State  12:      Singlet-A      3.5148 eV  352.75 nm  f=0.0023  <S**2>=0.000
     165 -> 170        0.58740
     167 -> 172       -0.14307
     168 -> 173       -0.22103
     169 -> 175       -0.25714

 Excited State  13:      Singlet-A      3.5199 eV  352.24 nm  f=0.0010  <S**2>=0.000
     168 -> 173        0.55436
     168 -> 174        0.18031
     169 -> 175       -0.35656

 Excited State  14:      Singlet-A      3.5214 eV  352.09 nm  f=0.0055  <S**2>=0.000
     165 -> 170        0.36657
     167 -> 172        0.22699
     167 -> 173        0.12429
     168 -> 173        0.26078
     168 -> 174        0.12119
     169 -> 175        0.43568

 Excited State  15:      Singlet-A      3.5593 eV  348.34 nm  f=0.0009  <S**2>=0.000
     167 -> 172        0.11068
     167 -> 173        0.12890
     169 -> 176        0.66000
     169 -> 177       -0.11003

 Excited State  16:      Singlet-A      3.5677 eV  347.52 nm  f=0.0013  <S**2>=0.000
     164 -> 170        0.68704

 Excited State  17:      Singlet-A      3.5833 eV  346.01 nm  f=0.0058  <S**2>=0.000
     167 -> 172        0.42589
     167 -> 173       -0.23762
     167 -> 174        0.38168
     169 -> 173       -0.19613
     169 -> 175       -0.17507

 Excited State  18:      Singlet-A      3.6184 eV  342.65 nm  f=0.0212  <S**2>=0.000
     162 -> 170       -0.37556
     163 -> 170        0.55002
     168 -> 175        0.16065

 Excited State  19:      Singlet-A      3.6252 eV  342.01 nm  f=0.0075  <S**2>=0.000
     162 -> 170        0.46022
     163 -> 170        0.41152
     168 -> 174       -0.23115
     168 -> 175       -0.15919

 Excited State  20:      Singlet-A      3.6432 eV  340.32 nm  f=0.0067  <S**2>=0.000
     162 -> 170        0.26965
     167 -> 173        0.11938
     168 -> 174        0.15225
     168 -> 175        0.38283
     168 -> 176        0.37639
     169 -> 177       -0.24000

 Excited State  21:      Singlet-A      3.6459 eV  340.07 nm  f=0.0137  <S**2>=0.000
     161 -> 170       -0.23530
     167 -> 173       -0.26013
     167 -> 175        0.15572
     167 -> 177        0.12750
     168 -> 174        0.15241
     168 -> 175        0.20538
     168 -> 176        0.15733
     169 -> 175        0.12958
     169 -> 176        0.12005
     169 -> 177        0.40529

 Excited State  22:      Singlet-A      3.6675 eV  338.06 nm  f=0.0017  <S**2>=0.000
     160 -> 170       -0.27070
     161 -> 170        0.55293
     167 -> 174        0.23324
     169 -> 177        0.14688

 Excited State  23:      Singlet-A      3.6791 eV  336.99 nm  f=0.0050  <S**2>=0.000
     159 -> 170        0.38249
     160 -> 170        0.34791
     167 -> 174        0.11419
     168 -> 174        0.26364
     168 -> 175       -0.26880
     168 -> 176        0.12601
     168 -> 177       -0.14129

 Excited State  24:      Singlet-A      3.6859 eV  336.38 nm  f=0.0143  <S**2>=0.000
     159 -> 170       -0.28464
     160 -> 170        0.45255
     161 -> 170        0.20517
     167 -> 177        0.11200
     168 -> 174       -0.14575
     168 -> 175        0.15046
     168 -> 176        0.15423
     169 -> 177        0.19092

 Excited State  25:      Singlet-A      3.6981 eV  335.26 nm  f=0.0392  <S**2>=0.000
     160 -> 170        0.23025
     167 -> 172       -0.15917
     167 -> 173       -0.22884
     167 -> 174        0.23430
     168 -> 177        0.43306
     169 -> 172        0.10528
     169 -> 173        0.17640
     169 -> 175        0.10221
     169 -> 177       -0.11997

 Excited State  26:      Singlet-A      3.7114 eV  334.06 nm  f=0.0166  <S**2>=0.000
     158 -> 170        0.10097
     159 -> 170        0.14561
     161 -> 170        0.11267
     167 -> 172        0.13089
     167 -> 173        0.10014
     167 -> 174       -0.18728
     167 -> 175        0.33547
     167 -> 176       -0.15597
     167 -> 177        0.11333
     168 -> 177        0.42202
     169 -> 173       -0.13266

 Excited State  27:      Singlet-A      3.7196 eV  333.33 nm  f=0.0298  <S**2>=0.000
     167 -> 173        0.18166
     167 -> 175       -0.35951
     167 -> 176        0.39379
     167 -> 177        0.13645
     168 -> 177        0.26416
     169 -> 177        0.24112

 Excited State  28:      Singlet-A      3.7379 eV  331.70 nm  f=0.0198  <S**2>=0.000
     158 -> 170        0.41310
     159 -> 170       -0.19370
     161 -> 170        0.10065
     167 -> 173       -0.20761
     167 -> 174       -0.24802
     167 -> 175       -0.26256
     168 -> 174        0.17677
     168 -> 175       -0.17414

 Excited State  29:      Singlet-A      3.8026 eV  326.05 nm  f=0.0070  <S**2>=0.000
     158 -> 170       -0.23624
     159 -> 170       -0.31381
     160 -> 170       -0.10152
     167 -> 175        0.12852
     168 -> 174        0.15362
     168 -> 175       -0.30378
     168 -> 176        0.33300
     168 -> 177        0.11576
     169 -> 178       -0.13571

 Excited State  30:      Singlet-A      3.8162 eV  324.89 nm  f=0.0148  <S**2>=0.000
     167 -> 175        0.16510
     167 -> 176        0.23895
     167 -> 177        0.38664
     169 -> 177       -0.17151
     169 -> 178        0.42066
     169 -> 179        0.12580

 Excited State  31:      Singlet-A      3.8437 eV  322.56 nm  f=0.0055  <S**2>=0.000
     158 -> 170       -0.26430
     159 -> 170        0.12092
     167 -> 174       -0.16189
     167 -> 175       -0.23154
     167 -> 176       -0.31515
     168 -> 176        0.13319
     169 -> 177        0.12565
     169 -> 178        0.35673

 Excited State  32:      Singlet-A      3.8569 eV  321.46 nm  f=0.0339  <S**2>=0.000
     158 -> 170       -0.22992
     163 -> 171       -0.12108
     167 -> 173       -0.10105
     167 -> 174       -0.13271
     167 -> 175       -0.13575
     167 -> 176       -0.13450
     167 -> 177        0.40269
     169 -> 177       -0.14307
     169 -> 178       -0.32288
     169 -> 179       -0.13926
     169 -> 180        0.11765

 Excited State  33:      Singlet-A      3.8714 eV  320.26 nm  f=0.0056  <S**2>=0.000
     158 -> 170        0.15659
     165 -> 171       -0.19351
     166 -> 171        0.59865
     168 -> 174       -0.10244
     169 -> 179        0.11417

 Excited State  34:      Singlet-A      3.8839 eV  319.22 nm  f=0.0595  <S**2>=0.000
     158 -> 170       -0.19829
     159 -> 170       -0.13838
     165 -> 171        0.36934
     166 -> 171        0.28760
     168 -> 172        0.12309
     168 -> 174        0.22413
     168 -> 176       -0.22590
     168 -> 178        0.13459
     169 -> 179        0.13559
     169 -> 181       -0.10713

 Excited State  35:      Singlet-A      3.8964 eV  318.20 nm  f=0.0889  <S**2>=0.000
     159 -> 170        0.12278
     164 -> 171        0.14938
     165 -> 171        0.20830
     167 -> 173       -0.10499
     167 -> 176        0.11675
     168 -> 174       -0.10158
     168 -> 176        0.13028
     169 -> 178       -0.16212
     169 -> 179        0.45724
     169 -> 181        0.24148

 Excited State  36:      Singlet-A      3.9165 eV  316.57 nm  f=0.0809  <S**2>=0.000
     159 -> 170        0.10762
     165 -> 171        0.35278
     167 -> 176        0.13333
     167 -> 177       -0.11783
     168 -> 174       -0.12588
     168 -> 176        0.11347
     168 -> 178       -0.24065
     169 -> 179       -0.27385
     169 -> 180        0.11909
     169 -> 181       -0.29450

 Excited State  37:      Singlet-A      3.9217 eV  316.15 nm  f=0.0467  <S**2>=0.000
     158 -> 170        0.19987
     161 -> 170       -0.12400
     161 -> 171        0.10455
     162 -> 171       -0.12231
     164 -> 171       -0.12877
     165 -> 171        0.34938
     167 -> 172       -0.12172
     167 -> 173        0.18178
     167 -> 174        0.17010
     167 -> 176       -0.22897
     167 -> 177        0.20785
     168 -> 178       -0.10855
     169 -> 180       -0.12795
     169 -> 181        0.14377

 Excited State  38:      Singlet-A      3.9564 eV  313.37 nm  f=0.0400  <S**2>=0.000
     163 -> 171        0.12543
     164 -> 171       -0.19940
     169 -> 180        0.60067
     169 -> 181        0.13824

 Excited State  39:      Singlet-A      3.9613 eV  312.99 nm  f=0.0046  <S**2>=0.000
     163 -> 171        0.10707
     164 -> 171        0.43237
     168 -> 178        0.39348
     168 -> 179       -0.14383
     169 -> 180        0.17154
     169 -> 181       -0.11201

 Excited State  40:      Singlet-A      3.9831 eV  311.28 nm  f=0.1261  <S**2>=0.000
     162 -> 171        0.11017
     164 -> 171        0.42363
     168 -> 174        0.12286
     168 -> 176       -0.14909
     168 -> 178       -0.36508
     168 -> 179        0.20037

 Excited State  41:      Singlet-A      3.9935 eV  310.46 nm  f=0.0057  <S**2>=0.000
     164 -> 171        0.14889
     166 -> 171        0.13247
     167 -> 178        0.29888
     167 -> 179       -0.14606
     167 -> 181        0.18660
     169 -> 178        0.10855
     169 -> 179       -0.28056
     169 -> 181        0.41087

 Excited State  42:      Singlet-A      4.0290 eV  307.73 nm  f=0.0028  <S**2>=0.000
     162 -> 171       -0.25902
     168 -> 178       -0.11166
     168 -> 179       -0.36191
     168 -> 180       -0.20328
     168 -> 181        0.47352

 Excited State  43:      Singlet-A      4.0386 eV  307.00 nm  f=0.0297  <S**2>=0.000
     162 -> 171        0.56426
     163 -> 171       -0.23729
     167 -> 179       -0.10371
     168 -> 179       -0.18726
     168 -> 181        0.19029

 Excited State  44:      Singlet-A      4.0516 eV  306.01 nm  f=0.0526  <S**2>=0.000
     160 -> 171        0.13004
     161 -> 171       -0.20181
     162 -> 171        0.11108
     163 -> 171        0.49307
     167 -> 178       -0.21439
     167 -> 179       -0.25142
     169 -> 181        0.10305

 Excited State  45:      Singlet-A      4.0562 eV  305.67 nm  f=0.0056  <S**2>=0.000
     160 -> 171        0.19883
     162 -> 171        0.18628
     163 -> 171        0.28839
     167 -> 178        0.38598
     167 -> 179        0.32861
     167 -> 181        0.12150
     168 -> 181        0.10202
     169 -> 181       -0.11104

 Excited State  46:      Singlet-A      4.0913 eV  303.04 nm  f=0.0479  <S**2>=0.000
     160 -> 171        0.25261
     161 -> 171        0.27254
     168 -> 180        0.51203
     168 -> 181        0.13356

 Excited State  47:      Singlet-A      4.0917 eV  303.01 nm  f=0.0296  <S**2>=0.000
     157 -> 170        0.12629
     160 -> 171        0.15965
     161 -> 171        0.51013
     167 -> 180       -0.10663
     167 -> 181       -0.10083
     168 -> 178        0.10650
     168 -> 180       -0.32106

 Excited State  48:      Singlet-A      4.1201 eV  300.92 nm  f=0.0601  <S**2>=0.000
     159 -> 171        0.45401
     160 -> 171        0.37517
     161 -> 171       -0.11535
     168 -> 179       -0.12885
     168 -> 180       -0.13049
     168 -> 181       -0.22695

 Excited State  49:      Singlet-A      4.1263 eV  300.47 nm  f=0.0610  <S**2>=0.000
     159 -> 171       -0.35729
     160 -> 171        0.40936
     161 -> 171       -0.18471
     163 -> 171       -0.14940
     168 -> 179        0.19696
     168 -> 181        0.11886
     169 -> 182       -0.14165

 Excited State  50:      Singlet-A      4.1370 eV  299.69 nm  f=0.0224  <S**2>=0.000
     167 -> 178       -0.31391
     167 -> 179        0.44946
     167 -> 180        0.14710
     168 -> 179        0.10370
     168 -> 180       -0.10254
     168 -> 181        0.11761
     169 -> 179       -0.12701
     169 -> 181        0.22801

 The electronic state is 1-A.
 Alpha  occ. eigenvalues --  -24.28152 -14.05070 -14.04807 -14.04345 -13.99890
 Alpha  occ. eigenvalues --  -13.99875 -10.00577  -9.98410  -9.98268  -9.98266
 Alpha  occ. eigenvalues --   -9.95502  -9.95489  -9.95128  -9.95108  -9.95101
 Alpha  occ. eigenvalues --   -9.95038  -9.95027  -9.94997  -9.94952  -9.94932
 Alpha  occ. eigenvalues --   -9.90628  -9.90621  -9.90607  -9.90587  -9.90582
 Alpha  occ. eigenvalues --   -9.90578  -9.90577  -9.90568  -9.90559  -9.90558
 Alpha  occ. eigenvalues --   -9.90548  -9.90542  -9.90528  -9.90523  -9.90479
 Alpha  occ. eigenvalues --   -9.90461  -9.90444  -9.90438  -9.90415  -9.90409
 Alpha  occ. eigenvalues --   -9.90383  -9.90379  -9.90290  -9.90287  -9.90211
 Alpha  occ. eigenvalues --   -9.90198  -9.90167  -9.90135  -9.89977  -9.89966
 Alpha  occ. eigenvalues --   -1.15100  -0.91660  -0.91052  -0.90671  -0.83900
 Alpha  occ. eigenvalues --   -0.83881  -0.81003  -0.78747  -0.78684  -0.78534
 Alpha  occ. eigenvalues --   -0.77807  -0.77590  -0.76569  -0.73420  -0.71993
 Alpha  occ. eigenvalues --   -0.69504  -0.69435  -0.69308  -0.68428  -0.68372
 Alpha  occ. eigenvalues --   -0.68122  -0.68014  -0.67960  -0.67797  -0.66821
 Alpha  occ. eigenvalues --   -0.65926  -0.65772  -0.61743  -0.60817  -0.57429
 Alpha  occ. eigenvalues --   -0.57243  -0.56978  -0.56811  -0.55912  -0.55327
 Alpha  occ. eigenvalues --   -0.54896  -0.54823  -0.54702  -0.54539  -0.53768
 Alpha  occ. eigenvalues --   -0.52362  -0.51988  -0.50665  -0.49733  -0.49091
 Alpha  occ. eigenvalues --   -0.48771  -0.48182  -0.48069  -0.47738  -0.45230
 Alpha  occ. eigenvalues --   -0.45122  -0.44637  -0.43710  -0.43593  -0.43498
 Alpha  occ. eigenvalues --   -0.43120  -0.42935  -0.42769  -0.41183  -0.40978
 Alpha  occ. eigenvalues --   -0.40812  -0.40321  -0.40123  -0.39888  -0.39169
 Alpha  occ. eigenvalues --   -0.39072  -0.38911  -0.38845  -0.38733  -0.38472
 Alpha  occ. eigenvalues --   -0.37927  -0.37690  -0.37663  -0.37547  -0.37529
 Alpha  occ. eigenvalues --   -0.37417  -0.36604  -0.36224  -0.35122  -0.34724
 Alpha  occ. eigenvalues --   -0.34359  -0.34128  -0.33797  -0.33534  -0.33236
 Alpha  occ. eigenvalues --   -0.33046  -0.32960  -0.32342  -0.32245  -0.32157
 Alpha  occ. eigenvalues --   -0.31591  -0.31523  -0.31404  -0.31160  -0.30844
 Alpha  occ. eigenvalues --   -0.30769  -0.30670  -0.30580  -0.30452  -0.30355
 Alpha  occ. eigenvalues --   -0.30217  -0.30114  -0.28675  -0.28415  -0.27425
 Alpha  occ. eigenvalues --   -0.25020  -0.24748  -0.23864  -0.23611  -0.23467
 Alpha  occ. eigenvalues --   -0.23395  -0.23240  -0.23209  -0.23007  -0.22778
 Alpha  occ. eigenvalues --   -0.22652  -0.18411  -0.18143  -0.17702
 Alpha virt. eigenvalues --   -0.09968  -0.08485  -0.05496  -0.05251  -0.05057
 Alpha virt. eigenvalues --   -0.04828  -0.04655  -0.04541  -0.03695  -0.03454
 Alpha virt. eigenvalues --   -0.03313  -0.03290  -0.02196  -0.01808  -0.01626

 Mulliken charges:
               1
     1  C   -0.224526
     2  C    0.473716
     3  C   -0.277256
     4  C    0.327553
     5  C   -0.307687
     6  C    0.274717
     7  C   -0.201253
     8  C   -0.163925
     9  F   -0.192394
    10  N   -0.087880
    11  N   -0.092923
    12  N    0.177689
    13  C    0.146302
    14  C    0.131426
    15  C   -0.217729
    16  C   -0.244698
    17  C   -0.205877
    18  C   -0.243057
    19  C   -0.135286
    20  H    0.142599
    21  C   -0.097196
    22  H    0.132193
    23  C   -0.139769
    24  H    0.143970
    25  C   -0.107248
    26  H    0.132915
    27  C   -0.151061
    28  H    0.130957
    29  H    0.133676
    30  C   -0.145677
    31  H    0.132099
    32  H    0.133869
    33  H    0.132575
    34  H    0.133320
    35  N    0.193744
    36  C    0.097519
    37  C    0.153370
    38  C   -0.194320
    39  C   -0.216408
    40  C   -0.207389
    41  C   -0.242401
    42  C   -0.139694
    43  H    0.143904
    44  C   -0.115445
    45  H    0.135003
    46  C   -0.136632
    47  H    0.142940
    48  C   -0.110828
    49  H    0.137223
    50  C   -0.134827
    51  H    0.132953
    52  H    0.134852
    53  C   -0.142547
    54  H    0.132200
    55  H    0.134561
    56  H    0.134690
    57  H    0.133925
    58  N    0.200296
    59  C    0.103048
    60  C    0.142477
    61  C   -0.188297
    62  C   -0.217769
    63  C   -0.195982
    64  C   -0.242897
    65  C   -0.134825
    66  H    0.139163
    67  C   -0.110285
    68  H    0.135226
    69  C   -0.135194
    70  H    0.142671
    71  C   -0.108974
    72  H    0.136951
    73  C   -0.137581
    74  H    0.131437
    75  H    0.135071
    76  C   -0.141025
    77  H    0.132012
    78  H    0.134960
    79  H    0.134521
    80  H    0.134467
 Sum of Mulliken charges =  -0.00000

 Dipole moment (field-independent basis, Debye):
    X=             -4.4200    Y=              3.1610    Z=             -1.9712  Tot=              5.7805
 Quadrupole moment (field-independent basis, Debye-Ang):
   XX=           -270.5981   YY=           -291.8640   ZZ=           -261.0313
   XY=             -7.6117   XZ=            -18.0360   YZ=             -3.5754

 Normal termination of Gaussian 09 at Fri Jul  1 05:59:45 2022.
