 Gaussian 09, Revision E.01,
 Gaussian 09:  ES64L-G09RevE.01 30-Nov-2015

 ----------------------------------------------------------------------
 #p PBEPBE/def2TZVP td=(NStates=50) int=ultrafine scrf=(SMD,solvent=Ace
 tonitrile) EmpiricalDispersion=GD3BJ
 ----------------------------------------------------------------------

 -----
 Title
 -----
 Symbolic Z-matrix:
 Charge =  0 Multiplicity = 1

                         Standard orientation:
 ---------------------------------------------------------------------
 Center     Atomic      Atomic             Coordinates (Angstroms)
 Number     Number       Type             X           Y           Z
 ---------------------------------------------------------------------
      1          6           0       -0.125371    1.396397    0.018102
      2          6           0       -1.225054    0.585519   -0.292793
      3          6           0       -1.185189   -0.814275   -0.267137
      4          6           0        0.064575   -1.442897    0.009987
      5          6           0        1.206762   -0.664167    0.304903
      6          6           0        1.093200    0.742748    0.359172
      7          6           0        0.168148   -2.855499   -0.006699
      8          6           0        2.175140    1.496975    0.877521
      9          9           0       -2.361594    1.180410   -0.710012
     10          7           0        0.261853   -4.019438   -0.013324
     11          7           0        3.055817    2.103247    1.346871
     12          7           0        2.443118   -1.272870    0.589822
     13          6           0        3.579933   -0.877802   -0.165820
     14          6           0        2.535641   -2.218467    1.645319
     15          6           0        3.429804   -0.560303   -1.525240
     16          6           0        4.844835   -0.772671    0.433168
     17          6           0        1.744822   -2.058299    2.793568
     18          6           0        3.397291   -3.321973    1.546311
     19          6           0        4.528851   -0.128480   -2.267969
     20          1           0        2.450713   -0.653226   -1.997967
     21          6           0        5.940136   -0.360769   -0.324010
     22          1           0        4.964206   -0.999655    1.492839
     23          6           0        1.809317   -2.998064    3.822636
     24          1           0        1.079825   -1.197057    2.876961
     25          6           0        3.467183   -4.244451    2.588455
     26          1           0        4.000539   -3.460465    0.648633
     27          6           0        5.790572   -0.030274   -1.675288
     28          1           0        4.396247    0.119452   -3.322855
     29          1           0        6.917754   -0.278190    0.154859
     30          6           0        2.672940   -4.092750    3.730392
     31          1           0        1.187255   -2.862511    4.709429
     32          1           0        4.138297   -5.100759    2.498233
     33          1           0        6.650354    0.301042   -2.259692
     34          1           0        2.727027   -4.822442    4.539762
     35          7           0       -2.334131   -1.546306   -0.575597
     36          6           0       -2.288482   -2.558492   -1.575259
     37          6           0       -3.554765   -1.207097    0.070051
     38          6           0       -1.513278   -2.363880   -2.727175
     39          6           0       -3.006975   -3.751300   -1.410081
     40          6           0       -3.537638   -0.806373    1.414894
     41          6           0       -4.771614   -1.250468   -0.627156
     42          6           0       -1.444268   -3.365515   -3.695995
     43          1           0       -0.966973   -1.428337   -2.860250
     44          6           0       -2.945250   -4.737754   -2.392320
     45          1           0       -3.599358   -3.906000   -0.507629
     46          6           0       -4.724373   -0.434452    2.046542
     47          1           0       -2.594533   -0.790689    1.963774
     48          6           0       -5.954018   -0.896428    0.020533
     49          1           0       -4.786498   -1.550388   -1.675381
     50          6           0       -2.160712   -4.554529   -3.536528
     51          1           0       -0.835525   -3.206549   -4.587978
     52          1           0       -3.502500   -5.666107   -2.253600
     53          6           0       -5.938702   -0.480952    1.356503
     54          1           0       -4.697909   -0.119790    3.091497
     55          1           0       -6.895224   -0.929787   -0.531507
     56          1           0       -2.109366   -5.334021   -4.298305
     57          1           0       -6.866764   -0.196902    1.855037
     58          7           0       -0.225593    2.784613   -0.021607
     59          6           0        0.793038    3.546315   -0.664074
     60          6           0       -1.350978    3.423370    0.570553
     61          6           0        1.379100    3.065634   -1.843916
     62          6           0        1.223127    4.762637   -0.115703
     63          6           0       -1.886990    2.915866    1.763085
     64          6           0       -1.936144    4.544590   -0.035848
     65          6           0        2.403139    3.788534   -2.455837
     66          1           0        1.032707    2.126359   -2.277824
     67          6           0        2.233178    5.486872   -0.746613
     68          1           0        0.776251    5.128674    0.809209
     69          6           0       -3.011236    3.514722    2.331418
     70          1           0       -1.419743    2.054296    2.243016
     71          6           0       -3.047317    5.147212    0.551666
     72          1           0       -1.526139    4.934056   -0.968285
     73          6           0        2.833214    5.002757   -1.914074
     74          1           0        2.857200    3.402897   -3.370496
     75          1           0        2.566544    6.430219   -0.310192
     76          6           0       -3.594835    4.634511    1.732833
     77          1           0       -3.423722    3.107857    3.256572
     78          1           0       -3.499044    6.017164    0.071392
     79          1           0        3.630758    5.568989   -2.397583
     80          1           0       -4.470002    5.105795    2.182829
 ---------------------------------------------------------------------

 SCF Done:  E(RPBE-PBE) =  -2066.66442813     A.U. after   16 cycles

 Excitation energies and oscillator strengths:

 Excited State   1:      Singlet-A      2.1446 eV  578.12 nm  f=0.0235  <S**2>=0.000
     167 -> 170       -0.18580
     169 -> 170        0.66734
 This state for optimization and/or second-order correction.
 Total Energy, E(TD-HF/TD-KS) =  -2066.58561461
 Copying the excited state density for this state as the 1-particle RhoCI density.

 Excited State   2:      Singlet-A      2.3910 eV  518.54 nm  f=0.2167  <S**2>=0.000
     167 -> 170       -0.37507
     168 -> 170        0.55511
     168 -> 171        0.13319
     169 -> 170       -0.14622

 Excited State   3:      Singlet-A      2.4926 eV  497.40 nm  f=0.2243  <S**2>=0.000
     167 -> 170        0.51963
     168 -> 170        0.37918
     169 -> 171       -0.24525

 Excited State   4:      Singlet-A      2.6643 eV  465.36 nm  f=0.1046  <S**2>=0.000
     167 -> 171       -0.34149
     168 -> 171        0.59087
     169 -> 171        0.14428

 Excited State   5:      Singlet-A      2.6711 eV  464.17 nm  f=0.0205  <S**2>=0.000
     167 -> 170        0.20307
     168 -> 170        0.14691
     168 -> 171       -0.13845
     169 -> 171        0.63651

 Excited State   6:      Singlet-A      2.8066 eV  441.76 nm  f=0.2718  <S**2>=0.000
     167 -> 171        0.59884
     168 -> 171        0.30851
     169 -> 170        0.12444

 Excited State   7:      Singlet-A      3.2818 eV  377.79 nm  f=0.0138  <S**2>=0.000
     169 -> 172        0.63490
     169 -> 173       -0.27246

 Excited State   8:      Singlet-A      3.3800 eV  366.82 nm  f=0.0003  <S**2>=0.000
     167 -> 172        0.17137
     169 -> 173        0.23557
     169 -> 174        0.63719

 Excited State   9:      Singlet-A      3.3942 eV  365.28 nm  f=0.0092  <S**2>=0.000
     167 -> 172       -0.12797
     168 -> 172        0.52019
     168 -> 173        0.16271
     168 -> 174       -0.15275
     169 -> 172       -0.13225
     169 -> 173       -0.30964
     169 -> 174        0.16141

 Excited State  10:      Singlet-A      3.4148 eV  363.08 nm  f=0.0125  <S**2>=0.000
     167 -> 172        0.25492
     167 -> 173        0.16036
     168 -> 172        0.39056
     168 -> 174       -0.16584
     169 -> 172        0.16262
     169 -> 173        0.35498
     169 -> 174       -0.21381
     169 -> 175        0.11978

 Excited State  11:      Singlet-A      3.4571 eV  358.64 nm  f=0.0022  <S**2>=0.000
     166 -> 170       -0.19999
     167 -> 172       -0.30438
     167 -> 173       -0.13036
     168 -> 173       -0.13545
     169 -> 175        0.55671

 Excited State  12:      Singlet-A      3.4600 eV  358.34 nm  f=0.0019  <S**2>=0.000
     166 -> 170        0.19398
     168 -> 173        0.58464
     168 -> 174        0.19468
     169 -> 175        0.24990

 Excited State  13:      Singlet-A      3.4622 eV  358.10 nm  f=0.0011  <S**2>=0.000
     166 -> 170        0.62171
     168 -> 173       -0.24667
     169 -> 175        0.14361

 Excited State  14:      Singlet-A      3.5028 eV  353.96 nm  f=0.0009  <S**2>=0.000
     167 -> 173        0.14096
     169 -> 176        0.66645
     169 -> 177       -0.10127

 Excited State  15:      Singlet-A      3.5092 eV  353.31 nm  f=0.0044  <S**2>=0.000
     165 -> 170        0.68709

 Excited State  16:      Singlet-A      3.5221 eV  352.02 nm  f=0.0089  <S**2>=0.000
     167 -> 172        0.41784
     167 -> 173       -0.23346
     167 -> 174        0.39080
     169 -> 173       -0.21111
     169 -> 175        0.17147

 Excited State  17:      Singlet-A      3.5664 eV  347.64 nm  f=0.0021  <S**2>=0.000
     164 -> 170        0.68439

 Excited State  18:      Singlet-A      3.5832 eV  346.01 nm  f=0.0106  <S**2>=0.000
     162 -> 170       -0.16022
     167 -> 173       -0.15962
     168 -> 174       -0.24550
     168 -> 175        0.44426
     168 -> 176       -0.28939
     169 -> 177        0.22738

 Excited State  19:      Singlet-A      3.5949 eV  344.89 nm  f=0.0112  <S**2>=0.000
     167 -> 173       -0.27915
     167 -> 175       -0.12871
     167 -> 177        0.13926
     168 -> 174        0.16764
     168 -> 175       -0.20419
     168 -> 176        0.16061
     169 -> 175       -0.13420
     169 -> 176        0.13765
     169 -> 177        0.42793

 Excited State  20:      Singlet-A      3.6151 eV  342.96 nm  f=0.0223  <S**2>=0.000
     163 -> 170        0.63288
     168 -> 174       -0.17660
     168 -> 175       -0.13294

 Excited State  21:      Singlet-A      3.6190 eV  342.59 nm  f=0.0051  <S**2>=0.000
     162 -> 170        0.63027
     168 -> 176       -0.24421

 Excited State  22:      Singlet-A      3.6381 eV  340.79 nm  f=0.0335  <S**2>=0.000
     161 -> 170        0.19655
     167 -> 172       -0.21510
     167 -> 173       -0.17129
     167 -> 174        0.36812
     167 -> 175        0.20817
     167 -> 177       -0.11104
     168 -> 177        0.21317
     169 -> 172        0.10164
     169 -> 173        0.21409
     169 -> 175       -0.11589
     169 -> 177       -0.17135

 Excited State  23:      Singlet-A      3.6427 eV  340.36 nm  f=0.0171  <S**2>=0.000
     159 -> 170       -0.24187
     161 -> 170       -0.17203
     163 -> 170       -0.18842
     167 -> 173       -0.17020
     167 -> 174       -0.12049
     167 -> 175       -0.14313
     167 -> 176       -0.11117
     168 -> 174       -0.23385
     168 -> 175       -0.26726
     168 -> 176       -0.17399
     168 -> 177        0.32804

 Excited State  24:      Singlet-A      3.6555 eV  339.18 nm  f=0.0218  <S**2>=0.000
     159 -> 170       -0.21119
     161 -> 170        0.36932
     163 -> 170       -0.16947
     167 -> 173        0.10717
     167 -> 175        0.17029
     168 -> 174       -0.24485
     168 -> 175       -0.21484
     168 -> 177       -0.23989
     169 -> 177        0.16538

 Excited State  25:      Singlet-A      3.6656 eV  338.24 nm  f=0.0071  <S**2>=0.000
     159 -> 170       -0.14571
     160 -> 170        0.18214
     161 -> 170       -0.39929
     167 -> 175        0.40705
     167 -> 176        0.26412
     168 -> 177       -0.12760

 Excited State  26:      Singlet-A      3.6711 eV  337.73 nm  f=0.0349  <S**2>=0.000
     167 -> 173        0.15516
     167 -> 175        0.17079
     167 -> 176        0.21409
     167 -> 177        0.18816
     168 -> 177        0.47990
     169 -> 177        0.25471

 Excited State  27:      Singlet-A      3.6822 eV  336.71 nm  f=0.0058  <S**2>=0.000
     160 -> 170        0.59823
     161 -> 170        0.11982
     167 -> 176       -0.26540
     168 -> 176        0.15844

 Excited State  28:      Singlet-A      3.7037 eV  334.76 nm  f=0.0226  <S**2>=0.000
     158 -> 170        0.30348
     159 -> 170       -0.20768
     160 -> 170       -0.12849
     161 -> 170        0.22298
     167 -> 172        0.10440
     167 -> 173       -0.21577
     167 -> 174       -0.30192
     167 -> 175        0.25940
     168 -> 174        0.13860
     168 -> 175        0.13268

 Excited State  29:      Singlet-A      3.7598 eV  329.76 nm  f=0.0038  <S**2>=0.000
     159 -> 170        0.11289
     167 -> 176        0.13632
     167 -> 177        0.33346
     169 -> 177       -0.10902
     169 -> 178        0.52880
     169 -> 179        0.15941

 Excited State  30:      Singlet-A      3.7731 eV  328.60 nm  f=0.0090  <S**2>=0.000
     158 -> 170        0.16188
     159 -> 170        0.38700
     160 -> 170        0.10840
     162 -> 170       -0.12536
     167 -> 174       -0.11561
     167 -> 175        0.18501
     167 -> 176       -0.16334
     168 -> 175       -0.24360
     168 -> 176       -0.31878

 Excited State  31:      Singlet-A      3.7988 eV  326.38 nm  f=0.0179  <S**2>=0.000
     158 -> 170       -0.12670
     163 -> 171        0.11686
     167 -> 175        0.11459
     167 -> 176       -0.19848
     167 -> 177       -0.36004
     168 -> 176        0.12202
     169 -> 177        0.22347
     169 -> 178        0.38341

 Excited State  32:      Singlet-A      3.8194 eV  324.61 nm  f=0.0186  <S**2>=0.000
     158 -> 170        0.32433
     159 -> 170       -0.17076
     160 -> 170        0.14597
     167 -> 175       -0.18509
     167 -> 176        0.28316
     167 -> 177       -0.30302
     168 -> 176       -0.13536
     169 -> 179        0.11560
     169 -> 180       -0.11799

 Excited State  33:      Singlet-A      3.8456 eV  322.41 nm  f=0.0238  <S**2>=0.000
     158 -> 170        0.10640
     166 -> 171        0.45354
     168 -> 176        0.10178
     169 -> 178       -0.11759
     169 -> 179        0.41893
     169 -> 181        0.14687

 Excited State  34:      Singlet-A      3.8537 eV  321.73 nm  f=0.0209  <S**2>=0.000
     158 -> 170        0.16939
     165 -> 171       -0.17074
     166 -> 171        0.42736
     169 -> 179       -0.29689
     169 -> 181       -0.33458

 Excited State  35:      Singlet-A      3.8564 eV  321.50 nm  f=0.0681  <S**2>=0.000
     158 -> 170        0.30540
     159 -> 170        0.17783
     165 -> 171       -0.30114
     166 -> 171       -0.18583
     168 -> 172       -0.11310
     168 -> 174       -0.20551
     168 -> 176        0.18582
     168 -> 178       -0.22081
     169 -> 179       -0.16634
     169 -> 180        0.10526

 Excited State  36:      Singlet-A      3.8775 eV  319.76 nm  f=0.0848  <S**2>=0.000
     158 -> 170       -0.10639
     159 -> 170        0.13460
     165 -> 171        0.33817
     167 -> 173       -0.13519
     167 -> 174       -0.10351
     167 -> 176        0.20452
     167 -> 177       -0.16097
     168 -> 178       -0.22212
     169 -> 180        0.18324
     169 -> 181       -0.28326

 Excited State  37:      Singlet-A      3.8901 eV  318.72 nm  f=0.0187  <S**2>=0.000
     158 -> 170        0.22575
     165 -> 171        0.43016
     167 -> 173        0.10868
     167 -> 174        0.12012
     167 -> 176       -0.13276
     167 -> 177        0.13196
     168 -> 178       -0.24786
     169 -> 180       -0.22003

 Excited State  38:      Singlet-A      3.9105 eV  317.06 nm  f=0.0889  <S**2>=0.000
     161 -> 171        0.10074
     163 -> 171        0.12622
     164 -> 171       -0.11545
     165 -> 171        0.11040
     167 -> 173        0.12794
     169 -> 180        0.56934
     169 -> 181        0.16597

 Excited State  39:      Singlet-A      3.9245 eV  315.92 nm  f=0.0335  <S**2>=0.000
     158 -> 170        0.15622
     162 -> 171        0.14325
     164 -> 171        0.27112
     165 -> 171        0.16194
     168 -> 174       -0.13632
     168 -> 176        0.17199
     168 -> 178        0.41514
     168 -> 179       -0.16444
     169 -> 181       -0.16147

 Excited State  40:      Singlet-A      3.9440 eV  314.36 nm  f=0.0473  <S**2>=0.000
     165 -> 171        0.12941
     166 -> 171        0.16088
     167 -> 178        0.34357
     167 -> 181        0.16813
     168 -> 178        0.20735
     168 -> 181       -0.12963
     169 -> 179       -0.27653
     169 -> 181        0.30718

 Excited State  41:      Singlet-A      3.9567 eV  313.36 nm  f=0.0606  <S**2>=0.000
     163 -> 171        0.10271
     164 -> 171        0.58594
     167 -> 179       -0.13833
     168 -> 178       -0.11275
     168 -> 179        0.18532
     169 -> 181        0.11676

 Excited State  42:      Singlet-A      3.9802 eV  311.50 nm  f=0.0002  <S**2>=0.000
     164 -> 171        0.12561
     167 -> 178        0.10745
     168 -> 179       -0.42266
     168 -> 180       -0.21473
     168 -> 181        0.45865

 Excited State  43:      Singlet-A      4.0040 eV  309.65 nm  f=0.0287  <S**2>=0.000
     161 -> 171        0.12211
     162 -> 171        0.14729
     167 -> 178        0.43475
     167 -> 179        0.39050
     167 -> 180       -0.10257
     167 -> 181        0.13917
     168 -> 179        0.10547
     169 -> 181       -0.15602

 Excited State  44:      Singlet-A      4.0197 eV  308.44 nm  f=0.0285  <S**2>=0.000
     162 -> 171        0.64816
     167 -> 178       -0.10564

 Excited State  45:      Singlet-A      4.0323 eV  307.47 nm  f=0.0382  <S**2>=0.000
     160 -> 171        0.18706
     161 -> 171       -0.13452
     163 -> 171        0.61621

 Excited State  46:      Singlet-A      4.0471 eV  306.35 nm  f=0.0327  <S**2>=0.000
     157 -> 170       -0.12090
     167 -> 180        0.10729
     168 -> 178       -0.11979
     168 -> 180        0.60809
     168 -> 181        0.13960

 Excited State  47:      Singlet-A      4.0715 eV  304.52 nm  f=0.0540  <S**2>=0.000
     160 -> 171        0.26769
     161 -> 171        0.56366
     167 -> 178       -0.12231
     168 -> 181        0.11526

 Excited State  48:      Singlet-A      4.0897 eV  303.16 nm  f=0.0329  <S**2>=0.000
     160 -> 171       -0.10413
     161 -> 171       -0.11485
     167 -> 178       -0.26203
     167 -> 179        0.47720
     167 -> 180        0.14615
     168 -> 181        0.11673
     169 -> 179       -0.13344
     169 -> 181        0.20372

 Excited State  49:      Singlet-A      4.0932 eV  302.90 nm  f=0.0130  <S**2>=0.000
     159 -> 171        0.40304
     167 -> 179        0.13843
     168 -> 178       -0.14697
     168 -> 179       -0.33144
     168 -> 181       -0.35437

 Excited State  50:      Singlet-A      4.1006 eV  302.36 nm  f=0.0621  <S**2>=0.000
     160 -> 171        0.55643
     161 -> 171       -0.20965
     163 -> 171       -0.16303
     169 -> 182       -0.19706

 The electronic state is 1-A.
 Alpha  occ. eigenvalues --  -24.29098 -14.04675 -14.04414 -14.03915 -13.98995
 Alpha  occ. eigenvalues --  -13.98980  -9.98930  -9.96879  -9.96738  -9.96727
 Alpha  occ. eigenvalues --   -9.94075  -9.94044  -9.93627  -9.93612  -9.93595
 Alpha  occ. eigenvalues --   -9.93542  -9.93513  -9.93485  -9.93443  -9.93434
 Alpha  occ. eigenvalues --   -9.89151  -9.89113  -9.89093  -9.89066  -9.89059
 Alpha  occ. eigenvalues --   -9.89049  -9.89033  -9.89025  -9.89012  -9.89007
 Alpha  occ. eigenvalues --   -9.88998  -9.88997  -9.88996  -9.88983  -9.88960
 Alpha  occ. eigenvalues --   -9.88959  -9.88907  -9.88892  -9.88858  -9.88850
 Alpha  occ. eigenvalues --   -9.88843  -9.88843  -9.88789  -9.88777  -9.88648
 Alpha  occ. eigenvalues --   -9.88631  -9.88609  -9.88558  -9.88397  -9.88393
 Alpha  occ. eigenvalues --   -1.14802  -0.91637  -0.91066  -0.90658  -0.83503
 Alpha  occ. eigenvalues --   -0.83451  -0.80865  -0.78647  -0.78583  -0.78421
 Alpha  occ. eigenvalues --   -0.77710  -0.77489  -0.76476  -0.73306  -0.71887
 Alpha  occ. eigenvalues --   -0.69408  -0.69328  -0.69191  -0.68260  -0.68204
 Alpha  occ. eigenvalues --   -0.67927  -0.67810  -0.67750  -0.67577  -0.66681
 Alpha  occ. eigenvalues --   -0.65785  -0.65612  -0.61704  -0.60809  -0.57525
 Alpha  occ. eigenvalues --   -0.57271  -0.56961  -0.56789  -0.55906  -0.55221
 Alpha  occ. eigenvalues --   -0.54797  -0.54691  -0.54586  -0.54386  -0.53672
 Alpha  occ. eigenvalues --   -0.52286  -0.51908  -0.50783  -0.49792  -0.49188
 Alpha  occ. eigenvalues --   -0.48859  -0.48279  -0.48132  -0.47813  -0.45240
 Alpha  occ. eigenvalues --   -0.45126  -0.44601  -0.43709  -0.43667  -0.43498
 Alpha  occ. eigenvalues --   -0.43040  -0.42862  -0.42768  -0.41235  -0.41006
 Alpha  occ. eigenvalues --   -0.40830  -0.40367  -0.40129  -0.39852  -0.39177
 Alpha  occ. eigenvalues --   -0.38967  -0.38828  -0.38757  -0.38677  -0.38437
 Alpha  occ. eigenvalues --   -0.37914  -0.37625  -0.37591  -0.37468  -0.37424
 Alpha  occ. eigenvalues --   -0.37315  -0.36729  -0.36252  -0.35471  -0.35068
 Alpha  occ. eigenvalues --   -0.34691  -0.34497  -0.34208  -0.33821  -0.33393
 Alpha  occ. eigenvalues --   -0.33197  -0.32941  -0.32225  -0.32125  -0.32042
 Alpha  occ. eigenvalues --   -0.31491  -0.31416  -0.31360  -0.31281  -0.30928
 Alpha  occ. eigenvalues --   -0.30856  -0.30676  -0.30629  -0.30416  -0.30317
 Alpha  occ. eigenvalues --   -0.30098  -0.29974  -0.28964  -0.28728  -0.27750
 Alpha  occ. eigenvalues --   -0.25389  -0.25107  -0.24339  -0.24062  -0.23930
 Alpha  occ. eigenvalues --   -0.23844  -0.23686  -0.23659  -0.23460  -0.23211
 Alpha  occ. eigenvalues --   -0.23095  -0.18753  -0.18487  -0.18024
 Alpha virt. eigenvalues --   -0.10430  -0.09007  -0.06085  -0.05817  -0.05626
 Alpha virt. eigenvalues --   -0.05382  -0.05186  -0.05067  -0.04251  -0.03978
 Alpha virt. eigenvalues --   -0.03832  -0.03810  -0.02737  -0.02306  -0.02080

 Mulliken charges:
               1
     1  C   -0.173802
     2  C    0.405398
     3  C   -0.255634
     4  C    0.237152
     5  C   -0.300885
     6  C    0.178404
     7  C   -0.244565
     8  C   -0.206469
     9  F   -0.163612
    10  N   -0.002931
    11  N   -0.011221
    12  N    0.221264
    13  C    0.097340
    14  C    0.084063
    15  C   -0.204037
    16  C   -0.243048
    17  C   -0.192765
    18  C   -0.241549
    19  C   -0.156135
    20  H    0.154416
    21  C   -0.116420
    22  H    0.148499
    23  C   -0.158748
    24  H    0.155968
    25  C   -0.126910
    26  H    0.149583
    27  C   -0.151907
    28  H    0.142815
    29  H    0.144513
    30  C   -0.147526
    31  H    0.142915
    32  H    0.144771
    33  H    0.143402
    34  H    0.144050
    35  N    0.243054
    36  C    0.042926
    37  C    0.103355
    38  C   -0.178014
    39  C   -0.213856
    40  C   -0.195275
    41  C   -0.236455
    42  C   -0.158004
    43  H    0.156788
    44  C   -0.133222
    45  H    0.150880
    46  C   -0.155122
    47  H    0.155630
    48  C   -0.129830
    49  H    0.151880
    50  C   -0.136749
    51  H    0.143948
    52  H    0.145911
    53  C   -0.145411
    54  H    0.144096
    55  H    0.145377
    56  H    0.145494
    57  H    0.144589
    58  N    0.247770
    59  C    0.043249
    60  C    0.093521
    61  C   -0.170439
    62  C   -0.213705
    63  C   -0.187311
    64  C   -0.235667
    65  C   -0.153831
    66  H    0.150853
    67  C   -0.128081
    68  H    0.150690
    69  C   -0.151348
    70  H    0.156093
    71  C   -0.127715
    72  H    0.151937
    73  C   -0.138554
    74  H    0.143190
    75  H    0.146082
    76  C   -0.144907
    77  H    0.143469
    78  H    0.145792
    79  H    0.145426
    80  H    0.145110
 Sum of Mulliken charges =  -0.00000

 Dipole moment (field-independent basis, Debye):
    X=             -4.6465    Y=              3.0789    Z=             -2.0512  Tot=              5.9395
 Quadrupole moment (field-independent basis, Debye-Ang):
   XX=           -268.6259   YY=           -291.1115   ZZ=           -260.9892
   XY=             -6.6329   XZ=            -18.2942   YZ=             -4.1583

 Normal termination of Gaussian 09 at Fri Jul  1 17:58:04 2022.
