 Gaussian 09, Revision E.01,
 Gaussian 09:  ES64L-G09RevE.01 30-Nov-2015

 ----------------------------------------------------------------------
 #p m062x/def2TZVP td=(NStates=50) int=ultrafine scrf=(SMD,solvent=Acet
 onitrile)
 ----------------------------------------------------------------------

 -----
 Title
 -----
 Symbolic Z-matrix:
 Charge =  0 Multiplicity = 1

                         Standard orientation:
 ---------------------------------------------------------------------
 Center     Atomic      Atomic             Coordinates (Angstroms)
 Number     Number       Type             X           Y           Z
 ---------------------------------------------------------------------
      1          6           0       -0.151569    1.384922    0.005829
      2          6           0       -1.226289    0.554074   -0.297541
      3          6           0       -1.152677   -0.833950   -0.270974
      4          6           0        0.099995   -1.419842    0.008928
      5          6           0        1.218040   -0.627127    0.293023
      6          6           0        1.072059    0.764553    0.330472
      7          6           0        0.238446   -2.839886    0.008887
      8          6           0        2.161869    1.552084    0.808549
      9          9           0       -2.369794    1.116261   -0.694339
     10          7           0        0.359718   -3.982104    0.015855
     11          7           0        3.035667    2.170716    1.224886
     12          7           0        2.461898   -1.211741    0.578182
     13          6           0        3.593077   -0.808157   -0.177745
     14          6           0        2.571872   -2.132186    1.652973
     15          6           0        3.444692   -0.501359   -1.529273
     16          6           0        4.844770   -0.682901    0.423257
     17          6           0        1.797639   -1.957063    2.797360
     18          6           0        3.430523   -3.226659    1.560869
     19          6           0        4.536383   -0.062520   -2.266170
     20          1           0        2.476335   -0.608227   -2.003697
     21          6           0        5.932000   -0.261992   -0.326187
     22          1           0        4.961492   -0.901684    1.476823
     23          6           0        1.875520   -2.876307    3.835041
     24          1           0        1.134346   -1.103721    2.874232
     25          6           0        3.513611   -4.128708    2.609103
     26          1           0        4.020902   -3.373295    0.665436
     27          6           0        5.785387    0.055852   -1.672005
     28          1           0        4.406613    0.175692   -3.314532
     29          1           0        6.898553   -0.165626    0.152421
     30          6           0        2.734974   -3.962754    3.749781
     31          1           0        1.266566   -2.731549    4.718566
     32          1           0        4.181730   -4.976796    2.526554
     33          1           0        6.636505    0.392174   -2.249711
     34          1           0        2.798518   -4.674818    4.562260
     35          7           0       -2.280393   -1.592664   -0.570921
     36          6           0       -2.205354   -2.620304   -1.551877
     37          6           0       -3.515645   -1.268609    0.051172
     38          6           0       -1.442859   -2.427423   -2.699601
     39          6           0       -2.878084   -3.824213   -1.357007
     40          6           0       -3.528916   -0.837608    1.376073
     41          6           0       -4.712136   -1.363293   -0.656986
     42          6           0       -1.338266   -3.444919   -3.638699
     43          1           0       -0.931101   -1.484611   -2.853872
     44          6           0       -2.781715   -4.827219   -2.307983
     45          1           0       -3.462265   -3.973483   -0.457717
     46          6           0       -4.729262   -0.490950    1.980106
     47          1           0       -2.601946   -0.778610    1.934242
     48          6           0       -5.907533   -1.031814   -0.038089
     49          1           0       -4.703927   -1.688061   -1.689377
     50          6           0       -2.007315   -4.646263   -3.449452
     51          1           0       -0.738736   -3.289107   -4.526675
     52          1           0       -3.303209   -5.762609   -2.148390
     53          6           0       -5.924234   -0.589592    1.279801
     54          1           0       -4.727093   -0.154389    3.009333
     55          1           0       -6.831765   -1.107444   -0.597186
     56          1           0       -1.928240   -5.436332   -4.184937
     57          1           0       -6.859818   -0.325598    1.755435
     58          7           0       -0.295176    2.764698   -0.026218
     59          6           0        0.697456    3.565345   -0.658571
     60          6           0       -1.441355    3.364460    0.564500
     61          6           0        1.296675    3.122526   -1.834364
     62          6           0        1.086485    4.776841   -0.093056
     63          6           0       -1.961614    2.843685    1.746340
     64          6           0       -2.052843    4.460739   -0.039383
     65          6           0        2.296190    3.880806   -2.428421
     66          1           0        0.983340    2.185929   -2.280165
     67          6           0        2.072438    5.535562   -0.703759
     68          1           0        0.626651    5.113405    0.827431
     69          6           0       -3.096064    3.409372    2.311304
     70          1           0       -1.477045    1.999798    2.223357
     71          6           0       -3.175235    5.029340    0.542500
     72          1           0       -1.653377    4.860135   -0.962836
     73          6           0        2.686811    5.089929   -1.869143
     74          1           0        2.761276    3.525894   -3.339506
     75          1           0        2.373115    6.474388   -0.256020
     76          6           0       -3.705844    4.505682    1.716163
     77          1           0       -3.494849    2.995038    3.228796
     78          1           0       -3.645503    5.880437    0.066272
     79          1           0        3.462823    5.681957   -2.336649
     80          1           0       -4.586366    4.949511    2.162198
 ---------------------------------------------------------------------

 SCF Done:  E(RM062X) =  -2068.29867695     A.U. after   17 cycles

 Excitation energies and oscillator strengths:

 Excited State   1:      Singlet-A      3.3247 eV  372.92 nm  f=0.2807  <S**2>=0.000
     167 -> 170       -0.21001
     168 -> 171       -0.10405
     169 -> 170        0.63590
 This state for optimization and/or second-order correction.
 Total Energy, E(TD-HF/TD-KS) =  -2068.17649553
 Copying the excited state density for this state as the 1-particle RhoCI density.

 Excited State   2:      Singlet-A      3.4747 eV  356.82 nm  f=0.2996  <S**2>=0.000
     168 -> 170        0.67977
     169 -> 170        0.10917

 Excited State   3:      Singlet-A      3.6761 eV  337.27 nm  f=0.1192  <S**2>=0.000
     167 -> 170       -0.34677
     167 -> 171        0.23513
     169 -> 171        0.53724

 Excited State   4:      Singlet-A      3.7302 eV  332.38 nm  f=0.1197  <S**2>=0.000
     167 -> 170        0.55456
     167 -> 171        0.17587
     169 -> 170        0.20213
     169 -> 171        0.29518

 Excited State   5:      Singlet-A      4.0549 eV  305.77 nm  f=0.3191  <S**2>=0.000
     167 -> 171       -0.15694
     168 -> 171        0.63433
     169 -> 170        0.13537
     169 -> 171        0.10601

 Excited State   6:      Singlet-A      4.2557 eV  291.33 nm  f=0.0211  <S**2>=0.000
     167 -> 171        0.58187
     168 -> 171        0.19419
     169 -> 171       -0.27381

 Excited State   7:      Singlet-A      4.6101 eV  268.94 nm  f=0.1969  <S**2>=0.000
     167 -> 173        0.33973
     169 -> 173        0.56519
     169 -> 175       -0.10857

 Excited State   8:      Singlet-A      4.7013 eV  263.72 nm  f=0.0687  <S**2>=0.000
     167 -> 174       -0.31017
     168 -> 172        0.45332
     168 -> 174       -0.22706
     168 -> 175       -0.12928
     169 -> 172        0.15085
     169 -> 174        0.23478

 Excited State   9:      Singlet-A      4.7214 eV  262.60 nm  f=0.3556  <S**2>=0.000
     167 -> 172       -0.34608
     167 -> 175        0.13780
     168 -> 172       -0.12713
     168 -> 174        0.38114
     169 -> 172        0.33625
     169 -> 174        0.15121

 Excited State  10:      Singlet-A      4.7758 eV  259.61 nm  f=0.1237  <S**2>=0.000
     165 -> 173        0.10644
     167 -> 172        0.10894
     167 -> 177        0.30166
     169 -> 173        0.12705
     169 -> 175        0.27475
     169 -> 176       -0.29688
     169 -> 177        0.31132

 Excited State  11:      Singlet-A      4.8315 eV  256.62 nm  f=0.0718  <S**2>=0.000
     167 -> 176        0.25834
     168 -> 172        0.16723
     168 -> 175        0.40302
     168 -> 176        0.26615
     169 -> 177       -0.20418

 Excited State  12:      Singlet-A      4.8747 eV  254.34 nm  f=0.2038  <S**2>=0.000
     164 -> 172       -0.10023
     167 -> 171       -0.12454
     167 -> 172        0.13418
     167 -> 173        0.13703
     167 -> 175        0.28811
     167 -> 176       -0.10918
     167 -> 177       -0.15709
     168 -> 176        0.26866
     168 -> 177        0.11385
     169 -> 172       -0.10856
     169 -> 175       -0.17964
     169 -> 177        0.26621

 Excited State  13:      Singlet-A      5.0622 eV  244.92 nm  f=0.0448  <S**2>=0.000
     161 -> 173       -0.10767
     162 -> 173        0.16238
     165 -> 171       -0.11478
     166 -> 170        0.11285
     167 -> 179        0.23464
     167 -> 181       -0.18708
     169 -> 178       -0.27031
     169 -> 179        0.32622
     169 -> 180       -0.10535

 Excited State  14:      Singlet-A      5.0845 eV  243.85 nm  f=0.0218  <S**2>=0.000
     159 -> 176       -0.11130
     163 -> 174       -0.14610
     165 -> 170       -0.16865
     166 -> 170        0.24104
     167 -> 178        0.24858
     168 -> 178        0.14189
     168 -> 179        0.22058
     168 -> 181        0.24378
     169 -> 179       -0.15255
     169 -> 181        0.11463

 Excited State  15:      Singlet-A      5.0981 eV  243.20 nm  f=0.0178  <S**2>=0.000
     158 -> 176       -0.10091
     161 -> 174       -0.11209
     163 -> 172        0.11762
     164 -> 170       -0.23339
     167 -> 178       -0.15462
     167 -> 179        0.12821
     167 -> 181        0.20277
     168 -> 178        0.26217
     168 -> 179        0.16309
     169 -> 181       -0.23099

 Excited State  16:      Singlet-A      5.3984 eV  229.67 nm  f=0.0661  <S**2>=0.000
     156 -> 171        0.11299
     157 -> 170        0.35855
     161 -> 170        0.27512
     162 -> 170        0.13620
     165 -> 170        0.32192
     166 -> 170        0.23935

 Excited State  17:      Singlet-A      5.4476 eV  227.59 nm  f=0.0609  <S**2>=0.000
     159 -> 170        0.15847
     161 -> 170       -0.14016
     163 -> 170        0.50093
     166 -> 170        0.34318

 Excited State  18:      Singlet-A      5.4706 eV  226.64 nm  f=0.0104  <S**2>=0.000
     159 -> 170        0.14690
     160 -> 170       -0.11752
     161 -> 170        0.25846
     162 -> 170        0.13762
     163 -> 170        0.31617
     164 -> 170       -0.19539
     166 -> 170       -0.24821
     168 -> 173       -0.22836
     169 -> 172        0.11519

 Excited State  19:      Singlet-A      5.4912 eV  225.79 nm  f=0.0655  <S**2>=0.000
     161 -> 170       -0.21278
     162 -> 170       -0.13356
     163 -> 170        0.18535
     164 -> 170        0.14167
     165 -> 170        0.42517
     166 -> 170       -0.26779
     168 -> 179        0.11130
     168 -> 181        0.11316

 Excited State  20:      Singlet-A      5.5102 eV  225.01 nm  f=0.0154  <S**2>=0.000
     160 -> 170       -0.10936
     161 -> 170        0.15821
     162 -> 170        0.14989
     166 -> 170       -0.19121
     168 -> 173        0.32652
     168 -> 180        0.10513
     168 -> 185        0.10482
     169 -> 172       -0.31642
     169 -> 174        0.16995
     169 -> 185        0.13863

 Excited State  21:      Singlet-A      5.5452 eV  223.59 nm  f=0.0111  <S**2>=0.000
     160 -> 170       -0.11701
     164 -> 170       -0.20161
     167 -> 172        0.12392
     168 -> 172       -0.11056
     168 -> 173        0.28122
     168 -> 174       -0.19639
     168 -> 178       -0.10893
     168 -> 185        0.11823
     169 -> 172        0.34756

 Excited State  22:      Singlet-A      5.5659 eV  222.76 nm  f=0.1043  <S**2>=0.000
     158 -> 170        0.11576
     161 -> 170        0.13426
     162 -> 170        0.22875
     164 -> 170        0.51108
     165 -> 170       -0.15655
     168 -> 178        0.12756
     169 -> 172        0.12267

 Excited State  23:      Singlet-A      5.6216 eV  220.55 nm  f=0.0370  <S**2>=0.000
     157 -> 170        0.35410
     158 -> 170       -0.18137
     159 -> 170        0.27034
     160 -> 170       -0.18044
     161 -> 170       -0.25502
     165 -> 170       -0.22982
     165 -> 171        0.11450

 Excited State  24:      Singlet-A      5.6388 eV  219.88 nm  f=0.0363  <S**2>=0.000
     157 -> 170       -0.18940
     159 -> 170        0.48311
     162 -> 171        0.11516
     163 -> 170       -0.17687
     165 -> 170        0.12687
     166 -> 170        0.10444
     167 -> 173        0.10602
     169 -> 175       -0.13444

 Excited State  25:      Singlet-A      5.6506 eV  219.42 nm  f=0.0226  <S**2>=0.000
     158 -> 170        0.10256
     160 -> 170        0.27684
     161 -> 170       -0.18272
     162 -> 170        0.31583
     164 -> 170       -0.11706
     165 -> 171        0.11326
     168 -> 172        0.19753
     168 -> 173        0.14080
     169 -> 174       -0.31029

 Excited State  26:      Singlet-A      5.6684 eV  218.73 nm  f=0.0389  <S**2>=0.000
     160 -> 170        0.18159
     161 -> 170       -0.12478
     162 -> 170        0.37506
     164 -> 170       -0.13176
     168 -> 172       -0.23747
     168 -> 173       -0.11391
     168 -> 174       -0.11127
     169 -> 174        0.34729
     169 -> 177       -0.12169

 Excited State  27:      Singlet-A      5.6754 eV  218.46 nm  f=0.0219  <S**2>=0.000
     157 -> 170       -0.15329
     159 -> 170        0.16245
     160 -> 170       -0.15494
     166 -> 170        0.12131
     167 -> 172       -0.12656
     167 -> 173       -0.12649
     167 -> 180       -0.16892
     168 -> 173       -0.15326
     168 -> 184       -0.10946
     169 -> 175        0.13058
     169 -> 178       -0.12299
     169 -> 180        0.33416
     169 -> 185        0.11234

 Excited State  28:      Singlet-A      5.6918 eV  217.83 nm  f=0.0377  <S**2>=0.000
     156 -> 170        0.11926
     157 -> 170        0.16044
     158 -> 170        0.13075
     159 -> 170        0.18943
     160 -> 170        0.39792
     161 -> 170        0.12805
     162 -> 170       -0.20886
     165 -> 170       -0.14838
     166 -> 171       -0.13519
     167 -> 173       -0.10621
     168 -> 175        0.10309
     169 -> 182       -0.10119

 Excited State  29:      Singlet-A      5.7506 eV  215.60 nm  f=0.0047  <S**2>=0.000
     158 -> 170       -0.22770
     164 -> 170        0.10090
     167 -> 173        0.14325
     167 -> 180       -0.12205
     167 -> 184        0.14003
     168 -> 178       -0.17694
     168 -> 180        0.35602
     169 -> 176       -0.11477
     169 -> 180        0.19045

 Excited State  30:      Singlet-A      5.7667 eV  215.00 nm  f=0.0103  <S**2>=0.000
     156 -> 170       -0.16373
     158 -> 170        0.47116
     165 -> 171        0.12178
     168 -> 173       -0.10369
     168 -> 180        0.15943
     169 -> 174        0.12733
     169 -> 175        0.12931
     169 -> 177       -0.11007

 Excited State  31:      Singlet-A      5.7798 eV  214.51 nm  f=0.0819  <S**2>=0.000
     156 -> 170        0.31167
     158 -> 170        0.15047
     159 -> 170       -0.10034
     167 -> 172       -0.12318
     167 -> 173        0.19959
     168 -> 174       -0.16322
     168 -> 176       -0.12403
     169 -> 173       -0.14259
     169 -> 175       -0.20575
     169 -> 176       -0.12680
     169 -> 180        0.13523
     169 -> 182        0.18550

 Excited State  32:      Singlet-A      5.8050 eV  213.58 nm  f=0.0169  <S**2>=0.000
     156 -> 170        0.14751
     167 -> 173        0.22868
     168 -> 175        0.14462
     169 -> 173       -0.10951
     169 -> 174        0.16598
     169 -> 175        0.38343
     169 -> 176        0.28561
     169 -> 178        0.10438
     169 -> 182        0.14506

 Excited State  33:      Singlet-A      5.8180 eV  213.10 nm  f=0.0676  <S**2>=0.000
     156 -> 170        0.15759
     160 -> 171        0.22356
     162 -> 171        0.48540
     163 -> 171        0.17084
     167 -> 173       -0.10784
     169 -> 176       -0.12118

 Excited State  34:      Singlet-A      5.8405 eV  212.28 nm  f=0.0325  <S**2>=0.000
     156 -> 170        0.26919
     160 -> 170       -0.11829
     161 -> 170       -0.10398
     165 -> 171       -0.22031
     166 -> 171       -0.17742
     167 -> 180        0.13276
     168 -> 175       -0.17424
     168 -> 176        0.11943
     168 -> 177        0.10684
     169 -> 173        0.12012
     169 -> 174       -0.12474
     169 -> 176       -0.15942
     169 -> 177       -0.15636
     169 -> 178        0.10640
     169 -> 182        0.10538
     169 -> 183       -0.10438

 Excited State  35:      Singlet-A      5.8599 eV  211.58 nm  f=0.0041  <S**2>=0.000
     156 -> 170        0.34216
     157 -> 171       -0.12196
     160 -> 171       -0.12111
     164 -> 171       -0.12719
     165 -> 171        0.15494
     166 -> 171        0.10859
     167 -> 173       -0.17983
     167 -> 174        0.10188
     168 -> 173       -0.11145
     168 -> 177       -0.11930
     168 -> 180        0.13708
     169 -> 174        0.12427
     169 -> 176        0.11339
     169 -> 177        0.14098
     169 -> 182       -0.15872

 Excited State  36:      Singlet-A      5.8726 eV  211.12 nm  f=0.0039  <S**2>=0.000
     158 -> 170       -0.10040
     160 -> 170        0.12376
     161 -> 170        0.13869
     164 -> 171       -0.10560
     165 -> 171        0.26744
     166 -> 171        0.22593
     167 -> 174       -0.12951
     168 -> 172       -0.12422
     168 -> 175       -0.20461
     168 -> 176        0.23478
     169 -> 175        0.12472
     169 -> 177       -0.16794
     169 -> 179        0.14642

 Excited State  37:      Singlet-A      5.8961 eV  210.28 nm  f=0.0083  <S**2>=0.000
     160 -> 171        0.20446
     161 -> 171        0.26371
     165 -> 173        0.13965
     166 -> 173        0.11262
     167 -> 172       -0.16282
     168 -> 174       -0.13826
     168 -> 176        0.17017
     168 -> 177       -0.21611
     169 -> 176        0.28981

 Excited State  38:      Singlet-A      5.9133 eV  209.67 nm  f=0.0256  <S**2>=0.000
     158 -> 170       -0.11828
     160 -> 170        0.10482
     160 -> 171        0.14977
     161 -> 171        0.21176
     165 -> 173        0.11490
     166 -> 171        0.10627
     167 -> 172        0.22548
     167 -> 173       -0.10293
     167 -> 182        0.10566
     168 -> 172        0.14952
     168 -> 174        0.23841
     168 -> 176       -0.15179
     169 -> 174        0.10448
     169 -> 177       -0.12425
     169 -> 182        0.14513

 Excited State  39:      Singlet-A      5.9315 eV  209.03 nm  f=0.0378  <S**2>=0.000
     157 -> 171        0.10672
     160 -> 170        0.12224
     160 -> 171       -0.13856
     167 -> 173       -0.14734
     167 -> 180        0.13167
     167 -> 182        0.18581
     168 -> 177       -0.20072
     169 -> 175       -0.12180
     169 -> 177        0.14731
     169 -> 182        0.33137
     169 -> 183       -0.16069

 Excited State  40:      Singlet-A      5.9673 eV  207.77 nm  f=0.0079  <S**2>=0.000
     162 -> 171       -0.10586
     166 -> 171        0.10339
     167 -> 172       -0.26442
     167 -> 175       -0.10127
     167 -> 177       -0.14702
     167 -> 180        0.11184
     168 -> 172       -0.10099
     168 -> 173       -0.11714
     168 -> 174       -0.13564
     168 -> 175        0.21252
     168 -> 177        0.34405
     168 -> 184        0.12160
     169 -> 177        0.12736

 Excited State  41:      Singlet-A      6.0134 eV  206.18 nm  f=0.1349  <S**2>=0.000
     162 -> 171        0.12186
     163 -> 171       -0.19429
     164 -> 174        0.10912
     165 -> 171        0.12913
     166 -> 171       -0.23496
     167 -> 172       -0.11311
     167 -> 174        0.25665
     168 -> 175       -0.16247
     168 -> 177        0.27498
     169 -> 178       -0.10667
     169 -> 181        0.12165

 Excited State  42:      Singlet-A      6.0206 eV  205.93 nm  f=0.0425  <S**2>=0.000
     157 -> 170        0.11257
     163 -> 171        0.10900
     165 -> 171       -0.23774
     166 -> 171        0.31557
     167 -> 172       -0.12023
     167 -> 174        0.36518
     168 -> 172        0.12762
     168 -> 175       -0.12128
     168 -> 176        0.12836
     168 -> 178        0.11384

 Excited State  43:      Singlet-A      6.0361 eV  205.40 nm  f=0.0552  <S**2>=0.000
     164 -> 171        0.10892
     165 -> 171        0.22571
     166 -> 171       -0.10739
     167 -> 174        0.26264
     167 -> 175        0.20398
     167 -> 177       -0.16297
     168 -> 174       -0.14080
     168 -> 176       -0.12015
     168 -> 177       -0.10675
     169 -> 176       -0.10248
     169 -> 177       -0.13236
     169 -> 178        0.11088
     169 -> 185        0.11086

 Excited State  44:      Singlet-A      6.0565 eV  204.71 nm  f=0.0949  <S**2>=0.000
     158 -> 170        0.11245
     160 -> 171        0.11814
     163 -> 171       -0.18629
     164 -> 171        0.28893
     164 -> 174        0.10903
     165 -> 172       -0.14587
     166 -> 171        0.19706
     166 -> 172        0.16127
     167 -> 176        0.17562
     168 -> 175       -0.13250
     169 -> 177        0.11038
     169 -> 178        0.12264

 Excited State  45:      Singlet-A      6.0756 eV  204.07 nm  f=0.1323  <S**2>=0.000
     161 -> 171       -0.11280
     162 -> 171       -0.10965
     163 -> 171        0.10222
     164 -> 171        0.25857
     164 -> 172       -0.11136
     165 -> 171        0.10199
     167 -> 172       -0.14400
     167 -> 175       -0.21166
     168 -> 175       -0.13486
     168 -> 176        0.15729
     169 -> 177        0.10192
     169 -> 182        0.10064
     169 -> 185       -0.19128

 Excited State  46:      Singlet-A      6.0943 eV  203.44 nm  f=0.0120  <S**2>=0.000
     156 -> 171        0.10142
     161 -> 171        0.14296
     163 -> 171        0.19589
     167 -> 172        0.12737
     167 -> 175       -0.18682
     167 -> 176        0.20774
     168 -> 178        0.19499
     169 -> 177        0.14440
     169 -> 183       -0.17251
     169 -> 185        0.15016

 Excited State  47:      Singlet-A      6.1118 eV  202.86 nm  f=0.1523  <S**2>=0.000
     157 -> 171       -0.20862
     160 -> 171        0.18335
     162 -> 171       -0.11072
     164 -> 171       -0.16599
     164 -> 172       -0.15736
     167 -> 176        0.25769
     168 -> 176       -0.14027
     168 -> 184        0.13319
     169 -> 178       -0.17336

 Excited State  48:      Singlet-A      6.1196 eV  202.60 nm  f=0.0621  <S**2>=0.000
     161 -> 171       -0.18607
     163 -> 171        0.20416
     164 -> 171        0.13391
     165 -> 171        0.12467
     167 -> 175        0.12440
     167 -> 177        0.31247
     168 -> 177        0.20959
     169 -> 176        0.18746
     169 -> 178        0.21205
     169 -> 179        0.10654

 Excited State  49:      Singlet-A      6.1485 eV  201.65 nm  f=0.0402  <S**2>=0.000
     160 -> 171       -0.10190
     161 -> 171        0.12805
     164 -> 172        0.11992
     167 -> 175        0.26906
     167 -> 176        0.22007
     167 -> 177       -0.12792
     167 -> 178        0.10937
     168 -> 173        0.11337
     168 -> 185       -0.16629
     169 -> 179        0.11614
     169 -> 183        0.13431
     169 -> 185       -0.13555

 Excited State  50:      Singlet-A      6.1684 eV  201.00 nm  f=0.0947  <S**2>=0.000
     156 -> 171       -0.16478
     159 -> 171        0.23730
     161 -> 171       -0.13669
     163 -> 171        0.30490
     164 -> 174        0.15922
     165 -> 172       -0.12594
     166 -> 172        0.19245
     167 -> 176       -0.11942
     168 -> 185       -0.10697
     169 -> 181       -0.15146

 The electronic state is 1-A.
 Alpha  occ. eigenvalues --  -25.28222 -14.80325 -14.80079 -14.79591 -14.76616
 Alpha  occ. eigenvalues --  -14.76599 -10.65010 -10.63284 -10.63245 -10.63173
 Alpha  occ. eigenvalues --  -10.60014 -10.59973 -10.59622 -10.59600 -10.59296
 Alpha  occ. eigenvalues --  -10.59294 -10.59273 -10.59203 -10.59202 -10.59168
 Alpha  occ. eigenvalues --  -10.54554 -10.54511 -10.54496 -10.54460 -10.54446
 Alpha  occ. eigenvalues --  -10.54439 -10.54436 -10.54432 -10.54415 -10.54408
 Alpha  occ. eigenvalues --  -10.54389 -10.54378 -10.54373 -10.54367 -10.54359
 Alpha  occ. eigenvalues --  -10.54351 -10.54333 -10.54316 -10.54306 -10.54297
 Alpha  occ. eigenvalues --  -10.54287 -10.54282 -10.54180 -10.54171 -10.53983
 Alpha  occ. eigenvalues --  -10.53967 -10.53918 -10.53838 -10.53778 -10.53752
 Alpha  occ. eigenvalues --   -1.40165  -1.11357  -1.10506  -1.10076  -1.03547
 Alpha  occ. eigenvalues --   -1.03474  -0.99821  -0.97166  -0.97114  -0.96998
 Alpha  occ. eigenvalues --   -0.96069  -0.95864  -0.94595  -0.90602  -0.89250
 Alpha  occ. eigenvalues --   -0.86323  -0.86242  -0.86145  -0.85216  -0.85159
 Alpha  occ. eigenvalues --   -0.84943  -0.84760  -0.84697  -0.84574  -0.83075
 Alpha  occ. eigenvalues --   -0.82201  -0.82004  -0.77029  -0.75836  -0.71924
 Alpha  occ. eigenvalues --   -0.71708  -0.71371  -0.71213  -0.70385  -0.69793
 Alpha  occ. eigenvalues --   -0.69494  -0.69247  -0.69123  -0.68927  -0.67852
 Alpha  occ. eigenvalues --   -0.66359  -0.65911  -0.64833  -0.62897  -0.62435
 Alpha  occ. eigenvalues --   -0.61890  -0.61165  -0.61088  -0.60896  -0.59642
 Alpha  occ. eigenvalues --   -0.58138  -0.57940  -0.57263  -0.56429  -0.55865
 Alpha  occ. eigenvalues --   -0.55479  -0.55399  -0.55300  -0.53541  -0.53227
 Alpha  occ. eigenvalues --   -0.52867  -0.52242  -0.52162  -0.51808  -0.51423
 Alpha  occ. eigenvalues --   -0.51094  -0.50800  -0.50637  -0.50441  -0.50000
 Alpha  occ. eigenvalues --   -0.49624  -0.49462  -0.49283  -0.49237  -0.49128
 Alpha  occ. eigenvalues --   -0.49006  -0.48963  -0.48448  -0.47190  -0.46858
 Alpha  occ. eigenvalues --   -0.46510  -0.46292  -0.46033  -0.45901  -0.45550
 Alpha  occ. eigenvalues --   -0.45040  -0.44604  -0.42811  -0.42686  -0.42661
 Alpha  occ. eigenvalues --   -0.42510  -0.42067  -0.41902  -0.41837  -0.41730
 Alpha  occ. eigenvalues --   -0.41666  -0.41220  -0.41203  -0.40885  -0.40655
 Alpha  occ. eigenvalues --   -0.40376  -0.40301  -0.39278  -0.39032  -0.37668
 Alpha  occ. eigenvalues --   -0.33850  -0.33631  -0.32452  -0.32123  -0.32018
 Alpha  occ. eigenvalues --   -0.31886  -0.31720  -0.31662  -0.31433  -0.31119
 Alpha  occ. eigenvalues --   -0.30999  -0.26048  -0.25563  -0.25127
 Alpha virt. eigenvalues --   -0.05221  -0.03258   0.00081   0.00211   0.00536
 Alpha virt. eigenvalues --    0.00759   0.01010   0.01067   0.02168   0.02511
 Alpha virt. eigenvalues --    0.02786   0.02862   0.04308   0.04708   0.04858

 Mulliken charges:
               1
     1  C   -0.044672
     2  C    0.325132
     3  C   -0.129518
     4  C    0.324819
     5  C   -0.231745
     6  C    0.260806
     7  C   -0.225331
     8  C   -0.267643
     9  F   -0.197244
    10  N   -0.023033
    11  N   -0.017698
    12  N   -0.051850
    13  C    0.095380
    14  C    0.057128
    15  C   -0.233251
    16  C   -0.255458
    17  C   -0.204677
    18  C   -0.259075
    19  C   -0.182366
    20  H    0.210149
    21  C   -0.150530
    22  H    0.216856
    23  C   -0.172178
    24  H    0.208267
    25  C   -0.152032
    26  H    0.216517
    27  C   -0.196086
    28  H    0.186647
    29  H    0.184573
    30  C   -0.197974
    31  H    0.184824
    32  H    0.184814
    33  H    0.183777
    34  H    0.183833
    35  N   -0.069744
    36  C    0.028755
    37  C    0.124316
    38  C   -0.204729
    39  C   -0.227283
    40  C   -0.243910
    41  C   -0.240502
    42  C   -0.172137
    43  H    0.208203
    44  C   -0.160339
    45  H    0.215413
    46  C   -0.183225
    47  H    0.214460
    48  C   -0.164677
    49  H    0.215611
    50  C   -0.186598
    51  H    0.185440
    52  H    0.185665
    53  C   -0.192671
    54  H    0.189248
    55  H    0.185127
    56  H    0.184502
    57  H    0.184165
    58  N   -0.067427
    59  C    0.044517
    60  C    0.105366
    61  C   -0.215613
    62  C   -0.222443
    63  C   -0.231239
    64  C   -0.241890
    65  C   -0.179524
    66  H    0.212799
    67  C   -0.160847
    68  H    0.215119
    69  C   -0.181613
    70  H    0.220322
    71  C   -0.162610
    72  H    0.216480
    73  C   -0.182897
    74  H    0.186771
    75  H    0.185601
    76  C   -0.191261
    77  H    0.189529
    78  H    0.185478
    79  H    0.184682
    80  H    0.184455
 Sum of Mulliken charges =  -0.00000

 Dipole moment (field-independent basis, Debye):
    X=             -4.1743    Y=              2.5641    Z=             -1.7672  Tot=              5.2079
 Quadrupole moment (field-independent basis, Debye-Ang):
   XX=           -267.6315   YY=           -289.2592   ZZ=           -258.8289
   XY=             -6.1293   XZ=            -18.2121   YZ=             -3.7657

 Normal termination of Gaussian 09 at Sat Jul  2 15:02:58 2022.
