                         Program Version 5.0.2 -  RELEASE  -
|  1> %maxcore 3200
|  2> %pal
|  3>  nprocs= 8
|  4> end
|  5> ! RI-B2PLYP D3BJ def2-TZVP def2/J def2-TZVP/C RIJCOSX CPCM TightSCF
|  6> %TDDFT DCORR 4
|  7>    NROOTS   30
|  8>   TDA      FALSE
|  9> END
| 10>
| 11>  %CPCM
| 12>    SMD          TRUE
| 13>    SMDsolvent   "ACETONITRILE"
| 14>  END
| 15>
| 16>
| 17> * xyz -2 1
| 18> C                  -2.67897200    4.34624700   -0.16924300
| 19> C                  -2.46586700    2.90864300   -0.20133500
| 20> C                  -1.17369700    2.42193300   -0.18513400
| 21> C                  -0.01410600    3.24238300   -0.18570700
| 22> C                  -0.23683500    4.64481300   -0.14138500
| 23> C                  -1.48835100    5.16623400   -0.13020500
| 24> C                   1.25499300    2.64616500   -0.19350900
| 25> C                   1.35641700    1.24406600   -0.16759300
| 26> C                   0.17868400    0.46122100   -0.08657500
| 27> C                   0.18512200   -0.91505500   -0.00743600
| 28> C                   1.44713300   -1.63392300   -0.02990500
| 29> C                   2.66346700   -0.82586600   -0.14802400
| 30> C                   2.57758400    0.53874600   -0.21132300
| 31> H                   0.62440100    5.30035600   -0.10401300
| 32> H                  -1.64018100    6.23851100   -0.08871900
| 33> H                   3.48808300    1.11428800   -0.31945600
| 34> O                  -1.03680100    1.06901700   -0.12749600
| 35> O                   1.48918400   -2.87654700    0.07950700
| 36> O                  -3.81835700    4.85935400   -0.18276500
| 37> C                   2.47499900    3.47808400   -0.29079300
| 38> C                   2.65878900    4.26262000   -1.43194500
| 39> C                   3.47261100    3.45681700    0.69702500
| 40> C                   3.79715500    5.03530400   -1.59538700
| 41> H                   1.89683800    4.25456500   -2.20309300
| 42> C                   4.61968000    4.22345000    0.50515700
| 43> C                   4.78141100    5.02011300   -0.61702500
| 44> H                   3.91570100    5.64030800   -2.48551700
| 45> H                   5.39097200    4.18654500    1.26554100
| 46> H                   5.67445900    5.62240600   -0.73271400
| 47> C                   3.32624100    2.64697100    1.97622900
| 48> O                   4.33643500    1.99081100    2.32416400
| 49> O                   2.22402100    2.73490600    2.56087400
| 50> C                  -3.63001500    2.01010700   -0.24860600
| 51> C                  -4.70258000    2.19292700    0.63275400
| 52> C                  -3.72296100    0.97456000   -1.18325200
| 53> C                  -5.81311700    1.37299700    0.58621000
| 54> H                  -4.65423300    2.98730900    1.36421700
| 55> C                  -4.83656400    0.15362500   -1.24232900
| 56> H                  -2.91537900    0.81694300   -1.88658500
| 57> C                  -5.88780300    0.35336000   -0.35816200
| 58> H                  -6.62924700    1.52354400    1.28267000
| 59> H                  -4.88919800   -0.63461500   -1.98224700
| 60> C                  -1.06465500   -1.68362500    0.11778600
| 61> C                  -2.02756000   -1.36834900    1.08017500
| 62> C                  -1.30858200   -2.78127300   -0.71601200
| 63> C                  -3.18525100   -2.11740200    1.21416900
| 64> H                  -1.86150400   -0.53194900    1.74701900
| 65> C                  -2.46404000   -3.52785900   -0.59545700
| 66> H                  -0.57780000   -3.04465000   -1.46800700
| 67> C                  -3.40443000   -3.20349800    0.37819600
| 68> H                  -3.91059600   -1.86154900    1.97594000
| 69> H                  -2.63787200   -4.37021400   -1.25416200
| 70> C                   3.98655400   -1.46390400   -0.17264700
| 71> C                   5.07989000   -0.83143300    0.43839900
| 72> C                   4.21380100   -2.68803000   -0.81358400
| 73> C                   6.34179300   -1.39321000    0.40371100
| 74> H                   4.92582500    0.10498900    0.96781500
| 75> C                   5.47687400   -3.25094500   -0.85305000
| 76> H                   3.38936600   -3.19431300   -1.29246700
| 77> C                   6.54561500   -2.60981200   -0.23950300
| 78> H                   7.17090400   -0.89230000    0.88848900
| 79> H                   5.63231500   -4.19255100   -1.36360200
| 80> C                  -7.09518600   -0.51997600   -0.37788600
| 81> C                  -4.64149200   -4.02792900    0.48361700
| 82> C                   7.91767900   -3.18671000   -0.30272200
| 83> F                   8.60106400   -3.02529000    0.84685500
| 84> F                   8.67691000   -2.60461700   -1.26294200
| 85> F                   7.92151900   -4.50206800   -0.57393000
| 86> F                  -4.37252500   -5.34998800    0.54504800
| 87> F                  -5.38050100   -3.73671400    1.56309500
| 88> F                  -5.45126900   -3.87436000   -0.59031500
| 89> F                  -7.13266100   -1.34679200   -1.43216600
| 90> F                  -7.17953700   -1.29923600    0.72567500
| 91> F                  -8.24247900    0.19200800   -0.40482500
| 92> *
| 93>
| 94>
| 95>                          ****END OF INPUT****

CARTESIAN COORDINATES (ANGSTROEM)
---------------------------------
  C     -2.678972    4.346247   -0.169243
  C     -2.465867    2.908643   -0.201335
  C     -1.173697    2.421933   -0.185134
  C     -0.014106    3.242383   -0.185707
  C     -0.236835    4.644813   -0.141385
  C     -1.488351    5.166234   -0.130205
  C      1.254993    2.646165   -0.193509
  C      1.356417    1.244066   -0.167593
  C      0.178684    0.461221   -0.086575
  C      0.185122   -0.915055   -0.007436
  C      1.447133   -1.633923   -0.029905
  C      2.663467   -0.825866   -0.148024
  C      2.577584    0.538746   -0.211323
  H      0.624401    5.300356   -0.104013
  H     -1.640181    6.238511   -0.088719
  H      3.488083    1.114288   -0.319456
  O     -1.036801    1.069017   -0.127496
  O      1.489184   -2.876547    0.079507
  O     -3.818357    4.859354   -0.182765
  C      2.474999    3.478084   -0.290793
  C      2.658789    4.262620   -1.431945
  C      3.472611    3.456817    0.697025
  C      3.797155    5.035304   -1.595387
  H      1.896838    4.254565   -2.203093
  C      4.619680    4.223450    0.505157
  C      4.781411    5.020113   -0.617025
  H      3.915701    5.640308   -2.485517
  H      5.390972    4.186545    1.265541
  H      5.674459    5.622406   -0.732714
  C      3.326241    2.646971    1.976229
  O      4.336435    1.990811    2.324164
  O      2.224021    2.734906    2.560874
  C     -3.630015    2.010107   -0.248606
  C     -4.702580    2.192927    0.632754
  C     -3.722961    0.974560   -1.183252
  C     -5.813117    1.372997    0.586210
  H     -4.654233    2.987309    1.364217
  C     -4.836564    0.153625   -1.242329
  H     -2.915379    0.816943   -1.886585
  C     -5.887803    0.353360   -0.358162
  H     -6.629247    1.523544    1.282670
  H     -4.889198   -0.634615   -1.982247
  C     -1.064655   -1.683625    0.117786
  C     -2.027560   -1.368349    1.080175
  C     -1.308582   -2.781273   -0.716012
  C     -3.185251   -2.117402    1.214169
  H     -1.861504   -0.531949    1.747019
  C     -2.464040   -3.527859   -0.595457
  H     -0.577800   -3.044650   -1.468007
  C     -3.404430   -3.203498    0.378196
  H     -3.910596   -1.861549    1.975940
  H     -2.637872   -4.370214   -1.254162
  C      3.986554   -1.463904   -0.172647
  C      5.079890   -0.831433    0.438399
  C      4.213801   -2.688030   -0.813584
  C      6.341793   -1.393210    0.403711
  H      4.925825    0.104989    0.967815
  C      5.476874   -3.250945   -0.853050
  H      3.389366   -3.194313   -1.292467
  C      6.545615   -2.609812   -0.239503
  H      7.170904   -0.892300    0.888489
  H      5.632315   -4.192551   -1.363602
  C     -7.095186   -0.519976   -0.377886
  C     -4.641492   -4.027929    0.483617
  C      7.917679   -3.186710   -0.302722
  F      8.601064   -3.025290    0.846855
  F      8.676910   -2.604617   -1.262942
  F      7.921519   -4.502068   -0.573930
  F     -4.372525   -5.349988    0.545048
  F     -5.380501   -3.736714    1.563095
  F     -5.451269   -3.874360   -0.590315
  F     -7.132661   -1.346792   -1.432166
  F     -7.179537   -1.299236    0.725675
  F     -8.242479    0.192008   -0.404825

 Total Charge           Charge          ....   -2
 Multiplicity           Mult            ....    1
 Number of Electrons    NEL             ....  388
 Basis Dimension        Dim             .... 1819

ORBITAL ENERGIES
----------------

  NO   OCC          E(Eh)            E(eV)
   0   2.0000     -25.392129      -690.9550
   1   2.0000     -25.391837      -690.9470
   2   2.0000     -25.391621      -690.9411
   3   2.0000     -25.389427      -690.8814
   4   2.0000     -25.387798      -690.8371
   5   2.0000     -25.387450      -690.8276
   6   2.0000     -25.385923      -690.7861
   7   2.0000     -25.385667      -690.7791
   8   2.0000     -25.385507      -690.7748
   9   2.0000     -19.783818      -538.3451
  10   2.0000     -19.655830      -534.8623
  11   2.0000     -19.655789      -534.8612
  12   2.0000     -19.636595      -534.3389
  13   2.0000     -19.636151      -534.3268
  14   2.0000     -10.874124      -295.9000
  15   2.0000     -10.873900      -295.8939
  16   2.0000     -10.873596      -295.8856
  17   2.0000     -10.694127      -291.0020
  18   2.0000     -10.692428      -290.9558
  19   2.0000     -10.683516      -290.7133
  20   2.0000     -10.673870      -290.4508
  21   2.0000     -10.670461      -290.3580
  22   2.0000     -10.660333      -290.0824
  23   2.0000     -10.632552      -289.3264
  24   2.0000     -10.632435      -289.3233
  25   2.0000     -10.632143      -289.3153
  26   2.0000     -10.628294      -289.2106
  27   2.0000     -10.627984      -289.2021
  28   2.0000     -10.627444      -289.1874
  29   2.0000     -10.625934      -289.1464
  30   2.0000     -10.621520      -289.0263
  31   2.0000     -10.621372      -289.0222
  32   2.0000     -10.621139      -289.0159
  33   2.0000     -10.621090      -289.0146
  34   2.0000     -10.621009      -289.0124
  35   2.0000     -10.620771      -289.0059
  36   2.0000     -10.618537      -288.9451
  37   2.0000     -10.617796      -288.9249
  38   2.0000     -10.616265      -288.8833
  39   2.0000     -10.614613      -288.8383
  40   2.0000     -10.613765      -288.8152
  41   2.0000     -10.613249      -288.8012
  42   2.0000     -10.612339      -288.7764
  43   2.0000     -10.612172      -288.7719
  44   2.0000     -10.611713      -288.7594
  45   2.0000     -10.611647      -288.7576
  46   2.0000     -10.610835      -288.7355
  47   2.0000     -10.609480      -288.6986
  48   2.0000     -10.609445      -288.6977
  49   2.0000     -10.609106      -288.6884
  50   2.0000     -10.607347      -288.6406
  51   2.0000     -10.607029      -288.6319
  52   2.0000     -10.602384      -288.5055
  53   2.0000     -10.601989      -288.4948
  54   2.0000     -10.594213      -288.2832
  55   2.0000      -1.484373       -40.3919
  56   2.0000      -1.484369       -40.3917
  57   2.0000      -1.483684       -40.3731
  58   2.0000      -1.394434       -37.9445
  59   2.0000      -1.394395       -37.9434
  60   2.0000      -1.393923       -37.9306
  61   2.0000      -1.388251       -37.7762
  62   2.0000      -1.388040       -37.7705
  63   2.0000      -1.387516       -37.7562
  64   2.0000      -1.252551       -34.0836
  65   2.0000      -1.146717       -31.2038
  66   2.0000      -1.130345       -30.7583
  67   2.0000      -1.126613       -30.6567
  68   2.0000      -1.052086       -28.6287
  69   2.0000      -1.000906       -27.2360
  70   2.0000      -0.998000       -27.1570
  71   2.0000      -0.995445       -27.0874
  72   2.0000      -0.994351       -27.0577
  73   2.0000      -0.974820       -26.5262
  74   2.0000      -0.968078       -26.3427
  75   2.0000      -0.926152       -25.2019
  76   2.0000      -0.920658       -25.0524
  77   2.0000      -0.907702       -24.6998
  78   2.0000      -0.890508       -24.2319
  79   2.0000      -0.872420       -23.7397
  80   2.0000      -0.863203       -23.4889
  81   2.0000      -0.862178       -23.4611
  82   2.0000      -0.861781       -23.4503
  83   2.0000      -0.858706       -23.3666
  84   2.0000      -0.852063       -23.1858
  85   2.0000      -0.846935       -23.0463
  86   2.0000      -0.830969       -22.6118
  87   2.0000      -0.807447       -21.9718
  88   2.0000      -0.799785       -21.7633
  89   2.0000      -0.795328       -21.6420
  90   2.0000      -0.749963       -20.4075
  91   2.0000      -0.745586       -20.2884
  92   2.0000      -0.733733       -19.9659
  93   2.0000      -0.726113       -19.7585
  94   2.0000      -0.716483       -19.4965
  95   2.0000      -0.714770       -19.4499
  96   2.0000      -0.712977       -19.4011
  97   2.0000      -0.707663       -19.2565
  98   2.0000      -0.703207       -19.1352
  99   2.0000      -0.697356       -18.9760
 100   2.0000      -0.686592       -18.6831
 101   2.0000      -0.685766       -18.6606
 102   2.0000      -0.684329       -18.6215
 103   2.0000      -0.679185       -18.4816
 104   2.0000      -0.677159       -18.4264
 105   2.0000      -0.676137       -18.3986
 106   2.0000      -0.667852       -18.1732
 107   2.0000      -0.665841       -18.1185
 108   2.0000      -0.649858       -17.6835
 109   2.0000      -0.648332       -17.6420
 110   2.0000      -0.645877       -17.5752
 111   2.0000      -0.623522       -16.9669
 112   2.0000      -0.613828       -16.7031
 113   2.0000      -0.609794       -16.5933
 114   2.0000      -0.594763       -16.1843
 115   2.0000      -0.582266       -15.8443
 116   2.0000      -0.574679       -15.6378
 117   2.0000      -0.572843       -15.5878
 118   2.0000      -0.572202       -15.5704
 119   2.0000      -0.570870       -15.5342
 120   2.0000      -0.569943       -15.5089
 121   2.0000      -0.567377       -15.4391
 122   2.0000      -0.560932       -15.2637
 123   2.0000      -0.553924       -15.0730
 124   2.0000      -0.551852       -15.0167
 125   2.0000      -0.549803       -14.9609
 126   2.0000      -0.544442       -14.8150
 127   2.0000      -0.538776       -14.6608
 128   2.0000      -0.536761       -14.6060
 129   2.0000      -0.532689       -14.4952
 130   2.0000      -0.529361       -14.4046
 131   2.0000      -0.529039       -14.3959
 132   2.0000      -0.527864       -14.3639
 133   2.0000      -0.527386       -14.3509
 134   2.0000      -0.525515       -14.3000
 135   2.0000      -0.523435       -14.2434
 136   2.0000      -0.521318       -14.1858
 137   2.0000      -0.520397       -14.1607
 138   2.0000      -0.517577       -14.0840
 139   2.0000      -0.514643       -14.0041
 140   2.0000      -0.512806       -13.9542
 141   2.0000      -0.510026       -13.8785
 142   2.0000      -0.509451       -13.8629
 143   2.0000      -0.508699       -13.8424
 144   2.0000      -0.506725       -13.7887
 145   2.0000      -0.505087       -13.7441
 146   2.0000      -0.496473       -13.5097
 147   2.0000      -0.493562       -13.4305
 148   2.0000      -0.489161       -13.3107
 149   2.0000      -0.487013       -13.2523
 150   2.0000      -0.486394       -13.2354
 151   2.0000      -0.485329       -13.2065
 152   2.0000      -0.477852       -13.0030
 153   2.0000      -0.475941       -12.9510
 154   2.0000      -0.467895       -12.7321
 155   2.0000      -0.464944       -12.6518
 156   2.0000      -0.462732       -12.5916
 157   2.0000      -0.451817       -12.2946
 158   2.0000      -0.448200       -12.1961
 159   2.0000      -0.446154       -12.1405
 160   2.0000      -0.441851       -12.0234
 161   2.0000      -0.436188       -11.8693
 162   2.0000      -0.431945       -11.7538
 163   2.0000      -0.430980       -11.7276
 164   2.0000      -0.427725       -11.6390
 165   2.0000      -0.424123       -11.5410
 166   2.0000      -0.421851       -11.4792
 167   2.0000      -0.417740       -11.3673
 168   2.0000      -0.414438       -11.2774
 169   2.0000      -0.408700       -11.1213
 170   2.0000      -0.407200       -11.0805
 171   2.0000      -0.405911       -11.0454
 172   2.0000      -0.404232       -10.9997
 173   2.0000      -0.402234       -10.9453
 174   2.0000      -0.389594       -10.6014
 175   2.0000      -0.380000       -10.3403
 176   2.0000      -0.371390       -10.1060
 177   2.0000      -0.330667        -8.9979
 178   2.0000      -0.313530        -8.5316
 179   2.0000      -0.309425        -8.4199
 180   2.0000      -0.305213        -8.3053
 181   2.0000      -0.303360        -8.2549
 182   2.0000      -0.300197        -8.1688
 183   2.0000      -0.295262        -8.0345
 184   2.0000      -0.294166        -8.0047
 185   2.0000      -0.288921        -7.8620
 186   2.0000      -0.287722        -7.8293
 187   2.0000      -0.284419        -7.7394
 188   2.0000      -0.283905        -7.7254
 189   2.0000      -0.277558        -7.5527
 190   2.0000      -0.267672        -7.2837
 191   2.0000      -0.259081        -7.0500
 192   2.0000      -0.239897        -6.5279
 193   2.0000      -0.201011        -5.4698
 194   0.0000      -0.026154        -0.7117
 195   0.0000       0.011233         0.3057
 196   0.0000       0.019287         0.5248
 197   0.0000       0.027395         0.7454
 198   0.0000       0.042711         1.1622

MULLIKEN ATOMIC CHARGES
-----------------------
   0 C :    0.308111
   1 C :   -0.137627
   2 C :    0.287824
   3 C :    0.069454
   4 C :   -0.226030
   5 C :   -0.344456
   6 C :    0.423268
   7 C :    0.108605
   8 C :    0.270940
   9 C :   -0.074291
  10 C :    0.231171
  11 C :    0.027883
  12 C :   -0.302696
  13 H :    0.173352
  14 H :    0.122019
  15 H :    0.191537
  16 O :   -0.285661
  17 O :   -0.542803
  18 O :   -0.549841
  19 C :   -0.004396
  20 C :   -0.350672
  21 C :   -0.114289
  22 C :   -0.134289
  23 H :    0.155798
  24 C :   -0.192592
  25 C :   -0.172727
  26 H :    0.156029
  27 H :    0.146586
  28 H :    0.154691
  29 C :    0.319675
  30 O :   -0.581758
  31 O :   -0.579684
  32 C :    0.109473
  33 C :   -0.200468
  34 C :   -0.204357
  35 C :   -0.245822
  36 H :    0.142749
  37 C :   -0.206383
  38 H :    0.148103
  39 C :    0.075815
  40 H :    0.163639
  41 H :    0.162316
  42 C :    0.043537
  43 C :   -0.217393
  44 C :   -0.207256
  45 C :   -0.207905
  46 H :    0.148866
  47 C :   -0.247905
  48 H :    0.145134
  49 C :    0.079635
  50 H :    0.162393
  51 H :    0.163013
  52 C :    0.075768
  53 C :   -0.248903
  54 C :   -0.210213
  55 C :   -0.240920
  56 H :    0.177183
  57 C :   -0.207787
  58 H :    0.145333
  59 C :    0.079888
  60 H :    0.162886
  61 H :    0.164770
  62 C :    0.613742
  63 C :    0.614252
  64 C :    0.588495
  65 F :   -0.228180
  66 F :   -0.232232
  67 F :   -0.225017
  68 F :   -0.231491
  69 F :   -0.228466
  70 F :   -0.235470
  71 F :   -0.228181
  72 F :   -0.234770
  73 F :   -0.231002
Sum of atomic charges:   -2.0000000

LOEWDIN ATOMIC CHARGES
----------------------
   0 C :   -0.325127
   1 C :   -0.095879
   2 C :   -0.122691
   3 C :   -0.112891
   4 C :   -0.092814
   5 C :   -0.149989
   6 C :    0.031789
   7 C :   -0.109450
   8 C :   -0.125903
   9 C :   -0.093139
  10 C :   -0.279799
  11 C :   -0.099700
  12 C :   -0.038187
  13 H :    0.162915
  14 H :    0.145361
  15 H :    0.171314
  16 O :    0.372060
  17 O :   -0.042125
  18 O :   -0.065351
  19 C :   -0.069259
  20 C :   -0.099164
  21 C :   -0.078936
  22 C :   -0.149164
  23 H :    0.158796
  24 C :   -0.113841
  25 C :   -0.143677
  26 H :    0.150567
  27 H :    0.152837
  28 H :    0.150223
  29 C :   -0.613771
  30 O :   -0.119846
  31 O :   -0.107937
  32 C :   -0.091049
  33 C :   -0.088340
  34 C :   -0.090943
  35 C :   -0.098703
  36 H :    0.156677
  37 C :   -0.098081
  38 H :    0.156914
  39 C :   -0.148860
  40 H :    0.160103
  41 H :    0.158597
  42 C :   -0.090147
  43 C :   -0.090749
  44 C :   -0.088322
  45 C :   -0.097796
  46 H :    0.157189
  47 C :   -0.099235
  48 H :    0.156774
  49 C :   -0.148488
  50 H :    0.158566
  51 H :    0.159985
  52 C :   -0.091573
  53 C :   -0.099653
  54 C :   -0.094418
  55 C :   -0.099309
  56 H :    0.157703
  57 C :   -0.100132
  58 H :    0.155413
  59 C :   -0.149182
  60 H :    0.159653
  61 H :    0.158169
  62 C :   -0.573388
  63 C :   -0.572598
  64 C :   -0.570810
  65 F :    0.161893
  66 F :    0.144210
  67 F :    0.169733
  68 F :    0.155263
  69 F :    0.175730
  70 F :    0.150224
  71 F :    0.175680
  72 F :    0.150758
  73 F :    0.155321

  Mayer bond orders larger than 0.100000
B(  0-C ,  1-C ) :   0.9972 B(  0-C ,  5-C ) :   1.1841 B(  0-C , 18-O ) :   1.9222
B(  1-C ,  2-C ) :   1.3432 B(  1-C , 18-O ) :  -0.1273 B(  1-C , 32-C ) :   0.8627
B(  2-C ,  3-C ) :   1.2666 B(  2-C , 16-O ) :   1.0552 B(  3-C ,  4-C ) :   1.1501
B(  3-C ,  6-C ) :   1.1941 B(  4-C ,  5-C ) :   1.6290 B(  4-C , 13-H ) :   0.9602
B(  5-C , 14-H ) :   1.0074 B(  6-C ,  7-C ) :   1.1256 B(  6-C , 19-C ) :   0.6842
B(  6-C , 21-C ) :  -0.1288 B(  7-C ,  8-C ) :   1.2659 B(  7-C , 12-C ) :   1.1611
B(  8-C ,  9-C ) :   1.4286 B(  8-C , 16-O ) :   1.0703 B(  9-C , 10-C ) :   1.0822
B(  9-C , 17-O ) :  -0.1672 B(  9-C , 42-C ) :   0.8490 B( 10-C , 11-C ) :   1.0976
B( 10-C , 17-O ) :   1.9967 B( 11-C , 12-C ) :   1.5470 B( 11-C , 17-O ) :  -0.1487
B( 11-C , 52-C ) :   0.8689 B( 12-C , 15-H ) :   0.9412 B( 19-C , 20-C ) :   1.3783
B( 19-C , 21-C ) :   1.3387 B( 20-C , 22-C ) :   1.4345 B( 20-C , 23-H ) :   0.9965
B( 21-C , 24-C ) :   1.4013 B( 21-C , 29-C ) :   0.8668 B( 21-C , 30-O ) :  -0.1518
B( 22-C , 25-C ) :   1.3806 B( 22-C , 26-H ) :   0.9839 B( 24-C , 25-C ) :   1.4034
B( 24-C , 27-H ) :   0.9831 B( 25-C , 28-H ) :   0.9842 B( 29-C , 30-O ) :   1.7990
B( 29-C , 31-O ) :   1.8749 B( 30-O , 56-H ) :   0.1005 B( 32-C , 33-C ) :   1.3439
B( 32-C , 34-C ) :   1.3443 B( 33-C , 35-C ) :   1.4625 B( 33-C , 36-H ) :   0.9822
B( 34-C , 37-C ) :   1.4326 B( 34-C , 38-H ) :   0.9895 B( 35-C , 39-C ) :   1.3277
B( 35-C , 40-H ) :   0.9809 B( 37-C , 39-C ) :   1.3230 B( 37-C , 41-H ) :   0.9865
B( 39-C , 62-C ) :   1.0435 B( 42-C , 43-C ) :   1.3507 B( 42-C , 44-C ) :   1.3480
B( 43-C , 45-C ) :   1.4318 B( 43-C , 46-H ) :   0.9926 B( 44-C , 47-C ) :   1.4700
B( 44-C , 48-H ) :   0.9821 B( 45-C , 49-C ) :   1.3284 B( 45-C , 50-H ) :   0.9857
B( 47-C , 49-C ) :   1.3233 B( 47-C , 51-H ) :   0.9824 B( 49-C , 63-C ) :   1.0454
B( 52-C , 53-C ) :   1.3662 B( 52-C , 54-C ) :   1.3555 B( 53-C , 55-C ) :   1.4755
B( 53-C , 56-H ) :   0.9181 B( 54-C , 57-C ) :   1.4360 B( 54-C , 58-H ) :   0.9812
B( 55-C , 59-C ) :   1.3403 B( 55-C , 60-H ) :   0.9806 B( 57-C , 59-C ) :   1.3341
B( 57-C , 61-H ) :   0.9801 B( 59-C , 64-C ) :   1.0411 B( 62-C , 71-F ) :   1.0710
B( 62-C , 72-F ) :   1.0667 B( 62-C , 73-F ) :   1.0847 B( 63-C , 68-F ) :   1.0843
B( 63-C , 69-F ) :   1.0704 B( 63-C , 70-F ) :   1.0654 B( 64-C , 65-F ) :   1.0846
B( 64-C , 66-F ) :   1.0878 B( 64-C , 67-F ) :   1.0868

MP2 TOTAL ENERGY:    -2847.976412901 Eh

-----------------------------------------------------------------------------
         ABSORPTION SPECTRUM VIA TRANSITION ELECTRIC DIPOLE MOMENTS
-----------------------------------------------------------------------------
State   Energy    Wavelength  fosc         T2        TX        TY        TZ
        (cm-1)      (nm)                 (au**2)    (au)      (au)      (au)
-----------------------------------------------------------------------------
   1   19530.1    512.0   0.862317149  14.53576   2.48932  -2.88607   0.09819
   2   25570.6    391.1   0.210112140   2.70512   1.57577   0.46221  -0.09189
   3   25304.1    395.2   0.046144688   0.60035  -0.76336  -0.10141   0.08572
   4   28025.3    356.8   0.094260093   1.10727  -0.53321  -0.90402  -0.07550
   5   29707.3    336.6   0.316048333   3.50241  -1.44548  -1.18864  -0.01177
   6   30053.9    332.7   0.051100224   0.55976  -0.40538   0.62817  -0.02865
   7   28426.1    351.8   0.058839967   0.68144   0.81317   0.13702   0.03774
   8   27803.4    359.7   0.021198574   0.25101  -0.41178  -0.27630   0.07143
   9   27717.9    360.8   0.025999817   0.30881  -0.45924  -0.28930   0.11920
  10   33278.2    300.5   0.141921196   1.40399   1.17366   0.15163  -0.05942
  11   33121.0    301.9   0.176807373   1.75741   0.52468  -1.20062   0.20158
  12   34131.0    293.0   0.002452352   0.02365   0.10976  -0.10600   0.01929
  13   34690.5    288.3   0.010710668   0.10164   0.05141   0.31416   0.01749
  14   33562.0    298.0   0.005611270   0.05504  -0.18946   0.13485  -0.03104
  15   33370.8    299.7   0.073751860   0.72758   0.71948   0.44821   0.09511
  16   33685.1    296.9   0.039436295   0.38542  -0.59329  -0.11120   0.14514
  17   34948.3    286.1   0.016028637   0.15099  -0.38636  -0.00376   0.04123
  18   34882.9    286.7   0.061134966   0.57697  -0.46977  -0.59562  -0.03909
  19   31335.4    319.1   0.007890464   0.08290   0.13815   0.22707  -0.11070
  20   37517.1    266.5   0.301787249   2.64818   1.46432  -0.70772  -0.05550
  21   35065.7    285.2   0.046290790   0.43460   0.08339   0.65294   0.03630
  22   37159.2    269.1   0.070000575   0.62017   0.78242   0.03807   0.08091
  23   38112.6    262.4   0.021199548   0.18312   0.15367   0.12560   0.37911
  24   37710.3    265.2   0.066458433   0.58018  -0.39837  -0.49207   0.42350
  25   37544.1    266.4   0.040637054   0.35633  -0.26344  -0.53399  -0.04227
  26   37225.7    268.6   0.026687623   0.23602  -0.22251  -0.27983  -0.32894
  27   38399.7    260.4   0.046579630   0.39934   0.56761  -0.07273  -0.26808
  28   38155.8    262.1   0.053197630   0.45899  -0.33599  -0.58784  -0.02345
  29   38122.3    262.3   0.013832372   0.11945  -0.01974  -0.31298  -0.14529
  30   38016.7    263.0   0.007904179   0.06845   0.01098  -0.15833   0.20798

Dispersion correction           -0.098767244
FINAL SINGLE POINT ENERGY     -2844.801704502704

DIPOLE MOMENT
-------------
                                X             Y             Z
Electronic contribution:    -25.02335     -44.47077       0.20108
Nuclear contribution   :     23.62029      42.22749      -4.79050
                        -----------------------------------------
Total Dipole Moment    :     -1.40306      -2.24327      -4.58942
                        -----------------------------------------
Magnitude (a.u.)       :      5.29751
Magnitude (Debye)      :     13.46520

Rotational constants in cm-1:     0.002278     0.000949     0.000706
Rotational constants in MHz :    68.290480    28.462766    21.152988

                             ****ORCA TERMINATED NORMALLY****
TOTAL RUN TIME: 1 days 4 hours 53 minutes 55 seconds 750 msec
