                         Program Version 5.0.2 -  RELEASE  -
|  1> %maxcore 3200
|  2> %pal
|  3>  nprocs= 8
|  4> end
|  5> ! RI-wB2PLYP def2-TZVP def2/J def2-TZVP/C RIJCOSX CPCM TightSCF
|  6> %TDDFT DCORR 1
|  7>    NROOTS   30
|  8>   TDA      FALSE
|  9> END
| 10>
| 11>  %CPCM
| 12>    SMD          TRUE
| 13>    SMDsolvent   "ACETONITRILE"
| 14>  END
| 15>
| 16>
| 17> * xyz -2 1
| 18> C                  -2.67897200    4.34624700   -0.16924300
| 19> C                  -2.46586700    2.90864300   -0.20133500
| 20> C                  -1.17369700    2.42193300   -0.18513400
| 21> C                  -0.01410600    3.24238300   -0.18570700
| 22> C                  -0.23683500    4.64481300   -0.14138500
| 23> C                  -1.48835100    5.16623400   -0.13020500
| 24> C                   1.25499300    2.64616500   -0.19350900
| 25> C                   1.35641700    1.24406600   -0.16759300
| 26> C                   0.17868400    0.46122100   -0.08657500
| 27> C                   0.18512200   -0.91505500   -0.00743600
| 28> C                   1.44713300   -1.63392300   -0.02990500
| 29> C                   2.66346700   -0.82586600   -0.14802400
| 30> C                   2.57758400    0.53874600   -0.21132300
| 31> H                   0.62440100    5.30035600   -0.10401300
| 32> H                  -1.64018100    6.23851100   -0.08871900
| 33> H                   3.48808300    1.11428800   -0.31945600
| 34> O                  -1.03680100    1.06901700   -0.12749600
| 35> O                   1.48918400   -2.87654700    0.07950700
| 36> O                  -3.81835700    4.85935400   -0.18276500
| 37> C                   2.47499900    3.47808400   -0.29079300
| 38> C                   2.65878900    4.26262000   -1.43194500
| 39> C                   3.47261100    3.45681700    0.69702500
| 40> C                   3.79715500    5.03530400   -1.59538700
| 41> H                   1.89683800    4.25456500   -2.20309300
| 42> C                   4.61968000    4.22345000    0.50515700
| 43> C                   4.78141100    5.02011300   -0.61702500
| 44> H                   3.91570100    5.64030800   -2.48551700
| 45> H                   5.39097200    4.18654500    1.26554100
| 46> H                   5.67445900    5.62240600   -0.73271400
| 47> C                   3.32624100    2.64697100    1.97622900
| 48> O                   4.33643500    1.99081100    2.32416400
| 49> O                   2.22402100    2.73490600    2.56087400
| 50> C                  -3.63001500    2.01010700   -0.24860600
| 51> C                  -4.70258000    2.19292700    0.63275400
| 52> C                  -3.72296100    0.97456000   -1.18325200
| 53> C                  -5.81311700    1.37299700    0.58621000
| 54> H                  -4.65423300    2.98730900    1.36421700
| 55> C                  -4.83656400    0.15362500   -1.24232900
| 56> H                  -2.91537900    0.81694300   -1.88658500
| 57> C                  -5.88780300    0.35336000   -0.35816200
| 58> H                  -6.62924700    1.52354400    1.28267000
| 59> H                  -4.88919800   -0.63461500   -1.98224700
| 60> C                  -1.06465500   -1.68362500    0.11778600
| 61> C                  -2.02756000   -1.36834900    1.08017500
| 62> C                  -1.30858200   -2.78127300   -0.71601200
| 63> C                  -3.18525100   -2.11740200    1.21416900
| 64> H                  -1.86150400   -0.53194900    1.74701900
| 65> C                  -2.46404000   -3.52785900   -0.59545700
| 66> H                  -0.57780000   -3.04465000   -1.46800700
| 67> C                  -3.40443000   -3.20349800    0.37819600
| 68> H                  -3.91059600   -1.86154900    1.97594000
| 69> H                  -2.63787200   -4.37021400   -1.25416200
| 70> C                   3.98655400   -1.46390400   -0.17264700
| 71> C                   5.07989000   -0.83143300    0.43839900
| 72> C                   4.21380100   -2.68803000   -0.81358400
| 73> C                   6.34179300   -1.39321000    0.40371100
| 74> H                   4.92582500    0.10498900    0.96781500
| 75> C                   5.47687400   -3.25094500   -0.85305000
| 76> H                   3.38936600   -3.19431300   -1.29246700
| 77> C                   6.54561500   -2.60981200   -0.23950300
| 78> H                   7.17090400   -0.89230000    0.88848900
| 79> H                   5.63231500   -4.19255100   -1.36360200
| 80> C                  -7.09518600   -0.51997600   -0.37788600
| 81> C                  -4.64149200   -4.02792900    0.48361700
| 82> C                   7.91767900   -3.18671000   -0.30272200
| 83> F                   8.60106400   -3.02529000    0.84685500
| 84> F                   8.67691000   -2.60461700   -1.26294200
| 85> F                   7.92151900   -4.50206800   -0.57393000
| 86> F                  -4.37252500   -5.34998800    0.54504800
| 87> F                  -5.38050100   -3.73671400    1.56309500
| 88> F                  -5.45126900   -3.87436000   -0.59031500
| 89> F                  -7.13266100   -1.34679200   -1.43216600
| 90> F                  -7.17953700   -1.29923600    0.72567500
| 91> F                  -8.24247900    0.19200800   -0.40482500
| 92> *
| 93>
| 94>
| 95>                          ****END OF INPUT****

CARTESIAN COORDINATES (ANGSTROEM)
---------------------------------
  C     -2.678972    4.346247   -0.169243
  C     -2.465867    2.908643   -0.201335
  C     -1.173697    2.421933   -0.185134
  C     -0.014106    3.242383   -0.185707
  C     -0.236835    4.644813   -0.141385
  C     -1.488351    5.166234   -0.130205
  C      1.254993    2.646165   -0.193509
  C      1.356417    1.244066   -0.167593
  C      0.178684    0.461221   -0.086575
  C      0.185122   -0.915055   -0.007436
  C      1.447133   -1.633923   -0.029905
  C      2.663467   -0.825866   -0.148024
  C      2.577584    0.538746   -0.211323
  H      0.624401    5.300356   -0.104013
  H     -1.640181    6.238511   -0.088719
  H      3.488083    1.114288   -0.319456
  O     -1.036801    1.069017   -0.127496
  O      1.489184   -2.876547    0.079507
  O     -3.818357    4.859354   -0.182765
  C      2.474999    3.478084   -0.290793
  C      2.658789    4.262620   -1.431945
  C      3.472611    3.456817    0.697025
  C      3.797155    5.035304   -1.595387
  H      1.896838    4.254565   -2.203093
  C      4.619680    4.223450    0.505157
  C      4.781411    5.020113   -0.617025
  H      3.915701    5.640308   -2.485517
  H      5.390972    4.186545    1.265541
  H      5.674459    5.622406   -0.732714
  C      3.326241    2.646971    1.976229
  O      4.336435    1.990811    2.324164
  O      2.224021    2.734906    2.560874
  C     -3.630015    2.010107   -0.248606
  C     -4.702580    2.192927    0.632754
  C     -3.722961    0.974560   -1.183252
  C     -5.813117    1.372997    0.586210
  H     -4.654233    2.987309    1.364217
  C     -4.836564    0.153625   -1.242329
  H     -2.915379    0.816943   -1.886585
  C     -5.887803    0.353360   -0.358162
  H     -6.629247    1.523544    1.282670
  H     -4.889198   -0.634615   -1.982247
  C     -1.064655   -1.683625    0.117786
  C     -2.027560   -1.368349    1.080175
  C     -1.308582   -2.781273   -0.716012
  C     -3.185251   -2.117402    1.214169
  H     -1.861504   -0.531949    1.747019
  C     -2.464040   -3.527859   -0.595457
  H     -0.577800   -3.044650   -1.468007
  C     -3.404430   -3.203498    0.378196
  H     -3.910596   -1.861549    1.975940
  H     -2.637872   -4.370214   -1.254162
  C      3.986554   -1.463904   -0.172647
  C      5.079890   -0.831433    0.438399
  C      4.213801   -2.688030   -0.813584
  C      6.341793   -1.393210    0.403711
  H      4.925825    0.104989    0.967815
  C      5.476874   -3.250945   -0.853050
  H      3.389366   -3.194313   -1.292467
  C      6.545615   -2.609812   -0.239503
  H      7.170904   -0.892300    0.888489
  H      5.632315   -4.192551   -1.363602
  C     -7.095186   -0.519976   -0.377886
  C     -4.641492   -4.027929    0.483617
  C      7.917679   -3.186710   -0.302722
  F      8.601064   -3.025290    0.846855
  F      8.676910   -2.604617   -1.262942
  F      7.921519   -4.502068   -0.573930
  F     -4.372525   -5.349988    0.545048
  F     -5.380501   -3.736714    1.563095
  F     -5.451269   -3.874360   -0.590315
  F     -7.132661   -1.346792   -1.432166
  F     -7.179537   -1.299236    0.725675
  F     -8.242479    0.192008   -0.404825

 Total Charge           Charge          ....   -2
 Multiplicity           Mult            ....    1
 Number of Electrons    NEL             ....  388
 Basis Dimension        Dim             .... 1819

ORBITAL ENERGIES
----------------

  NO   OCC          E(Eh)            E(eV)
   0   2.0000     -25.468257      -693.0265
   1   2.0000     -25.467966      -693.0186
   2   2.0000     -25.467556      -693.0074
   3   2.0000     -25.465312      -692.9464
   4   2.0000     -25.463733      -692.9034
   5   2.0000     -25.463385      -692.8939
   6   2.0000     -25.462054      -692.8577
   7   2.0000     -25.461645      -692.8466
   8   2.0000     -25.461436      -692.8409
   9   2.0000     -19.859809      -540.4129
  10   2.0000     -19.728980      -536.8528
  11   2.0000     -19.728951      -536.8520
  12   2.0000     -19.710327      -536.3453
  13   2.0000     -19.709851      -536.3323
  14   2.0000     -10.948161      -297.9146
  15   2.0000     -10.948049      -297.9115
  16   2.0000     -10.947747      -297.9033
  17   2.0000     -10.771095      -293.0964
  18   2.0000     -10.769137      -293.0431
  19   2.0000     -10.758913      -292.7649
  20   2.0000     -10.749928      -292.5204
  21   2.0000     -10.746485      -292.4267
  22   2.0000     -10.739620      -292.2399
  23   2.0000     -10.705404      -291.3089
  24   2.0000     -10.705304      -291.3061
  25   2.0000     -10.704876      -291.2945
  26   2.0000     -10.701430      -291.2007
  27   2.0000     -10.701110      -291.1920
  28   2.0000     -10.700756      -291.1824
  29   2.0000     -10.699949      -291.1604
  30   2.0000     -10.694192      -291.0038
  31   2.0000     -10.694053      -291.0000
  32   2.0000     -10.693770      -290.9923
  33   2.0000     -10.693707      -290.9906
  34   2.0000     -10.693579      -290.9871
  35   2.0000     -10.693339      -290.9806
  36   2.0000     -10.693228      -290.9775
  37   2.0000     -10.693171      -290.9760
  38   2.0000     -10.687332      -290.8171
  39   2.0000     -10.686854      -290.8041
  40   2.0000     -10.686837      -290.8036
  41   2.0000     -10.685098      -290.7563
  42   2.0000     -10.684226      -290.7326
  43   2.0000     -10.684082      -290.7287
  44   2.0000     -10.683566      -290.7146
  45   2.0000     -10.683505      -290.7130
  46   2.0000     -10.683356      -290.7089
  47   2.0000     -10.681816      -290.6670
  48   2.0000     -10.681287      -290.6526
  49   2.0000     -10.681145      -290.6487
  50   2.0000     -10.679625      -290.6074
  51   2.0000     -10.679014      -290.5907
  52   2.0000     -10.673225      -290.4332
  53   2.0000     -10.672893      -290.4242
  54   2.0000     -10.665250      -290.2162
  55   2.0000      -1.568623       -42.6844
  56   2.0000      -1.568470       -42.6802
  57   2.0000      -1.567891       -42.6645
  58   2.0000      -1.476369       -40.1740
  59   2.0000      -1.476201       -40.1695
  60   2.0000      -1.475827       -40.1593
  61   2.0000      -1.469945       -39.9992
  62   2.0000      -1.469897       -39.9979
  63   2.0000      -1.469353       -39.9831
  64   2.0000      -1.337634       -36.3989
  65   2.0000      -1.230377       -33.4803
  66   2.0000      -1.213004       -33.0075
  67   2.0000      -1.209226       -32.9047
  68   2.0000      -1.133088       -30.8329
  69   2.0000      -1.087118       -29.5820
  70   2.0000      -1.083165       -29.4744
  71   2.0000      -1.080546       -29.4032
  72   2.0000      -1.079620       -29.3780
  73   2.0000      -1.059907       -28.8415
  74   2.0000      -1.053079       -28.6557
  75   2.0000      -1.010029       -27.4843
  76   2.0000      -1.004125       -27.3236
  77   2.0000      -0.990758       -26.9599
  78   2.0000      -0.973422       -26.4881
  79   2.0000      -0.954489       -25.9730
  80   2.0000      -0.944645       -25.7051
  81   2.0000      -0.943529       -25.6747
  82   2.0000      -0.943213       -25.6661
  83   2.0000      -0.940927       -25.6039
  84   2.0000      -0.934051       -25.4168
  85   2.0000      -0.928161       -25.2566
  86   2.0000      -0.911774       -24.8106
  87   2.0000      -0.887159       -24.1408
  88   2.0000      -0.879547       -23.9337
  89   2.0000      -0.874860       -23.8061
  90   2.0000      -0.828775       -22.5521
  91   2.0000      -0.824420       -22.4336
  92   2.0000      -0.812399       -22.1065
  93   2.0000      -0.804583       -21.8938
  94   2.0000      -0.794370       -21.6159
  95   2.0000      -0.792397       -21.5622
  96   2.0000      -0.790440       -21.5090
  97   2.0000      -0.785037       -21.3620
  98   2.0000      -0.780803       -21.2467
  99   2.0000      -0.774783       -21.0829
 100   2.0000      -0.763377       -20.7725
 101   2.0000      -0.762303       -20.7433
 102   2.0000      -0.760931       -20.7060
 103   2.0000      -0.755414       -20.5559
 104   2.0000      -0.753038       -20.4912
 105   2.0000      -0.751798       -20.4575
 106   2.0000      -0.744275       -20.2527
 107   2.0000      -0.742108       -20.1938
 108   2.0000      -0.726168       -19.7600
 109   2.0000      -0.724572       -19.7166
 110   2.0000      -0.721919       -19.6444
 111   2.0000      -0.698575       -19.0092
 112   2.0000      -0.689375       -18.7588
 113   2.0000      -0.684874       -18.6364
 114   2.0000      -0.670011       -18.2319
 115   2.0000      -0.655971       -17.8499
 116   2.0000      -0.650586       -17.7033
 117   2.0000      -0.648536       -17.6476
 118   2.0000      -0.647740       -17.6259
 119   2.0000      -0.646522       -17.5928
 120   2.0000      -0.645037       -17.5523
 121   2.0000      -0.642970       -17.4961
 122   2.0000      -0.634671       -17.2703
 123   2.0000      -0.627844       -17.0845
 124   2.0000      -0.626004       -17.0344
 125   2.0000      -0.623240       -16.9592
 126   2.0000      -0.618439       -16.8286
 127   2.0000      -0.612073       -16.6553
 128   2.0000      -0.609811       -16.5938
 129   2.0000      -0.605723       -16.4826
 130   2.0000      -0.603491       -16.4218
 131   2.0000      -0.601911       -16.3788
 132   2.0000      -0.601165       -16.3585
 133   2.0000      -0.600480       -16.3399
 134   2.0000      -0.596877       -16.2418
 135   2.0000      -0.596542       -16.2327
 136   2.0000      -0.592324       -16.1180
 137   2.0000      -0.591361       -16.0918
 138   2.0000      -0.589300       -16.0357
 139   2.0000      -0.586219       -15.9518
 140   2.0000      -0.584444       -15.9035
 141   2.0000      -0.583543       -15.8790
 142   2.0000      -0.582657       -15.8549
 143   2.0000      -0.580427       -15.7942
 144   2.0000      -0.580336       -15.7917
 145   2.0000      -0.575900       -15.6710
 146   2.0000      -0.568035       -15.4570
 147   2.0000      -0.565288       -15.3823
 148   2.0000      -0.558216       -15.1898
 149   2.0000      -0.556176       -15.1343
 150   2.0000      -0.555246       -15.1090
 151   2.0000      -0.554177       -15.0799
 152   2.0000      -0.546973       -14.8839
 153   2.0000      -0.546454       -14.8698
 154   2.0000      -0.539847       -14.6900
 155   2.0000      -0.536517       -14.5994
 156   2.0000      -0.532475       -14.4894
 157   2.0000      -0.523187       -14.2366
 158   2.0000      -0.519688       -14.1414
 159   2.0000      -0.518374       -14.1057
 160   2.0000      -0.511720       -13.9246
 161   2.0000      -0.507919       -13.8212
 162   2.0000      -0.501809       -13.6549
 163   2.0000      -0.498996       -13.5784
 164   2.0000      -0.498642       -13.5687
 165   2.0000      -0.494555       -13.4575
 166   2.0000      -0.489263       -13.3135
 167   2.0000      -0.487823       -13.2744
 168   2.0000      -0.480320       -13.0702
 169   2.0000      -0.474821       -12.9205
 170   2.0000      -0.472535       -12.8583
 171   2.0000      -0.470442       -12.8014
 172   2.0000      -0.469375       -12.7723
 173   2.0000      -0.466911       -12.7053
 174   2.0000      -0.458084       -12.4651
 175   2.0000      -0.445249       -12.1158
 176   2.0000      -0.438866       -11.9421
 177   2.0000      -0.393404       -10.7051
 178   2.0000      -0.375115       -10.2074
 179   2.0000      -0.371610       -10.1120
 180   2.0000      -0.368895       -10.0381
 181   2.0000      -0.368214       -10.0196
 182   2.0000      -0.364384        -9.9154
 183   2.0000      -0.358388        -9.7522
 184   2.0000      -0.354507        -9.6466
 185   2.0000      -0.352829        -9.6010
 186   2.0000      -0.348511        -9.4835
 187   2.0000      -0.346475        -9.4281
 188   2.0000      -0.343497        -9.3470
 189   2.0000      -0.335529        -9.1302
 190   2.0000      -0.328975        -8.9519
 191   2.0000      -0.314707        -8.5636
 192   2.0000      -0.295280        -8.0350
 193   2.0000      -0.249167        -6.7802
 194   0.0000       0.009838         0.2677
 195   0.0000       0.051201         1.3932
 196   0.0000       0.060353         1.6423
 197   0.0000       0.069132         1.8812
 198   0.0000       0.084579         2.3015

MULLIKEN ATOMIC CHARGES
-----------------------
   0 C :    0.283794
   1 C :   -0.144600
   2 C :    0.282123
   3 C :    0.036255
   4 C :   -0.220146
   5 C :   -0.356092
   6 C :    0.355642
   7 C :    0.072309
   8 C :    0.281855
   9 C :   -0.107895
  10 C :    0.234073
  11 C :   -0.002459
  12 C :   -0.299416
  13 H :    0.200298
  14 H :    0.146291
  15 H :    0.231737
  16 O :   -0.270748
  17 O :   -0.524469
  18 O :   -0.530782
  19 C :   -0.033605
  20 C :   -0.338677
  21 C :   -0.117052
  22 C :   -0.156275
  23 H :    0.184101
  24 C :   -0.196449
  25 C :   -0.192723
  26 H :    0.179294
  27 H :    0.169877
  28 H :    0.177990
  29 C :    0.280524
  30 O :   -0.563649
  31 O :   -0.557793
  32 C :    0.090081
  33 C :   -0.212677
  34 C :   -0.223411
  35 C :   -0.240025
  36 H :    0.170032
  37 C :   -0.228053
  38 H :    0.175990
  39 C :    0.043597
  40 H :    0.188813
  41 H :    0.188355
  42 C :    0.030852
  43 C :   -0.235429
  44 C :   -0.216810
  45 C :   -0.229094
  46 H :    0.177074
  47 C :   -0.242740
  48 H :    0.172848
  49 C :    0.048013
  50 H :    0.188650
  51 H :    0.188173
  52 C :    0.073417
  53 C :   -0.251580
  54 C :   -0.228932
  55 C :   -0.241558
  56 H :    0.179397
  57 C :   -0.214510
  58 H :    0.170694
  59 C :    0.041035
  60 H :    0.188252
  61 H :    0.188777
  62 C :    0.576387
  63 C :    0.577178
  64 C :    0.557155
  65 F :   -0.215486
  66 F :   -0.218918
  67 F :   -0.212643
  68 F :   -0.217869
  69 F :   -0.215065
  70 F :   -0.220921
  71 F :   -0.214776
  72 F :   -0.220247
  73 F :   -0.217359
Sum of atomic charges:   -2.0000000

LOEWDIN ATOMIC CHARGES
----------------------
   0 C :   -0.323033
   1 C :   -0.102823
   2 C :   -0.118984
   3 C :   -0.120926
   4 C :   -0.090283
   5 C :   -0.156185
   6 C :    0.039187
   7 C :   -0.117712
   8 C :   -0.122820
   9 C :   -0.099910
  10 C :   -0.277910
  11 C :   -0.105040
  12 C :   -0.035314
  13 H :    0.167810
  14 H :    0.149800
  15 H :    0.175965
  16 O :    0.373591
  17 O :   -0.044980
  18 O :   -0.067202
  19 C :   -0.071698
  20 C :   -0.100669
  21 C :   -0.080603
  22 C :   -0.150780
  23 H :    0.163671
  24 C :   -0.115595
  25 C :   -0.144527
  26 H :    0.155103
  27 H :    0.157451
  28 H :    0.154861
  29 C :   -0.617111
  30 O :   -0.120582
  31 O :   -0.107986
  32 C :   -0.093248
  33 C :   -0.091963
  34 C :   -0.095138
  35 C :   -0.100300
  36 H :    0.160717
  37 C :   -0.100623
  38 H :    0.161009
  39 C :   -0.152469
  40 H :    0.164647
  41 H :    0.162895
  42 C :   -0.092412
  43 C :   -0.094910
  44 C :   -0.091871
  45 C :   -0.100363
  46 H :    0.161294
  47 C :   -0.100867
  48 H :    0.160838
  49 C :   -0.152074
  50 H :    0.162859
  51 H :    0.164532
  52 C :   -0.092627
  53 C :   -0.103151
  54 C :   -0.098341
  55 C :   -0.100601
  56 H :    0.160141
  57 C :   -0.101491
  58 H :    0.159238
  59 C :   -0.152696
  60 H :    0.164147
  61 H :    0.162499
  62 C :   -0.581995
  63 C :   -0.581212
  64 C :   -0.579103
  65 F :    0.165091
  66 F :    0.147460
  67 F :    0.172913
  68 F :    0.158631
  69 F :    0.178917
  70 F :    0.153390
  71 F :    0.178870
  72 F :    0.153914
  73 F :    0.158688

  Mayer bond orders larger than 0.100000
B(  0-C ,  1-C ) :   1.0026 B(  0-C ,  5-C ) :   1.1839 B(  0-C , 18-O ) :   1.9638
B(  1-C ,  2-C ) :   1.3660 B(  1-C , 18-O ) :  -0.1269 B(  1-C , 32-C ) :   0.8648
B(  2-C ,  3-C ) :   1.2590 B(  2-C , 16-O ) :   1.0608 B(  3-C ,  4-C ) :   1.1386
B(  3-C ,  6-C ) :   1.2299 B(  4-C ,  5-C ) :   1.6550 B(  4-C , 13-H ) :   0.9444
B(  5-C , 14-H ) :   0.9943 B(  6-C ,  7-C ) :   1.1552 B(  6-C , 19-C ) :   0.7202
B(  6-C , 21-C ) :  -0.1070 B(  7-C ,  8-C ) :   1.2638 B(  7-C , 12-C ) :   1.1612
B(  8-C ,  9-C ) :   1.4421 B(  8-C , 16-O ) :   1.0751 B(  9-C , 10-C ) :   1.0883
B(  9-C , 17-O ) :  -0.1686 B(  9-C , 42-C ) :   0.8568 B( 10-C , 11-C ) :   1.0930
B( 10-C , 17-O ) :   2.0355 B( 11-C , 12-C ) :   1.5710 B( 11-C , 17-O ) :  -0.1486
B( 11-C , 52-C ) :   0.8724 B( 12-C , 15-H ) :   0.9202 B( 19-C , 20-C ) :   1.3892
B( 19-C , 21-C ) :   1.3378 B( 20-C , 22-C ) :   1.4413 B( 20-C , 23-H ) :   0.9799
B( 21-C , 24-C ) :   1.4144 B( 21-C , 29-C ) :   0.8753 B( 21-C , 30-O ) :  -0.1432
B( 22-C , 25-C ) :   1.3894 B( 22-C , 26-H ) :   0.9763 B( 24-C , 25-C ) :   1.4116
B( 24-C , 27-H ) :   0.9708 B( 25-C , 28-H ) :   0.9768 B( 29-C , 30-O ) :   1.8184
B( 29-C , 31-O ) :   1.9040 B( 30-O , 56-H ) :   0.1102 B( 32-C , 33-C ) :   1.3488
B( 32-C , 34-C ) :   1.3462 B( 33-C , 35-C ) :   1.4780 B( 33-C , 36-H ) :   0.9703
B( 34-C , 37-C ) :   1.4426 B( 34-C , 38-H ) :   0.9831 B( 35-C , 39-C ) :   1.3340
B( 35-C , 40-H ) :   0.9643 B( 37-C , 39-C ) :   1.3237 B( 37-C , 41-H ) :   0.9759
B( 39-C , 62-C ) :   1.0444 B( 42-C , 43-C ) :   1.3498 B( 42-C , 44-C ) :   1.3516
B( 43-C , 45-C ) :   1.4425 B( 43-C , 46-H ) :   0.9856 B( 44-C , 47-C ) :   1.4850
B( 44-C , 48-H ) :   0.9695 B( 45-C , 49-C ) :   1.3295 B( 45-C , 50-H ) :   0.9745
B( 47-C , 49-C ) :   1.3288 B( 47-C , 51-H ) :   0.9658 B( 49-C , 63-C ) :   1.0460
B( 52-C , 53-C ) :   1.3710 B( 52-C , 54-C ) :   1.3628 B( 53-C , 55-C ) :   1.4941
B( 53-C , 56-H ) :   0.9136 B( 54-C , 57-C ) :   1.4544 B( 54-C , 58-H ) :   0.9690
B( 55-C , 59-C ) :   1.3508 B( 55-C , 60-H ) :   0.9622 B( 57-C , 59-C ) :   1.3427
B( 57-C , 61-H ) :   0.9644 B( 59-C , 64-C ) :   1.0411 B( 62-C , 71-F ) :   1.0929
B( 62-C , 72-F ) :   1.0889 B( 62-C , 73-F ) :   1.1060 B( 63-C , 68-F ) :   1.1055
B( 63-C , 69-F ) :   1.0923 B( 63-C , 70-F ) :   1.0877 B( 64-C , 65-F ) :   1.1045
B( 64-C , 66-F ) :   1.1078 B( 64-C , 67-F ) :   1.1058

MP2 TOTAL ENERGY:    -2845.290474012 Eh

-----------------------------------------------------------------------------
         ABSORPTION SPECTRUM VIA TRANSITION ELECTRIC DIPOLE MOMENTS
-----------------------------------------------------------------------------
State   Energy    Wavelength  fosc         T2        TX        TY        TZ
        (cm-1)      (nm)                 (au**2)    (au)      (au)      (au)
-----------------------------------------------------------------------------
   1   21601.3    462.9   0.990059780  15.08888   2.51258  -2.96058   0.10388
   2   30237.1    330.7   0.285517977   3.10863   1.70278   0.44547  -0.10359
   3   32134.9    311.2   0.021455536   0.21981  -0.03215   0.45425   0.11149
   4   32648.4    306.3   0.082901024   0.83594   0.66744   0.62384   0.03587
   5   36462.3    274.3   0.661214624   5.96999  -1.72992  -1.72525   0.02935
   6   36658.8    272.8   0.152482175   1.36936  -1.07692   0.45568  -0.04428
   7   35778.5    279.5   0.179438992   1.65109   1.24472   0.31889   0.00860
   8   35359.0    282.8   0.008797272   0.08191  -0.23501  -0.16105   0.02722
   9   39116.8    255.6   0.017329505   0.14585   0.34821  -0.03091   0.15376
  10   38649.7    258.7   0.109714429   0.93453   0.77375   0.49869  -0.29522
  11   40046.5    249.7   0.003809893   0.03132  -0.05819   0.00773   0.16696
  12   40392.2    247.6   0.002700237   0.02201  -0.05994  -0.05279  -0.12501
  13   40404.5    247.5   0.003715068   0.03027   0.12174  -0.09451   0.08073
  14   40717.8    245.6   0.224687873   1.81665  -1.30643   0.33054  -0.02545
  15   41263.5    242.3   0.156674439   1.24999   0.23546  -1.09097   0.06590
  16   42528.3    235.1   0.086931452   0.67294  -0.61198  -0.49255   0.23623
  17   41768.9    239.4   0.146818631   1.15719  -0.73027   0.78615  -0.07659
  18   43382.8    230.5   0.055531928   0.42141   0.10153   0.51021  -0.38830
  19   43521.2    229.8   0.044676403   0.33795  -0.56160   0.14891  -0.01948
  20   43641.7    229.1   0.010322899   0.07787   0.01589  -0.27112  -0.06414
  21   44434.0    225.1   0.003086644   0.02287  -0.03160   0.03038  -0.14473
  22   45131.2    221.6   0.037736442   0.27527   0.14265   0.50276   0.04647
  23   43812.3    228.2   0.047435740   0.35644  -0.15561  -0.38476   0.42917
  24   45533.8    219.6   0.313814152   2.26889   0.11573  -1.16682  -0.94553
  25   45090.3    221.8   0.150274721   1.09718  -1.02060   0.23272   0.03729
  26   46203.0    216.4   0.092512757   0.65918   0.79172   0.02675  -0.17789
  27   47818.9    209.1   0.087755436   0.60416  -0.38138   0.67231   0.08193
  28   47530.6    210.4   0.054690133   0.37880  -0.30472   0.52877   0.07971
  29   42946.3    232.8   0.000267943   0.00205   0.02440   0.00371  -0.03801
  30   46843.9    213.5   0.077064431   0.54160  -0.53159  -0.50636   0.05103

FINAL SINGLE POINT ENERGY     -2842.291671765840

DIPOLE MOMENT
-------------
                                X             Y             Z
Electronic contribution:    -24.88459     -44.33147       0.13613
Nuclear contribution   :     23.62029      42.22749      -4.79050
                        -----------------------------------------
Total Dipole Moment    :     -1.26430      -2.10398      -4.65437
                        -----------------------------------------
Magnitude (a.u.)       :      5.26197
Magnitude (Debye)      :     13.37486

Rotational constants in cm-1:     0.002278     0.000949     0.000706
Rotational constants in MHz :    68.290480    28.462766    21.152988

                             ****ORCA TERMINATED NORMALLY****
TOTAL RUN TIME: 0 days 22 hours 46 minutes 43 seconds 117 msec
