                         Program Version 5.0.2 -  RELEASE  -
|  1> %maxcore 9600
|  2> %pal
|  3>  nprocs= 12
|  4> end
|  5> ! RI-B2GP-PLYP   def2-TZVP def2/J def2-TZVP/C RIJCOSX CPCM TightSCF
|  6> %TDDFT
|  7>    NROOTS   30
|  8>    dcorr 4
|  9>    TDA      FALSE
| 10> END
| 11>
| 12>  %CPCM
| 13>    SMD          TRUE
| 14>    SMDsolvent   "ACETONITRILE"
| 15>  END
| 16>
| 17>
| 18> * xyz -1 1
| 19> C                  -2.68112800    4.35468400   -0.29624100
| 20> C                  -2.46638500    2.91647300   -0.29316200
| 21> C                  -1.17434900    2.43225800   -0.27283500
| 22> C                  -0.01619000    3.25573100   -0.29227000
| 23> C                  -0.23995300    4.65902000   -0.28380400
| 24> C                  -1.49181400    5.17833400   -0.28451800
| 25> C                   1.25145600    2.66180900   -0.27740100
| 26> C                   1.35977700    1.26127800   -0.22155000
| 27> C                   0.18345300    0.47708800   -0.12872000
| 28> C                   0.19354300   -0.89658900   -0.01441500
| 29> C                   1.45793900   -1.61106500   -0.00849200
| 30> C                   2.67266500   -0.80277300   -0.14187200
| 31> C                   2.58430800    0.55968200   -0.23874700
| 32> H                   0.62045500    5.31656400   -0.26601500
| 33> H                  -1.64622200    6.25090200   -0.27252400
| 34> H                   3.49458900    1.13360400   -0.36137300
| 35> O                  -1.03310700    1.08102900   -0.18618800
| 36> O                   1.50541700   -2.84929500    0.13859500
| 37> O                  -3.82076100    4.86513800   -0.31508400
| 38> C                   2.47273600    3.49384400   -0.36190800
| 39> C                   2.69883400    4.23995900   -1.51950500
| 40> C                   3.44361800    3.50094300    0.65171600
| 41> C                   3.85366200    4.98950200   -1.67470000
| 42> H                   1.95893500    4.21651800   -2.31090400
| 43> C                   4.60885400    4.24115100    0.47221100
| 44> C                   4.81337300    4.99253300   -0.67304700
| 45> H                   4.00503700    5.56296000   -2.58045400
| 46> H                   5.35364300    4.22379200    1.25827700
| 47> H                   5.71936700    5.57461700   -0.78646100
| 48> C                   3.25485300    2.74620200    1.94076200
| 49> O                   4.26264600    2.16215400    2.42321100
| 50> O                   2.11324100    2.75797000    2.47071000
| 51> C                  -3.63010000    2.01597500   -0.30242700
| 52> C                  -4.68912700    2.22171200    0.58946600
| 53> C                  -3.73405500    0.95475000   -1.20658500
| 54> C                  -5.79890500    1.39914700    0.58280800
| 55> H                  -4.63139500    3.03644900    1.29752500
| 56> C                  -4.84641100    0.13003900   -1.22486100
| 57> H                  -2.93582100    0.77764400   -1.91595500
| 58> C                  -5.88562400    0.35412800   -0.33157900
| 59> H                  -6.60450700    1.56864900    1.28680700
| 60> H                  -4.90752300   -0.68352200   -1.93678100
| 61> C                  -1.05499400   -1.66637300    0.12151500
| 62> C                  -2.02167300   -1.33450000    1.07464700
| 63> C                  -1.29313800   -2.77983400   -0.69190800
| 64> C                  -3.17891600   -2.08171300    1.21766200
| 65> H                  -1.85939100   -0.48509200    1.72588700
| 66> C                  -2.44855700   -3.52574200   -0.56201100
| 67> H                  -0.55954000   -3.05617800   -1.43648900
| 68> C                  -3.39267700   -3.18414200    0.40154400
| 69> H                  -3.91028000   -1.81061100    1.96826300
| 70> H                  -2.61863000   -4.38023100   -1.20556200
| 71> C                   3.99474900   -1.44309900   -0.15135800
| 72> C                   5.08770600   -0.80947800    0.45258100
| 73> C                   4.21957300   -2.67704800   -0.77819600
| 74> C                   6.35152800   -1.37316400    0.42994400
| 75> H                   4.93850500    0.13445000    0.96641800
| 76> C                   5.47982200   -3.24094700   -0.80682600
| 77> H                   3.39494000   -3.18538400   -1.25482000
| 78> C                   6.55223000   -2.59330500   -0.19998700
| 79> H                   7.17820300   -0.86699200    0.91047700
| 80> H                   5.63668800   -4.18961400   -1.30661300
| 81> C                  -7.08497800   -0.53032900   -0.30357300
| 82> C                  -4.63860500   -3.99472000    0.51110700
| 83> C                   7.89544300   -3.23796600   -0.23299000
| 84> F                   8.85063900   -2.49701700    0.34675200
| 85> F                   8.31390400   -3.48907800   -1.49318500
| 86> F                   7.90463900   -4.43557600    0.39533800
| 87> F                  -4.39417900   -5.32032900    0.45561000
| 88> F                  -5.31171900   -3.77545300    1.64995800
| 89> F                  -5.50260900   -3.74185300   -0.49977000
| 90> F                  -7.20423100   -1.29237500   -1.40047400
| 91> F                  -7.07063800   -1.37756500    0.75233200
| 92> F                  -8.23395800    0.16792900   -0.19059600
| 93> Na                  2.92809000    1.39962500    4.10281200
| 94> *
| 95>
| 96>
| 97>
| 98>                          ****END OF INPUT****

CARTESIAN COORDINATES (ANGSTROEM)
---------------------------------
  C     -2.681128    4.354684   -0.296241
  C     -2.466385    2.916473   -0.293162
  C     -1.174349    2.432258   -0.272835
  C     -0.016190    3.255731   -0.292270
  C     -0.239953    4.659020   -0.283804
  C     -1.491814    5.178334   -0.284518
  C      1.251456    2.661809   -0.277401
  C      1.359777    1.261278   -0.221550
  C      0.183453    0.477088   -0.128720
  C      0.193543   -0.896589   -0.014415
  C      1.457939   -1.611065   -0.008492
  C      2.672665   -0.802773   -0.141872
  C      2.584308    0.559682   -0.238747
  H      0.620455    5.316564   -0.266015
  H     -1.646222    6.250902   -0.272524
  H      3.494589    1.133604   -0.361373
  O     -1.033107    1.081029   -0.186188
  O      1.505417   -2.849295    0.138595
  O     -3.820761    4.865138   -0.315084
  C      2.472736    3.493844   -0.361908
  C      2.698834    4.239959   -1.519505
  C      3.443618    3.500943    0.651716
  C      3.853662    4.989502   -1.674700
  H      1.958935    4.216518   -2.310904
  C      4.608854    4.241151    0.472211
  C      4.813373    4.992533   -0.673047
  H      4.005037    5.562960   -2.580454
  H      5.353643    4.223792    1.258277
  H      5.719367    5.574617   -0.786461
  C      3.254853    2.746202    1.940762
  O      4.262646    2.162154    2.423211
  O      2.113241    2.757970    2.470710
  C     -3.630100    2.015975   -0.302427
  C     -4.689127    2.221712    0.589466
  C     -3.734055    0.954750   -1.206585
  C     -5.798905    1.399147    0.582808
  H     -4.631395    3.036449    1.297525
  C     -4.846411    0.130039   -1.224861
  H     -2.935821    0.777644   -1.915955
  C     -5.885624    0.354128   -0.331579
  H     -6.604507    1.568649    1.286807
  H     -4.907523   -0.683522   -1.936781
  C     -1.054994   -1.666373    0.121515
  C     -2.021673   -1.334500    1.074647
  C     -1.293138   -2.779834   -0.691908
  C     -3.178916   -2.081713    1.217662
  H     -1.859391   -0.485092    1.725887
  C     -2.448557   -3.525742   -0.562011
  H     -0.559540   -3.056178   -1.436489
  C     -3.392677   -3.184142    0.401544
  H     -3.910280   -1.810611    1.968263
  H     -2.618630   -4.380231   -1.205562
  C      3.994749   -1.443099   -0.151358
  C      5.087706   -0.809478    0.452581
  C      4.219573   -2.677048   -0.778196
  C      6.351528   -1.373164    0.429944
  H      4.938505    0.134450    0.966418
  C      5.479822   -3.240947   -0.806826
  H      3.394940   -3.185384   -1.254820
  C      6.552230   -2.593305   -0.199987
  H      7.178203   -0.866992    0.910477
  H      5.636688   -4.189614   -1.306613
  C     -7.084978   -0.530329   -0.303573
  C     -4.638605   -3.994720    0.511107
  C      7.895443   -3.237966   -0.232990
  F      8.850639   -2.497017    0.346752
  F      8.313904   -3.489078   -1.493185
  F      7.904639   -4.435576    0.395338
  F     -4.394179   -5.320329    0.455610
  F     -5.311719   -3.775453    1.649958
  F     -5.502609   -3.741853   -0.499770
  F     -7.204231   -1.292375   -1.400474
  F     -7.070638   -1.377565    0.752332
  F     -8.233958    0.167929   -0.190596
  Na     2.928090    1.399625    4.102812

 Total Charge           Charge          ....   -1
 Multiplicity           Mult            ....    1
 Number of Electrons    NEL             ....  398
 Basis Dimension        Dim             .... 1851

ORBITAL ENERGIES
----------------

  NO   OCC          E(Eh)            E(eV)
   0   2.0000     -39.599701     -1077.5627
   1   2.0000     -25.638748      -697.6658
   2   2.0000     -25.636797      -697.6127
   3   2.0000     -25.636628      -697.6081
   4   2.0000     -25.633437      -697.5213
   5   2.0000     -25.633413      -697.5206
   6   2.0000     -25.633382      -697.5198
   7   2.0000     -25.632842      -697.5051
   8   2.0000     -25.630218      -697.4337
   9   2.0000     -25.630145      -697.4317
  10   2.0000     -20.003604      -544.3257
  11   2.0000     -19.887592      -541.1689
  12   2.0000     -19.887112      -541.1558
  13   2.0000     -19.873822      -540.7942
  14   2.0000     -19.873734      -540.7918
  15   2.0000     -11.040630      -300.4308
  16   2.0000     -11.039173      -300.3912
  17   2.0000     -11.039089      -300.3889
  18   2.0000     -10.881029      -296.0879
  19   2.0000     -10.861090      -295.5453
  20   2.0000     -10.859611      -295.5050
  21   2.0000     -10.840594      -294.9876
  22   2.0000     -10.836926      -294.8877
  23   2.0000     -10.829150      -294.6762
  24   2.0000     -10.797770      -293.8223
  25   2.0000     -10.795753      -293.7674
  26   2.0000     -10.794865      -293.7432
  27   2.0000     -10.794708      -293.7389
  28   2.0000     -10.792302      -293.6735
  29   2.0000     -10.791198      -293.6434
  30   2.0000     -10.791141      -293.6419
  31   2.0000     -10.787705      -293.5484
  32   2.0000     -10.785833      -293.4974
  33   2.0000     -10.784814      -293.4697
  34   2.0000     -10.784792      -293.4691
  35   2.0000     -10.784132      -293.4512
  36   2.0000     -10.784113      -293.4506
  37   2.0000     -10.783905      -293.4450
  38   2.0000     -10.783571      -293.4359
  39   2.0000     -10.783416      -293.4317
  40   2.0000     -10.781203      -293.3714
  41   2.0000     -10.779741      -293.3317
  42   2.0000     -10.778825      -293.3067
  43   2.0000     -10.778515      -293.2983
  44   2.0000     -10.778363      -293.2942
  45   2.0000     -10.777292      -293.2650
  46   2.0000     -10.774729      -293.1953
  47   2.0000     -10.774581      -293.1913
  48   2.0000     -10.774337      -293.1846
  49   2.0000     -10.774110      -293.1785
  50   2.0000     -10.773772      -293.1692
  51   2.0000     -10.773552      -293.1633
  52   2.0000     -10.771669      -293.1120
  53   2.0000     -10.765142      -292.9344
  54   2.0000     -10.765035      -292.9315
  55   2.0000     -10.757130      -292.7164
  56   2.0000      -2.531692       -68.8908
  57   2.0000      -1.550741       -42.1978
  58   2.0000      -1.549688       -42.1691
  59   2.0000      -1.548908       -42.1479
  60   2.0000      -1.459820       -39.7237
  61   2.0000      -1.458603       -39.6906
  62   2.0000      -1.458243       -39.6808
  63   2.0000      -1.453533       -39.5527
  64   2.0000      -1.452406       -39.5220
  65   2.0000      -1.451791       -39.5052
  66   2.0000      -1.347689       -36.6725
  67   2.0000      -1.346917       -36.6515
  68   2.0000      -1.345970       -36.6257
  69   2.0000      -1.311741       -35.6943
  70   2.0000      -1.239175       -33.7197
  71   2.0000      -1.187405       -32.3109
  72   2.0000      -1.183734       -32.2110
  73   2.0000      -1.136832       -30.9348
  74   2.0000      -1.056282       -28.7429
  75   2.0000      -1.048442       -28.5296
  76   2.0000      -1.046002       -28.4632
  77   2.0000      -1.045085       -28.4382
  78   2.0000      -1.025054       -27.8931
  79   2.0000      -1.022135       -27.8137
  80   2.0000      -0.975404       -26.5421
  81   2.0000      -0.968654       -26.3584
  82   2.0000      -0.955167       -25.9914
  83   2.0000      -0.938706       -25.5435
  84   2.0000      -0.918783       -25.0014
  85   2.0000      -0.914494       -24.8847
  86   2.0000      -0.908653       -24.7257
  87   2.0000      -0.908279       -24.7155
  88   2.0000      -0.907082       -24.6830
  89   2.0000      -0.901906       -24.5421
  90   2.0000      -0.892545       -24.2874
  91   2.0000      -0.876443       -23.8492
  92   2.0000      -0.850892       -23.1539
  93   2.0000      -0.843191       -22.9444
  94   2.0000      -0.838758       -22.8238
  95   2.0000      -0.794135       -21.6095
  96   2.0000      -0.787313       -21.4239
  97   2.0000      -0.774495       -21.0751
  98   2.0000      -0.766439       -20.8559
  99   2.0000      -0.759200       -20.6589
 100   2.0000      -0.753587       -20.5062
 101   2.0000      -0.752598       -20.4792
 102   2.0000      -0.751577       -20.4515
 103   2.0000      -0.745806       -20.2944
 104   2.0000      -0.738243       -20.0886
 105   2.0000      -0.724894       -19.7254
 106   2.0000      -0.724201       -19.7065
 107   2.0000      -0.721047       -19.6207
 108   2.0000      -0.717984       -19.5373
 109   2.0000      -0.715228       -19.4623
 110   2.0000      -0.712852       -19.3977
 111   2.0000      -0.710071       -19.3220
 112   2.0000      -0.705725       -19.2038
 113   2.0000      -0.687847       -18.7173
 114   2.0000      -0.685079       -18.6420
 115   2.0000      -0.682379       -18.5685
 116   2.0000      -0.664515       -18.0824
 117   2.0000      -0.656826       -17.8732
 118   2.0000      -0.646914       -17.6034
 119   2.0000      -0.633668       -17.2430
 120   2.0000      -0.617321       -16.7982
 121   2.0000      -0.613929       -16.7058
 122   2.0000      -0.612786       -16.6748
 123   2.0000      -0.610324       -16.6078
 124   2.0000      -0.610024       -16.5996
 125   2.0000      -0.608856       -16.5678
 126   2.0000      -0.606258       -16.4971
 127   2.0000      -0.603933       -16.4338
 128   2.0000      -0.588970       -16.0267
 129   2.0000      -0.587035       -15.9740
 130   2.0000      -0.585184       -15.9237
 131   2.0000      -0.579626       -15.7724
 132   2.0000      -0.574117       -15.6225
 133   2.0000      -0.572779       -15.5861
 134   2.0000      -0.570959       -15.5366
 135   2.0000      -0.567382       -15.4393
 136   2.0000      -0.566567       -15.4171
 137   2.0000      -0.565910       -15.3992
 138   2.0000      -0.565512       -15.3884
 139   2.0000      -0.561666       -15.2837
 140   2.0000      -0.560330       -15.2474
 141   2.0000      -0.559114       -15.2143
 142   2.0000      -0.554842       -15.0980
 143   2.0000      -0.553147       -15.0519
 144   2.0000      -0.552174       -15.0254
 145   2.0000      -0.548524       -14.9261
 146   2.0000      -0.547889       -14.9088
 147   2.0000      -0.546728       -14.8772
 148   2.0000      -0.546690       -14.8762
 149   2.0000      -0.543146       -14.7797
 150   2.0000      -0.540599       -14.7105
 151   2.0000      -0.538658       -14.6576
 152   2.0000      -0.530815       -14.4442
 153   2.0000      -0.528574       -14.3832
 154   2.0000      -0.523462       -14.2441
 155   2.0000      -0.518535       -14.1101
 156   2.0000      -0.516919       -14.0661
 157   2.0000      -0.516361       -14.0509
 158   2.0000      -0.509125       -13.8540
 159   2.0000      -0.506512       -13.7829
 160   2.0000      -0.501397       -13.6437
 161   2.0000      -0.498585       -13.5672
 162   2.0000      -0.493434       -13.4270
 163   2.0000      -0.481120       -13.0919
 164   2.0000      -0.475746       -12.9457
 165   2.0000      -0.474671       -12.9164
 166   2.0000      -0.465172       -12.6580
 167   2.0000      -0.464724       -12.6458
 168   2.0000      -0.459452       -12.5023
 169   2.0000      -0.456817       -12.4306
 170   2.0000      -0.454365       -12.3639
 171   2.0000      -0.451439       -12.2843
 172   2.0000      -0.448218       -12.1966
 173   2.0000      -0.443621       -12.0715
 174   2.0000      -0.439664       -11.9639
 175   2.0000      -0.437097       -11.8940
 176   2.0000      -0.433690       -11.8013
 177   2.0000      -0.432846       -11.7783
 178   2.0000      -0.431462       -11.7407
 179   2.0000      -0.419073       -11.4036
 180   2.0000      -0.410234       -11.1630
 181   2.0000      -0.397426       -10.8145
 182   2.0000      -0.362742        -9.8707
 183   2.0000      -0.360052        -9.7975
 184   2.0000      -0.351666        -9.5693
 185   2.0000      -0.348209        -9.4752
 186   2.0000      -0.331285        -9.0147
 187   2.0000      -0.331092        -9.0095
 188   2.0000      -0.328230        -8.9316
 189   2.0000      -0.326110        -8.8739
 190   2.0000      -0.313153        -8.5213
 191   2.0000      -0.311979        -8.4894
 192   2.0000      -0.309442        -8.4203
 193   2.0000      -0.305839        -8.3223
 194   2.0000      -0.303696        -8.2640
 195   2.0000      -0.297676        -8.1002
 196   2.0000      -0.279103        -7.5948
 197   2.0000      -0.258579        -7.0363
 198   2.0000      -0.216306        -5.8860
 199   0.0000      -0.015451        -0.4205
 200   0.0000       0.015167         0.4127
 201   0.0000       0.023725         0.6456
 202   0.0000       0.034129         0.9287
 203   0.0000       0.042227         1.1491

MULLIKEN ATOMIC CHARGES
-----------------------
   0 C :    0.338121
   1 C :   -0.149923
   2 C :    0.301435
   3 C :    0.078644
   4 C :   -0.223977
   5 C :   -0.357945
   6 C :    0.440407
   7 C :    0.132697
   8 C :    0.292799
   9 C :   -0.089854
  10 C :    0.261841
  11 C :    0.027417
  12 C :   -0.316240
  13 H :    0.178461
  14 H :    0.130102
  15 H :    0.203586
  16 O :   -0.294744
  17 O :   -0.567999
  18 O :   -0.572026
  19 C :   -0.032560
  20 C :   -0.351333
  21 C :   -0.037683
  22 C :   -0.122919
  23 H :    0.166606
  24 C :   -0.176600
  25 C :   -0.174265
  26 H :    0.165301
  27 H :    0.163669
  28 H :    0.163726
  29 C :    0.427880
  30 O :   -0.670814
  31 O :   -0.665878
  32 C :    0.110921
  33 C :   -0.206544
  34 C :   -0.215626
  35 C :   -0.244496
  36 H :    0.147603
  37 C :   -0.204411
  38 H :    0.152328
  39 C :    0.075081
  40 H :    0.169688
  41 H :    0.167860
  42 C :    0.041864
  43 C :   -0.225158
  44 C :   -0.213037
  45 C :   -0.211076
  46 H :    0.154251
  47 C :   -0.247862
  48 H :    0.150361
  49 C :    0.083004
  50 H :    0.167646
  51 H :    0.168520
  52 C :    0.083000
  53 C :   -0.264315
  54 C :   -0.219061
  55 C :   -0.211983
  56 H :    0.189837
  57 C :   -0.232467
  58 H :    0.152904
  59 C :    0.081385
  60 H :    0.170811
  61 H :    0.169861
  62 C :    0.631406
  63 C :    0.630450
  64 C :    0.611698
  65 F :   -0.233086
  66 F :   -0.240346
  67 F :   -0.240514
  68 F :   -0.239814
  69 F :   -0.238423
  70 F :   -0.241810
  71 F :   -0.238056
  72 F :   -0.241882
  73 F :   -0.239589
  74 Na:    0.871146
Sum of atomic charges:   -1.0000000

LOEWDIN ATOMIC CHARGES
----------------------
   0 C :   -0.315289
   1 C :   -0.097251
   2 C :   -0.115108
   3 C :   -0.114946
   4 C :   -0.087897
   5 C :   -0.149734
   6 C :    0.035936
   7 C :   -0.111975
   8 C :   -0.118703
   9 C :   -0.093974
  10 C :   -0.271387
  11 C :   -0.099047
  12 C :   -0.035438
  13 H :    0.163735
  14 H :    0.146320
  15 H :    0.172910
  16 O :    0.364330
  17 O :   -0.051533
  18 O :   -0.072389
  19 C :   -0.057845
  20 C :   -0.091181
  21 C :   -0.070599
  22 C :   -0.133479
  23 H :    0.161379
  24 C :   -0.096084
  25 C :   -0.134683
  26 H :    0.153648
  27 H :    0.158326
  28 H :    0.152893
  29 C :   -0.495558
  30 O :   -0.022967
  31 O :   -0.008820
  32 C :   -0.090852
  33 C :   -0.088357
  34 C :   -0.091002
  35 C :   -0.097365
  36 H :    0.156930
  37 C :   -0.096259
  38 H :    0.157038
  39 C :   -0.147980
  40 H :    0.160358
  41 H :    0.159179
  42 C :   -0.089538
  43 C :   -0.091022
  44 C :   -0.087836
  45 C :   -0.096093
  46 H :    0.157309
  47 C :   -0.097396
  48 H :    0.157088
  49 C :   -0.147477
  50 H :    0.159166
  51 H :    0.160215
  52 C :   -0.089439
  53 C :   -0.096713
  54 C :   -0.091689
  55 C :   -0.096336
  56 H :    0.159501
  57 C :   -0.096087
  58 H :    0.156604
  59 C :   -0.147911
  60 H :    0.159048
  61 H :    0.161119
  62 C :   -0.555558
  63 C :   -0.555511
  64 C :   -0.553088
  65 F :    0.167510
  66 F :    0.146389
  67 F :    0.144195
  68 F :    0.151517
  69 F :    0.167625
  70 F :    0.144305
  71 F :    0.167719
  72 F :    0.143970
  73 F :    0.151324
  74 Na:    0.551809

  Mayer bond orders larger than 0.100000
B(  0-C ,  1-C ) :   1.0011 B(  0-C ,  5-C ) :   1.1815 B(  0-C , 18-O ) :   1.9046
B(  1-C ,  2-C ) :   1.3553 B(  1-C , 18-O ) :  -0.1246 B(  1-C , 32-C ) :   0.8451
B(  2-C ,  3-C ) :   1.2750 B(  2-C , 16-O ) :   1.0561 B(  3-C ,  4-C ) :   1.1443
B(  3-C ,  6-C ) :   1.2157 B(  4-C ,  5-C ) :   1.6434 B(  4-C , 13-H ) :   0.9601
B(  5-C , 14-H ) :   1.0062 B(  6-C ,  7-C ) :   1.1122 B(  6-C , 19-C ) :   0.6583
B(  6-C , 20-C ) :  -0.1256 B(  6-C , 21-C ) :  -0.1382 B(  7-C ,  8-C ) :   1.2884
B(  7-C , 12-C ) :   1.1390 B(  7-C , 19-C ) :  -0.1080 B(  8-C ,  9-C ) :   1.4311
B(  8-C , 16-O ) :   1.0722 B(  9-C , 10-C ) :   1.0788 B(  9-C , 17-O ) :  -0.1628
B(  9-C , 42-C ) :   0.8304 B( 10-C , 11-C ) :   1.1057 B( 10-C , 17-O ) :   1.9777
B( 11-C , 12-C ) :   1.5532 B( 11-C , 17-O ) :  -0.1472 B( 11-C , 52-C ) :   0.8461
B( 12-C , 15-H ) :   0.9432 B( 19-C , 20-C ) :   1.4176 B( 19-C , 21-C ) :   1.3488
B( 20-C , 22-C ) :   1.4319 B( 20-C , 23-H ) :   0.9915 B( 21-C , 24-C ) :   1.4091
B( 21-C , 29-C ) :   0.8950 B( 22-C , 25-C ) :   1.3879 B( 22-C , 26-H ) :   0.9807
B( 24-C , 25-C ) :   1.3980 B( 24-C , 27-H ) :   0.9804 B( 25-C , 28-H ) :   0.9822
B( 29-C , 30-O ) :   1.5880 B( 29-C , 31-O ) :   1.6226 B( 30-O , 74-Na) :   0.1108
B( 31-O , 74-Na) :   0.1155 B( 32-C , 33-C ) :   1.3543 B( 32-C , 34-C ) :   1.3514
B( 33-C , 35-C ) :   1.4634 B( 33-C , 36-H ) :   0.9828 B( 34-C , 37-C ) :   1.4396
B( 34-C , 38-H ) :   0.9886 B( 35-C , 39-C ) :   1.3396 B( 35-C , 40-H ) :   0.9790
B( 37-C , 39-C ) :   1.3331 B( 37-C , 41-H ) :   0.9846 B( 39-C , 62-C ) :   1.0509
B( 42-C , 43-C ) :   1.3570 B( 42-C , 44-C ) :   1.3608 B( 43-C , 45-C ) :   1.4367
B( 43-C , 46-H ) :   0.9894 B( 44-C , 47-C ) :   1.4706 B( 44-C , 48-H ) :   0.9825
B( 45-C , 49-C ) :   1.3398 B( 45-C , 50-H ) :   0.9846 B( 47-C , 49-C ) :   1.3350
B( 47-C , 51-H ) :   0.9810 B( 49-C , 63-C ) :   1.0520 B( 52-C , 53-C ) :   1.3748
B( 52-C , 54-C ) :   1.3398 B( 53-C , 55-C ) :   1.4485 B( 53-C , 56-H ) :   0.9446
B( 54-C , 57-C ) :   1.4609 B( 54-C , 58-H ) :   0.9789 B( 55-C , 59-C ) :   1.3502
B( 55-C , 60-H ) :   0.9780 B( 57-C , 59-C ) :   1.3376 B( 57-C , 61-H ) :   0.9795
B( 59-C , 64-C ) :   1.0495 B( 62-C , 71-F ) :   1.0565 B( 62-C , 72-F ) :   1.0545
B( 62-C , 73-F ) :   1.0714 B( 63-C , 68-F ) :   1.0713 B( 63-C , 69-F ) :   1.0557
B( 63-C , 70-F ) :   1.0542 B( 64-C , 65-F ) :   1.0764 B( 64-C , 66-F ) :   1.0714
B( 64-C , 67-F ) :   1.0715

MP2 TOTAL ENERGY:    -3009.606692430 Eh

-----------------------------------------------------------------------------
         ABSORPTION SPECTRUM VIA TRANSITION ELECTRIC DIPOLE MOMENTS
-----------------------------------------------------------------------------
State   Energy    Wavelength  fosc         T2        TX        TY        TZ
        (cm-1)      (nm)                 (au**2)    (au)      (au)      (au)
-----------------------------------------------------------------------------
   1   19610.3    509.9   0.900805087  15.12249   2.55081  -2.93028   0.17128
   2   26865.9    372.2   0.243138999   2.97940   1.66700   0.43642  -0.10021
   3   26595.4    376.0   0.023130684   0.28632  -0.51215   0.13694   0.07259
   4   29526.1    338.7   0.106023775   1.18215   0.66609   0.85882   0.03009
   5   33688.5    296.8   0.174480870   1.70507  -0.81202  -1.02203   0.03385
   6   33324.6    300.1   0.327108495   3.23149  -1.39873  -1.12820   0.04681
   7   33079.9    302.3   0.097136880   0.96671   0.85615  -0.48115   0.04708
   8   30381.9    329.1   0.083162799   0.90114   0.91774   0.24264  -0.00261
   9   29934.5    334.1   0.003999413   0.04398  -0.20611  -0.03291  -0.02053
  10   35033.7    285.4   0.104378619   0.98085  -0.94576  -0.29098  -0.04135
  11   33988.2    294.2   0.026929509   0.26084   0.20825   0.46480  -0.03787
  12   36571.6    273.4   0.063324379   0.57004  -0.55947   0.50437  -0.05145
  13   36716.4    272.4   0.109751345   0.98407  -0.81986   0.54132  -0.13737
  14   36653.6    272.8   0.025340626   0.22760   0.16004  -0.43118   0.12679
  15   37499.7    266.7   0.012087939   0.10612  -0.31266   0.06361   0.06572
  16   36841.1    271.4   0.066208016   0.59163   0.40752   0.55203  -0.34760
  17   36043.8    277.4   0.051247388   0.46808  -0.00927   0.68235   0.04881
  18   38293.3    261.1   0.025895342   0.22262  -0.03118   0.45820  -0.10820
  19   38481.9    259.9   0.154471105   1.32150   1.13224  -0.19842  -0.01272
  20   38491.3    259.8   0.065980453   0.56432  -0.57012   0.48185   0.08433
  21   40096.5    249.4   0.054847459   0.45032  -0.61358  -0.02695   0.27040
  22   40095.2    249.4   0.137612234   1.12990   0.90546   0.55639  -0.02179
  23   40805.1    245.1   0.080865258   0.65241  -0.31678  -0.72210  -0.17502
  24   43243.2    231.3   0.082985402   0.63177   0.11902   0.36970  -0.69349
  25   41178.1    242.8   0.032447897   0.25942  -0.46178   0.17942   0.11824
  26   41239.1    242.5   0.039941321   0.31885   0.24059   0.43945   0.26049
  27   41562.0    240.6   0.037837905   0.29971   0.36719  -0.22733  -0.33646
  28   41623.2    240.3   0.043690040   0.34556  -0.32707   0.46819   0.13921
  29   42521.5    235.2   0.007558198   0.05852  -0.20623   0.11105  -0.06045
  30   43543.5    229.7   0.058401426   0.44155   0.22218   0.56077   0.27877

FINAL SINGLE POINT ENERGY     -3005.429595281420

DIPOLE MOMENT
-------------
                                X             Y             Z
Electronic contribution:    -15.88878     -39.85013      13.07159
Nuclear contribution   :     20.48611      40.73123     -10.60541
                        -----------------------------------------
Total Dipole Moment    :      4.59733       0.88109       2.46618
                        -----------------------------------------
Magnitude (a.u.)       :      5.29092
Magnitude (Debye)      :     13.44845

Rotational constants in cm-1:     0.002147     0.000923     0.000699
Rotational constants in MHz :    64.354030    27.675472    20.969670

                             ****ORCA TERMINATED NORMALLY****
TOTAL RUN TIME: 6 days 1 hours 31 minutes 1 seconds 991 msec
