                         Program Version 5.0.2 -  RELEASE  -
|  1> %maxcore 3200
|  2> %pal
|  3>  nprocs= 8
|  4> end
|  5> ! RI-DSD-BLYP D3BJ def2-TZVP def2/J def2-TZVP/C RIJCOSX CPCM TightSCF
|  6> %TDDFT DCORR 4
|  7>    NROOTS   30
|  8>   TDA      FALSE
|  9> END
| 10>
| 11>  %CPCM
| 12>    SMD          TRUE
| 13>    SMDsolvent   "ACETONITRILE"
| 14>  END
| 15>
| 16>
| 17> * xyz -2 1
| 18> C                  -2.67897200    4.34624700   -0.16924300
| 19> C                  -2.46586700    2.90864300   -0.20133500
| 20> C                  -1.17369700    2.42193300   -0.18513400
| 21> C                  -0.01410600    3.24238300   -0.18570700
| 22> C                  -0.23683500    4.64481300   -0.14138500
| 23> C                  -1.48835100    5.16623400   -0.13020500
| 24> C                   1.25499300    2.64616500   -0.19350900
| 25> C                   1.35641700    1.24406600   -0.16759300
| 26> C                   0.17868400    0.46122100   -0.08657500
| 27> C                   0.18512200   -0.91505500   -0.00743600
| 28> C                   1.44713300   -1.63392300   -0.02990500
| 29> C                   2.66346700   -0.82586600   -0.14802400
| 30> C                   2.57758400    0.53874600   -0.21132300
| 31> H                   0.62440100    5.30035600   -0.10401300
| 32> H                  -1.64018100    6.23851100   -0.08871900
| 33> H                   3.48808300    1.11428800   -0.31945600
| 34> O                  -1.03680100    1.06901700   -0.12749600
| 35> O                   1.48918400   -2.87654700    0.07950700
| 36> O                  -3.81835700    4.85935400   -0.18276500
| 37> C                   2.47499900    3.47808400   -0.29079300
| 38> C                   2.65878900    4.26262000   -1.43194500
| 39> C                   3.47261100    3.45681700    0.69702500
| 40> C                   3.79715500    5.03530400   -1.59538700
| 41> H                   1.89683800    4.25456500   -2.20309300
| 42> C                   4.61968000    4.22345000    0.50515700
| 43> C                   4.78141100    5.02011300   -0.61702500
| 44> H                   3.91570100    5.64030800   -2.48551700
| 45> H                   5.39097200    4.18654500    1.26554100
| 46> H                   5.67445900    5.62240600   -0.73271400
| 47> C                   3.32624100    2.64697100    1.97622900
| 48> O                   4.33643500    1.99081100    2.32416400
| 49> O                   2.22402100    2.73490600    2.56087400
| 50> C                  -3.63001500    2.01010700   -0.24860600
| 51> C                  -4.70258000    2.19292700    0.63275400
| 52> C                  -3.72296100    0.97456000   -1.18325200
| 53> C                  -5.81311700    1.37299700    0.58621000
| 54> H                  -4.65423300    2.98730900    1.36421700
| 55> C                  -4.83656400    0.15362500   -1.24232900
| 56> H                  -2.91537900    0.81694300   -1.88658500
| 57> C                  -5.88780300    0.35336000   -0.35816200
| 58> H                  -6.62924700    1.52354400    1.28267000
| 59> H                  -4.88919800   -0.63461500   -1.98224700
| 60> C                  -1.06465500   -1.68362500    0.11778600
| 61> C                  -2.02756000   -1.36834900    1.08017500
| 62> C                  -1.30858200   -2.78127300   -0.71601200
| 63> C                  -3.18525100   -2.11740200    1.21416900
| 64> H                  -1.86150400   -0.53194900    1.74701900
| 65> C                  -2.46404000   -3.52785900   -0.59545700
| 66> H                  -0.57780000   -3.04465000   -1.46800700
| 67> C                  -3.40443000   -3.20349800    0.37819600
| 68> H                  -3.91059600   -1.86154900    1.97594000
| 69> H                  -2.63787200   -4.37021400   -1.25416200
| 70> C                   3.98655400   -1.46390400   -0.17264700
| 71> C                   5.07989000   -0.83143300    0.43839900
| 72> C                   4.21380100   -2.68803000   -0.81358400
| 73> C                   6.34179300   -1.39321000    0.40371100
| 74> H                   4.92582500    0.10498900    0.96781500
| 75> C                   5.47687400   -3.25094500   -0.85305000
| 76> H                   3.38936600   -3.19431300   -1.29246700
| 77> C                   6.54561500   -2.60981200   -0.23950300
| 78> H                   7.17090400   -0.89230000    0.88848900
| 79> H                   5.63231500   -4.19255100   -1.36360200
| 80> C                  -7.09518600   -0.51997600   -0.37788600
| 81> C                  -4.64149200   -4.02792900    0.48361700
| 82> C                   7.91767900   -3.18671000   -0.30272200
| 83> F                   8.60106400   -3.02529000    0.84685500
| 84> F                   8.67691000   -2.60461700   -1.26294200
| 85> F                   7.92151900   -4.50206800   -0.57393000
| 86> F                  -4.37252500   -5.34998800    0.54504800
| 87> F                  -5.38050100   -3.73671400    1.56309500
| 88> F                  -5.45126900   -3.87436000   -0.59031500
| 89> F                  -7.13266100   -1.34679200   -1.43216600
| 90> F                  -7.17953700   -1.29923600    0.72567500
| 91> F                  -8.24247900    0.19200800   -0.40482500
| 92> *
| 93>
| 94>
| 95>                          ****END OF INPUT****

CARTESIAN COORDINATES (ANGSTROEM)
---------------------------------
  C     -2.678972    4.346247   -0.169243
  C     -2.465867    2.908643   -0.201335
  C     -1.173697    2.421933   -0.185134
  C     -0.014106    3.242383   -0.185707
  C     -0.236835    4.644813   -0.141385
  C     -1.488351    5.166234   -0.130205
  C      1.254993    2.646165   -0.193509
  C      1.356417    1.244066   -0.167593
  C      0.178684    0.461221   -0.086575
  C      0.185122   -0.915055   -0.007436
  C      1.447133   -1.633923   -0.029905
  C      2.663467   -0.825866   -0.148024
  C      2.577584    0.538746   -0.211323
  H      0.624401    5.300356   -0.104013
  H     -1.640181    6.238511   -0.088719
  H      3.488083    1.114288   -0.319456
  O     -1.036801    1.069017   -0.127496
  O      1.489184   -2.876547    0.079507
  O     -3.818357    4.859354   -0.182765
  C      2.474999    3.478084   -0.290793
  C      2.658789    4.262620   -1.431945
  C      3.472611    3.456817    0.697025
  C      3.797155    5.035304   -1.595387
  H      1.896838    4.254565   -2.203093
  C      4.619680    4.223450    0.505157
  C      4.781411    5.020113   -0.617025
  H      3.915701    5.640308   -2.485517
  H      5.390972    4.186545    1.265541
  H      5.674459    5.622406   -0.732714
  C      3.326241    2.646971    1.976229
  O      4.336435    1.990811    2.324164
  O      2.224021    2.734906    2.560874
  C     -3.630015    2.010107   -0.248606
  C     -4.702580    2.192927    0.632754
  C     -3.722961    0.974560   -1.183252
  C     -5.813117    1.372997    0.586210
  H     -4.654233    2.987309    1.364217
  C     -4.836564    0.153625   -1.242329
  H     -2.915379    0.816943   -1.886585
  C     -5.887803    0.353360   -0.358162
  H     -6.629247    1.523544    1.282670
  H     -4.889198   -0.634615   -1.982247
  C     -1.064655   -1.683625    0.117786
  C     -2.027560   -1.368349    1.080175
  C     -1.308582   -2.781273   -0.716012
  C     -3.185251   -2.117402    1.214169
  H     -1.861504   -0.531949    1.747019
  C     -2.464040   -3.527859   -0.595457
  H     -0.577800   -3.044650   -1.468007
  C     -3.404430   -3.203498    0.378196
  H     -3.910596   -1.861549    1.975940
  H     -2.637872   -4.370214   -1.254162
  C      3.986554   -1.463904   -0.172647
  C      5.079890   -0.831433    0.438399
  C      4.213801   -2.688030   -0.813584
  C      6.341793   -1.393210    0.403711
  H      4.925825    0.104989    0.967815
  C      5.476874   -3.250945   -0.853050
  H      3.389366   -3.194313   -1.292467
  C      6.545615   -2.609812   -0.239503
  H      7.170904   -0.892300    0.888489
  H      5.632315   -4.192551   -1.363602
  C     -7.095186   -0.519976   -0.377886
  C     -4.641492   -4.027929    0.483617
  C      7.917679   -3.186710   -0.302722
  F      8.601064   -3.025290    0.846855
  F      8.676910   -2.604617   -1.262942
  F      7.921519   -4.502068   -0.573930
  F     -4.372525   -5.349988    0.545048
  F     -5.380501   -3.736714    1.563095
  F     -5.451269   -3.874360   -0.590315
  F     -7.132661   -1.346792   -1.432166
  F     -7.179537   -1.299236    0.725675
  F     -8.242479    0.192008   -0.404825

 Total Charge           Charge          ....   -2
 Multiplicity           Mult            ....    1
 Number of Electrons    NEL             ....  388
 Basis Dimension        Dim             .... 1819

ORBITAL ENERGIES
----------------

  NO   OCC          E(Eh)            E(eV)
   0   2.0000     -25.714557      -699.7287
   1   2.0000     -25.714263      -699.7207
   2   2.0000     -25.714104      -699.7163
   3   2.0000     -25.711884      -699.6559
   4   2.0000     -25.710205      -699.6103
   5   2.0000     -25.709857      -699.6008
   6   2.0000     -25.708251      -699.5571
   7   2.0000     -25.708032      -699.5511
   8   2.0000     -25.707830      -699.5456
   9   2.0000     -20.069894      -546.1296
  10   2.0000     -19.939469      -542.5805
  11   2.0000     -19.939297      -542.5759
  12   2.0000     -19.920532      -542.0652
  13   2.0000     -19.920168      -542.0553
  14   2.0000     -11.090114      -301.7774
  15   2.0000     -11.089848      -301.7701
  16   2.0000     -11.089538      -301.7617
  17   2.0000     -10.909769      -296.8699
  18   2.0000     -10.907902      -296.8191
  19   2.0000     -10.899117      -296.5801
  20   2.0000     -10.888888      -296.3017
  21   2.0000     -10.885459      -296.2084
  22   2.0000     -10.877013      -295.9786
  23   2.0000     -10.843765      -295.0739
  24   2.0000     -10.843650      -295.0707
  25   2.0000     -10.843344      -295.0624
  26   2.0000     -10.840093      -294.9739
  27   2.0000     -10.839752      -294.9647
  28   2.0000     -10.839478      -294.9572
  29   2.0000     -10.838581      -294.9328
  30   2.0000     -10.833338      -294.7901
  31   2.0000     -10.833178      -294.7858
  32   2.0000     -10.833057      -294.7825
  33   2.0000     -10.832994      -294.7808
  34   2.0000     -10.832765      -294.7745
  35   2.0000     -10.832511      -294.7676
  36   2.0000     -10.832191      -294.7589
  37   2.0000     -10.831820      -294.7488
  38   2.0000     -10.826194      -294.5957
  39   2.0000     -10.826076      -294.5925
  40   2.0000     -10.825851      -294.5864
  41   2.0000     -10.824332      -294.5451
  42   2.0000     -10.823303      -294.5170
  43   2.0000     -10.823131      -294.5124
  44   2.0000     -10.823057      -294.5104
  45   2.0000     -10.822736      -294.5016
  46   2.0000     -10.822646      -294.4992
  47   2.0000     -10.821405      -294.4654
  48   2.0000     -10.820463      -294.4398
  49   2.0000     -10.820161      -294.4315
  50   2.0000     -10.819101      -294.4027
  51   2.0000     -10.817687      -294.3642
  52   2.0000     -10.812388      -294.2200
  53   2.0000     -10.811976      -294.2088
  54   2.0000     -10.804516      -294.0058
  55   2.0000      -1.567141       -42.6441
  56   2.0000      -1.567119       -42.6435
  57   2.0000      -1.566414       -42.6243
  58   2.0000      -1.475920       -40.1618
  59   2.0000      -1.475916       -40.1617
  60   2.0000      -1.475399       -40.1477
  61   2.0000      -1.469681       -39.9921
  62   2.0000      -1.469442       -39.9856
  63   2.0000      -1.468915       -39.9712
  64   2.0000      -1.324863       -36.0514
  65   2.0000      -1.217590       -33.1323
  66   2.0000      -1.199353       -32.6361
  67   2.0000      -1.195613       -32.5343
  68   2.0000      -1.119855       -30.4728
  69   2.0000      -1.063328       -28.9346
  70   2.0000      -1.059326       -28.8257
  71   2.0000      -1.056516       -28.7493
  72   2.0000      -1.055662       -28.7260
  73   2.0000      -1.035126       -28.1672
  74   2.0000      -1.028892       -27.9976
  75   2.0000      -0.984404       -26.7870
  76   2.0000      -0.978448       -26.6249
  77   2.0000      -0.964932       -26.2571
  78   2.0000      -0.947011       -25.7695
  79   2.0000      -0.927587       -25.2409
  80   2.0000      -0.918245       -24.9867
  81   2.0000      -0.917203       -24.9584
  82   2.0000      -0.916879       -24.9496
  83   2.0000      -0.914824       -24.8936
  84   2.0000      -0.907407       -24.6918
  85   2.0000      -0.901468       -24.5302
  86   2.0000      -0.884937       -24.0804
  87   2.0000      -0.859536       -23.3892
  88   2.0000      -0.851954       -23.1829
  89   2.0000      -0.847402       -23.0590
  90   2.0000      -0.799006       -21.7421
  91   2.0000      -0.793752       -21.5991
  92   2.0000      -0.781785       -21.2735
  93   2.0000      -0.773389       -21.0450
  94   2.0000      -0.763534       -20.7768
  95   2.0000      -0.760930       -20.7060
  96   2.0000      -0.759180       -20.6583
  97   2.0000      -0.753983       -20.5169
  98   2.0000      -0.750162       -20.4130
  99   2.0000      -0.743998       -20.2452
 100   2.0000      -0.732262       -19.9259
 101   2.0000      -0.731440       -19.9035
 102   2.0000      -0.729968       -19.8634
 103   2.0000      -0.724611       -19.7177
 104   2.0000      -0.722360       -19.6564
 105   2.0000      -0.721164       -19.6239
 106   2.0000      -0.713335       -19.4108
 107   2.0000      -0.711255       -19.3542
 108   2.0000      -0.694275       -18.8922
 109   2.0000      -0.691912       -18.8279
 110   2.0000      -0.688972       -18.7479
 111   2.0000      -0.665775       -18.1166
 112   2.0000      -0.655319       -17.8321
 113   2.0000      -0.650409       -17.6985
 114   2.0000      -0.635914       -17.3041
 115   2.0000      -0.624281       -16.9876
 116   2.0000      -0.621880       -16.9222
 117   2.0000      -0.620146       -16.8750
 118   2.0000      -0.619219       -16.8498
 119   2.0000      -0.618349       -16.8261
 120   2.0000      -0.615498       -16.7486
 121   2.0000      -0.614949       -16.7336
 122   2.0000      -0.601675       -16.3724
 123   2.0000      -0.592784       -16.1305
 124   2.0000      -0.591531       -16.0964
 125   2.0000      -0.589089       -16.0299
 126   2.0000      -0.583487       -15.8775
 127   2.0000      -0.580663       -15.8006
 128   2.0000      -0.578522       -15.7424
 129   2.0000      -0.574860       -15.6427
 130   2.0000      -0.574622       -15.6363
 131   2.0000      -0.573093       -15.5946
 132   2.0000      -0.570095       -15.5131
 133   2.0000      -0.569195       -15.4886
 134   2.0000      -0.565790       -15.3959
 135   2.0000      -0.564471       -15.3600
 136   2.0000      -0.560153       -15.2425
 137   2.0000      -0.559052       -15.2126
 138   2.0000      -0.557262       -15.1639
 139   2.0000      -0.557117       -15.1599
 140   2.0000      -0.556336       -15.1387
 141   2.0000      -0.554092       -15.0776
 142   2.0000      -0.553341       -15.0572
 143   2.0000      -0.551707       -15.0127
 144   2.0000      -0.546600       -14.8737
 145   2.0000      -0.542140       -14.7524
 146   2.0000      -0.534346       -14.5403
 147   2.0000      -0.531577       -14.4649
 148   2.0000      -0.524317       -14.2674
 149   2.0000      -0.521938       -14.2026
 150   2.0000      -0.521433       -14.1889
 151   2.0000      -0.520550       -14.1649
 152   2.0000      -0.513244       -13.9661
 153   2.0000      -0.512206       -13.9378
 154   2.0000      -0.504908       -13.7392
 155   2.0000      -0.502215       -13.6660
 156   2.0000      -0.497921       -13.5491
 157   2.0000      -0.484638       -13.1877
 158   2.0000      -0.482037       -13.1169
 159   2.0000      -0.477699       -12.9988
 160   2.0000      -0.475917       -12.9504
 161   2.0000      -0.467688       -12.7264
 162   2.0000      -0.464441       -12.6381
 163   2.0000      -0.462413       -12.5829
 164   2.0000      -0.457152       -12.4397
 165   2.0000      -0.456053       -12.4098
 166   2.0000      -0.452069       -12.3014
 167   2.0000      -0.448157       -12.1950
 168   2.0000      -0.446233       -12.1426
 169   2.0000      -0.440442       -11.9850
 170   2.0000      -0.438461       -11.9311
 171   2.0000      -0.436998       -11.8913
 172   2.0000      -0.435339       -11.8462
 173   2.0000      -0.433334       -11.7916
 174   2.0000      -0.417971       -11.3736
 175   2.0000      -0.411559       -11.1991
 176   2.0000      -0.398567       -10.8456
 177   2.0000      -0.352742        -9.5986
 178   2.0000      -0.336767        -9.1639
 179   2.0000      -0.333940        -9.0870
 180   2.0000      -0.333165        -9.0659
 181   2.0000      -0.330417        -8.9911
 182   2.0000      -0.328545        -8.9402
 183   2.0000      -0.322086        -8.7644
 184   2.0000      -0.317687        -8.6447
 185   2.0000      -0.313263        -8.5243
 186   2.0000      -0.309669        -8.4265
 187   2.0000      -0.308054        -8.3826
 188   2.0000      -0.304839        -8.2951
 189   2.0000      -0.296416        -8.0659
 190   2.0000      -0.291984        -7.9453
 191   2.0000      -0.276622        -7.5273
 192   2.0000      -0.257991        -7.0203
 193   2.0000      -0.215030        -5.8513
 194   0.0000      -0.003428        -0.0933
 195   0.0000       0.036085         0.9819
 196   0.0000       0.044618         1.2141
 197   0.0000       0.053245         1.4489
 198   0.0000       0.068046         1.8516

MULLIKEN ATOMIC CHARGES
-----------------------
   0 C :    0.348254
   1 C :   -0.153835
   2 C :    0.317200
   3 C :    0.074612
   4 C :   -0.228410
   5 C :   -0.366756
   6 C :    0.451467
   7 C :    0.118178
   8 C :    0.301189
   9 C :   -0.089922
  10 C :    0.271582
  11 C :    0.028411
  12 C :   -0.310938
  13 H :    0.178347
  14 H :    0.128622
  15 H :    0.193927
  16 O :   -0.298474
  17 O :   -0.578696
  18 O :   -0.585543
  19 C :    0.000031
  20 C :   -0.370257
  21 C :   -0.114903
  22 C :   -0.135980
  23 H :    0.161915
  24 C :   -0.193075
  25 C :   -0.176888
  26 H :    0.161055
  27 H :    0.154100
  28 H :    0.159832
  29 C :    0.361338
  30 O :   -0.615757
  31 O :   -0.612890
  32 C :    0.112046
  33 C :   -0.207025
  34 C :   -0.214741
  35 C :   -0.249707
  36 H :    0.147174
  37 C :   -0.202880
  38 H :    0.151475
  39 C :    0.079069
  40 H :    0.168838
  41 H :    0.167932
  42 C :    0.043093
  43 C :   -0.229410
  44 C :   -0.215543
  45 C :   -0.204846
  46 H :    0.152156
  47 C :   -0.251969
  48 H :    0.149101
  49 C :    0.084053
  50 H :    0.168087
  51 H :    0.168035
  52 C :    0.076745
  53 C :   -0.258007
  54 C :   -0.215696
  55 C :   -0.241274
  56 H :    0.176199
  57 C :   -0.209823
  58 H :    0.151162
  59 C :    0.083289
  60 H :    0.168670
  61 H :    0.170051
  62 C :    0.640238
  63 C :    0.640138
  64 C :    0.616776
  65 F :   -0.241305
  66 F :   -0.244985
  67 F :   -0.238228
  68 F :   -0.244611
  69 F :   -0.241454
  70 F :   -0.247970
  71 F :   -0.241177
  72 F :   -0.247324
  73 F :   -0.244084
Sum of atomic charges:   -2.0000000

LOEWDIN ATOMIC CHARGES
----------------------
   0 C :   -0.313933
   1 C :   -0.099423
   2 C :   -0.113881
   3 C :   -0.117930
   4 C :   -0.087143
   5 C :   -0.153200
   6 C :    0.040664
   7 C :   -0.114635
   8 C :   -0.117427
   9 C :   -0.096651
  10 C :   -0.269420
  11 C :   -0.102898
  12 C :   -0.032500
  13 H :    0.163310
  14 H :    0.145225
  15 H :    0.171582
  16 O :    0.360968
  17 O :   -0.057641
  18 O :   -0.080363
  19 C :   -0.068530
  20 C :   -0.097212
  21 C :   -0.076515
  22 C :   -0.147646
  23 H :    0.159003
  24 C :   -0.112282
  25 C :   -0.141325
  26 H :    0.150648
  27 H :    0.153263
  28 H :    0.150387
  29 C :   -0.596363
  30 O :   -0.133639
  31 O :   -0.121908
  32 C :   -0.090036
  33 C :   -0.088131
  34 C :   -0.091277
  35 C :   -0.097068
  36 H :    0.156480
  37 C :   -0.096280
  38 H :    0.156542
  39 C :   -0.148579
  40 H :    0.160103
  41 H :    0.158698
  42 C :   -0.089111
  43 C :   -0.091092
  44 C :   -0.088099
  45 C :   -0.096020
  46 H :    0.156811
  47 C :   -0.097655
  48 H :    0.156545
  49 C :   -0.148198
  50 H :    0.158651
  51 H :    0.159973
  52 C :   -0.090479
  53 C :   -0.100054
  54 C :   -0.094515
  55 C :   -0.097392
  56 H :    0.157697
  57 C :   -0.098243
  58 H :    0.155450
  59 C :   -0.149068
  60 H :    0.159727
  61 H :    0.158266
  62 C :   -0.548906
  63 C :   -0.548106
  64 C :   -0.546214
  65 F :    0.152806
  66 F :    0.135029
  67 F :    0.160699
  68 F :    0.146138
  69 F :    0.166724
  70 F :    0.141090
  71 F :    0.166680
  72 F :    0.141620
  73 F :    0.146206

  Mayer bond orders larger than 0.100000
B(  0-C ,  1-C ) :   1.0028 B(  0-C ,  5-C ) :   1.1836 B(  0-C , 18-O ) :   1.8950
B(  1-C ,  2-C ) :   1.3494 B(  1-C , 18-O ) :  -0.1239 B(  1-C , 32-C ) :   0.8347
B(  2-C ,  3-C ) :   1.2784 B(  2-C , 16-O ) :   1.0557 B(  3-C ,  4-C ) :   1.1483
B(  3-C ,  6-C ) :   1.1989 B(  4-C ,  5-C ) :   1.6436 B(  4-C , 13-H ) :   0.9622
B(  5-C , 14-H ) :   1.0085 B(  6-C ,  7-C ) :   1.1214 B(  6-C , 19-C ) :   0.6499
B(  6-C , 20-C ) :  -0.1130 B(  6-C , 21-C ) :  -0.1477 B(  7-C ,  8-C ) :   1.2798
B(  7-C , 12-C ) :   1.1485 B(  7-C , 19-C ) :  -0.1136 B(  8-C ,  9-C ) :   1.4295
B(  8-C , 16-O ) :   1.0690 B(  9-C , 10-C ) :   1.0784 B(  9-C , 17-O ) :  -0.1598
B(  9-C , 42-C ) :   0.8222 B( 10-C , 11-C ) :   1.1061 B( 10-C , 17-O ) :   1.9670
B( 11-C , 12-C ) :   1.5558 B( 11-C , 17-O ) :  -0.1442 B( 11-C , 52-C ) :   0.8417
B( 12-C , 15-H ) :   0.9468 B( 19-C , 20-C ) :   1.3939 B( 19-C , 21-C ) :   1.3435
B( 20-C , 22-C ) :   1.4442 B( 20-C , 23-H ) :   0.9949 B( 21-C , 24-C ) :   1.4160
B( 21-C , 29-C ) :   0.8895 B( 21-C , 30-O ) :  -0.1458 B( 22-C , 25-C ) :   1.3860
B( 22-C , 26-H ) :   0.9844 B( 24-C , 25-C ) :   1.4039 B( 24-C , 27-H ) :   0.9825
B( 25-C , 28-H ) :   0.9848 B( 29-C , 30-O ) :   1.7767 B( 29-C , 31-O ) :   1.8476
B( 32-C , 33-C ) :   1.3532 B( 32-C , 34-C ) :   1.3563 B( 33-C , 35-C ) :   1.4676
B( 33-C , 36-H ) :   0.9832 B( 34-C , 37-C ) :   1.4353 B( 34-C , 38-H ) :   0.9897
B( 35-C , 39-C ) :   1.3405 B( 35-C , 40-H ) :   0.9807 B( 37-C , 39-C ) :   1.3339
B( 37-C , 41-H ) :   0.9862 B( 39-C , 62-C ) :   1.0536 B( 42-C , 43-C ) :   1.3631
B( 42-C , 44-C ) :   1.3579 B( 43-C , 45-C ) :   1.4351 B( 43-C , 46-H ) :   0.9932
B( 44-C , 47-C ) :   1.4758 B( 44-C , 48-H ) :   0.9830 B( 45-C , 49-C ) :   1.3400
B( 45-C , 50-H ) :   0.9850 B( 47-C , 49-C ) :   1.3353 B( 47-C , 51-H ) :   0.9826
B( 49-C , 63-C ) :   1.0559 B( 52-C , 53-C ) :   1.3711 B( 52-C , 54-C ) :   1.3620
B( 53-C , 55-C ) :   1.4768 B( 53-C , 56-H ) :   0.9275 B( 54-C , 57-C ) :   1.4356
B( 54-C , 58-H ) :   0.9828 B( 55-C , 59-C ) :   1.3520 B( 55-C , 60-H ) :   0.9802
B( 57-C , 59-C ) :   1.3441 B( 57-C , 61-H ) :   0.9809 B( 59-C , 64-C ) :   1.0489
B( 62-C , 71-F ) :   1.0525 B( 62-C , 72-F ) :   1.0485 B( 62-C , 73-F ) :   1.0666
B( 63-C , 68-F ) :   1.0662 B( 63-C , 69-F ) :   1.0519 B( 63-C , 70-F ) :   1.0471
B( 64-C , 65-F ) :   1.0660 B( 64-C , 66-F ) :   1.0681 B( 64-C , 67-F ) :   1.0681

MP2 TOTAL ENERGY:    -2846.796857347 Eh

-----------------------------------------------------------------------------
         ABSORPTION SPECTRUM VIA TRANSITION ELECTRIC DIPOLE MOMENTS
-----------------------------------------------------------------------------
State   Energy    Wavelength  fosc         T2        TX        TY        TZ
        (cm-1)      (nm)                 (au**2)    (au)      (au)      (au)
-----------------------------------------------------------------------------
   1   12575.3    795.2   0.573504167  15.01394   2.51409  -2.94666   0.10253
   2   19507.9    512.6   0.183440206   3.09570   1.69855   0.44722  -0.10311
   3   16636.7    601.1   0.008755993   0.17327   0.26367  -0.30687  -0.09785
   4   19488.4    513.1   0.062127051   1.04949   0.65785   0.78312   0.05872
   5   24913.9    401.4   0.427006953   5.64247   1.71545   1.64275  -0.03266
   6   25520.7    391.8   0.139981262   1.80573   1.31002  -0.29755   0.03232
   7   15410.8    648.9   0.010698650   0.22855   0.46016   0.12934  -0.00858
   8   16548.2    604.3   0.000849875   0.01691   0.04891  -0.08855   0.08169
   9   23950.4    417.5   0.023924549   0.32886   0.55843   0.08367   0.10004
  10   21610.3    462.7   0.063149473   0.96202  -0.88110  -0.34145   0.26285
  11   28731.4    348.1   0.007224516   0.08278   0.14012  -0.25115  -0.00836
  12   27120.4    368.7   0.098911844   1.20068  -0.76188   0.75942  -0.20857
  13   28413.0    352.0   0.016377625   0.18976   0.31653  -0.28148   0.10168
  14   29320.1    341.1   0.003945549   0.04430   0.17900  -0.10627  -0.03111
  15   27041.1    369.8   0.094784366   1.15395   0.66822   0.83022  -0.13481
  16   30088.0    332.4   0.065447437   0.71610  -0.52864   0.65340   0.09860
  17   23532.0    425.0   0.032531050   0.45511   0.60734  -0.29323   0.01641
  18   27905.3    358.4   0.058117402   0.68564  -0.61804   0.54929   0.04409
  19   26550.9    376.6   0.055294898   0.68562  -0.78642  -0.22975   0.11987
  20   30331.2    329.7   0.045675146   0.49575   0.69752   0.09254  -0.02566
  21   32180.9    310.7   0.054325349   0.55575   0.18616   0.62179  -0.36670
  22   27898.6    358.4   0.039508823   0.46622  -0.56435  -0.34701  -0.16524
  23   24345.2    410.8   0.007626970   0.10314   0.10797   0.28819  -0.09178
  24   28299.5    353.4   0.101376905   1.17933   0.13476   0.91095   0.57563
  25   24681.3    405.2   0.022428249   0.29916   0.17407  -0.07335  -0.51330
  26   29046.4    344.3   0.050349772   0.57066   0.72147  -0.06988  -0.21274
  27   30694.7    325.8   0.024431535   0.26204   0.31485  -0.39710  -0.07222
  28   13961.6    716.3   0.005005244   0.11802   0.16439  -0.28050  -0.11097
  29   36279.0    275.6   0.111345263   1.01040  -0.03415   1.00196  -0.07284
  30   27414.5    364.8   0.001372269   0.01648  -0.09254  -0.04147  -0.07871

Dispersion correction           -0.079875421
FINAL SINGLE POINT ENERGY     -2842.033765430648

DIPOLE MOMENT
-------------
                                X             Y             Z
Electronic contribution:    -24.89523     -44.34361       0.14080
Nuclear contribution   :     23.62029      42.22749      -4.79050
                        -----------------------------------------
Total Dipole Moment    :     -1.27494      -2.11612      -4.64970
                        -----------------------------------------
Magnitude (a.u.)       :      5.26527
Magnitude (Debye)      :     13.38326

Rotational constants in cm-1:     0.002278     0.000949     0.000706
Rotational constants in MHz :    68.290480    28.462766    21.152988

                             ****ORCA TERMINATED NORMALLY****
TOTAL RUN TIME: 0 days 21 hours 17 minutes 21 seconds 455 msec
