                         Program Version 5.0.2 -  RELEASE  -
|  1> %maxcore 20000
|  2> %pal
|  3>  nprocs= 4
|  4> end
|  5> ! RI-DSD-BLYP D3BJ def2-TZVP def2/J def2-TZVP/C RIJCOSX CPCM TightSCF
|  6> %TDDFT
|  7>    NROOTS   30
|  8>    dcorr 4
|  9>    doscs true
| 10>    scspar 0.333, 1.2, 0.43, 1.24
| 11>    TDA      FALSE
| 12> END
| 13>
| 14>  %CPCM
| 15>    SMD          TRUE
| 16>    SMDsolvent   "ACETONITRILE"
| 17>  END
| 18>
| 19>
| 20> * xyz -1 1
| 21> C                  -2.68112800    4.35468400   -0.29624100
| 22> C                  -2.46638500    2.91647300   -0.29316200
| 23> C                  -1.17434900    2.43225800   -0.27283500
| 24> C                  -0.01619000    3.25573100   -0.29227000
| 25> C                  -0.23995300    4.65902000   -0.28380400
| 26> C                  -1.49181400    5.17833400   -0.28451800
| 27> C                   1.25145600    2.66180900   -0.27740100
| 28> C                   1.35977700    1.26127800   -0.22155000
| 29> C                   0.18345300    0.47708800   -0.12872000
| 30> C                   0.19354300   -0.89658900   -0.01441500
| 31> C                   1.45793900   -1.61106500   -0.00849200
| 32> C                   2.67266500   -0.80277300   -0.14187200
| 33> C                   2.58430800    0.55968200   -0.23874700
| 34> H                   0.62045500    5.31656400   -0.26601500
| 35> H                  -1.64622200    6.25090200   -0.27252400
| 36> H                   3.49458900    1.13360400   -0.36137300
| 37> O                  -1.03310700    1.08102900   -0.18618800
| 38> O                   1.50541700   -2.84929500    0.13859500
| 39> O                  -3.82076100    4.86513800   -0.31508400
| 40> C                   2.47273600    3.49384400   -0.36190800
| 41> C                   2.69883400    4.23995900   -1.51950500
| 42> C                   3.44361800    3.50094300    0.65171600
| 43> C                   3.85366200    4.98950200   -1.67470000
| 44> H                   1.95893500    4.21651800   -2.31090400
| 45> C                   4.60885400    4.24115100    0.47221100
| 46> C                   4.81337300    4.99253300   -0.67304700
| 47> H                   4.00503700    5.56296000   -2.58045400
| 48> H                   5.35364300    4.22379200    1.25827700
| 49> H                   5.71936700    5.57461700   -0.78646100
| 50> C                   3.25485300    2.74620200    1.94076200
| 51> O                   4.26264600    2.16215400    2.42321100
| 52> O                   2.11324100    2.75797000    2.47071000
| 53> C                  -3.63010000    2.01597500   -0.30242700
| 54> C                  -4.68912700    2.22171200    0.58946600
| 55> C                  -3.73405500    0.95475000   -1.20658500
| 56> C                  -5.79890500    1.39914700    0.58280800
| 57> H                  -4.63139500    3.03644900    1.29752500
| 58> C                  -4.84641100    0.13003900   -1.22486100
| 59> H                  -2.93582100    0.77764400   -1.91595500
| 60> C                  -5.88562400    0.35412800   -0.33157900
| 61> H                  -6.60450700    1.56864900    1.28680700
| 62> H                  -4.90752300   -0.68352200   -1.93678100
| 63> C                  -1.05499400   -1.66637300    0.12151500
| 64> C                  -2.02167300   -1.33450000    1.07464700
| 65> C                  -1.29313800   -2.77983400   -0.69190800
| 66> C                  -3.17891600   -2.08171300    1.21766200
| 67> H                  -1.85939100   -0.48509200    1.72588700
| 68> C                  -2.44855700   -3.52574200   -0.56201100
| 69> H                  -0.55954000   -3.05617800   -1.43648900
| 70> C                  -3.39267700   -3.18414200    0.40154400
| 71> H                  -3.91028000   -1.81061100    1.96826300
| 72> H                  -2.61863000   -4.38023100   -1.20556200
| 73> C                   3.99474900   -1.44309900   -0.15135800
| 74> C                   5.08770600   -0.80947800    0.45258100
| 75> C                   4.21957300   -2.67704800   -0.77819600
| 76> C                   6.35152800   -1.37316400    0.42994400
| 77> H                   4.93850500    0.13445000    0.96641800
| 78> C                   5.47982200   -3.24094700   -0.80682600
| 79> H                   3.39494000   -3.18538400   -1.25482000
| 80> C                   6.55223000   -2.59330500   -0.19998700
| 81> H                   7.17820300   -0.86699200    0.91047700
| 82> H                   5.63668800   -4.18961400   -1.30661300
| 83> C                  -7.08497800   -0.53032900   -0.30357300
| 84> C                  -4.63860500   -3.99472000    0.51110700
| 85> C                   7.89544300   -3.23796600   -0.23299000
| 86> F                   8.85063900   -2.49701700    0.34675200
| 87> F                   8.31390400   -3.48907800   -1.49318500
| 88> F                   7.90463900   -4.43557600    0.39533800
| 89> F                  -4.39417900   -5.32032900    0.45561000
| 90> F                  -5.31171900   -3.77545300    1.64995800
| 91> F                  -5.50260900   -3.74185300   -0.49977000
| 92> F                  -7.20423100   -1.29237500   -1.40047400
| 93> F                  -7.07063800   -1.37756500    0.75233200
| 94> F                  -8.23395800    0.16792900   -0.19059600
| 95> Na                  2.92809000    1.39962500    4.10281200
| 96> *
| 97>
| 98>
| 99>
|100>                          ****END OF INPUT****

CARTESIAN COORDINATES (ANGSTROEM)
---------------------------------
  C     -2.681128    4.354684   -0.296241
  C     -2.466385    2.916473   -0.293162
  C     -1.174349    2.432258   -0.272835
  C     -0.016190    3.255731   -0.292270
  C     -0.239953    4.659020   -0.283804
  C     -1.491814    5.178334   -0.284518
  C      1.251456    2.661809   -0.277401
  C      1.359777    1.261278   -0.221550
  C      0.183453    0.477088   -0.128720
  C      0.193543   -0.896589   -0.014415
  C      1.457939   -1.611065   -0.008492
  C      2.672665   -0.802773   -0.141872
  C      2.584308    0.559682   -0.238747
  H      0.620455    5.316564   -0.266015
  H     -1.646222    6.250902   -0.272524
  H      3.494589    1.133604   -0.361373
  O     -1.033107    1.081029   -0.186188
  O      1.505417   -2.849295    0.138595
  O     -3.820761    4.865138   -0.315084
  C      2.472736    3.493844   -0.361908
  C      2.698834    4.239959   -1.519505
  C      3.443618    3.500943    0.651716
  C      3.853662    4.989502   -1.674700
  H      1.958935    4.216518   -2.310904
  C      4.608854    4.241151    0.472211
  C      4.813373    4.992533   -0.673047
  H      4.005037    5.562960   -2.580454
  H      5.353643    4.223792    1.258277
  H      5.719367    5.574617   -0.786461
  C      3.254853    2.746202    1.940762
  O      4.262646    2.162154    2.423211
  O      2.113241    2.757970    2.470710
  C     -3.630100    2.015975   -0.302427
  C     -4.689127    2.221712    0.589466
  C     -3.734055    0.954750   -1.206585
  C     -5.798905    1.399147    0.582808
  H     -4.631395    3.036449    1.297525
  C     -4.846411    0.130039   -1.224861
  H     -2.935821    0.777644   -1.915955
  C     -5.885624    0.354128   -0.331579
  H     -6.604507    1.568649    1.286807
  H     -4.907523   -0.683522   -1.936781
  C     -1.054994   -1.666373    0.121515
  C     -2.021673   -1.334500    1.074647
  C     -1.293138   -2.779834   -0.691908
  C     -3.178916   -2.081713    1.217662
  H     -1.859391   -0.485092    1.725887
  C     -2.448557   -3.525742   -0.562011
  H     -0.559540   -3.056178   -1.436489
  C     -3.392677   -3.184142    0.401544
  H     -3.910280   -1.810611    1.968263
  H     -2.618630   -4.380231   -1.205562
  C      3.994749   -1.443099   -0.151358
  C      5.087706   -0.809478    0.452581
  C      4.219573   -2.677048   -0.778196
  C      6.351528   -1.373164    0.429944
  H      4.938505    0.134450    0.966418
  C      5.479822   -3.240947   -0.806826
  H      3.394940   -3.185384   -1.254820
  C      6.552230   -2.593305   -0.199987
  H      7.178203   -0.866992    0.910477
  H      5.636688   -4.189614   -1.306613
  C     -7.084978   -0.530329   -0.303573
  C     -4.638605   -3.994720    0.511107
  C      7.895443   -3.237966   -0.232990
  F      8.850639   -2.497017    0.346752
  F      8.313904   -3.489078   -1.493185
  F      7.904639   -4.435576    0.395338
  F     -4.394179   -5.320329    0.455610
  F     -5.311719   -3.775453    1.649958
  F     -5.502609   -3.741853   -0.499770
  F     -7.204231   -1.292375   -1.400474
  F     -7.070638   -1.377565    0.752332
  F     -8.233958    0.167929   -0.190596
  Na     2.928090    1.399625    4.102812

 Total Charge           Charge          ....   -1
 Multiplicity           Mult            ....    1
 Number of Electrons    NEL             ....  398
 Basis Dimension        Dim             .... 1851

ORBITAL ENERGIES
----------------

  NO   OCC          E(Eh)            E(eV)
   0   2.0000     -39.695878     -1080.1797
   1   2.0000     -25.717309      -699.8036
   2   2.0000     -25.715327      -699.7496
   3   2.0000     -25.715154      -699.7449
   4   2.0000     -25.711996      -699.6590
   5   2.0000     -25.711959      -699.6580
   6   2.0000     -25.711927      -699.6571
   7   2.0000     -25.711401      -699.6428
   8   2.0000     -25.708721      -699.5699
   9   2.0000     -25.708648      -699.5679
  10   2.0000     -20.073065      -546.2159
  11   2.0000     -19.956586      -543.0463
  12   2.0000     -19.956125      -543.0338
  13   2.0000     -19.942840      -542.6723
  14   2.0000     -19.942663      -542.6675
  15   2.0000     -11.092457      -301.8411
  16   2.0000     -11.090977      -301.8008
  17   2.0000     -11.090890      -301.7985
  18   2.0000     -10.932825      -297.4973
  19   2.0000     -10.912925      -296.9558
  20   2.0000     -10.911392      -296.9141
  21   2.0000     -10.892263      -296.3935
  22   2.0000     -10.888617      -296.2943
  23   2.0000     -10.881224      -296.0932
  24   2.0000     -10.848902      -295.2136
  25   2.0000     -10.846487      -295.1479
  26   2.0000     -10.845587      -295.1234
  27   2.0000     -10.845432      -295.1192
  28   2.0000     -10.843265      -295.0602
  29   2.0000     -10.842079      -295.0280
  30   2.0000     -10.842034      -295.0267
  31   2.0000     -10.838731      -294.9369
  32   2.0000     -10.836847      -294.8856
  33   2.0000     -10.836298      -294.8707
  34   2.0000     -10.835788      -294.8568
  35   2.0000     -10.835352      -294.8449
  36   2.0000     -10.835094      -294.8379
  37   2.0000     -10.835068      -294.8372
  38   2.0000     -10.834526      -294.8224
  39   2.0000     -10.834375      -294.8183
  40   2.0000     -10.832304      -294.7620
  41   2.0000     -10.830083      -294.7016
  42   2.0000     -10.829917      -294.6970
  43   2.0000     -10.829442      -294.6841
  44   2.0000     -10.828822      -294.6672
  45   2.0000     -10.828337      -294.6540
  46   2.0000     -10.825476      -294.5762
  47   2.0000     -10.825333      -294.5723
  48   2.0000     -10.825093      -294.5658
  49   2.0000     -10.824874      -294.5598
  50   2.0000     -10.824542      -294.5508
  51   2.0000     -10.824325      -294.5449
  52   2.0000     -10.822163      -294.4860
  53   2.0000     -10.815536      -294.3057
  54   2.0000     -10.815445      -294.3032
  55   2.0000     -10.807720      -294.0930
  56   2.0000      -2.558062       -69.6084
  57   2.0000      -1.569462       -42.7072
  58   2.0000      -1.568390       -42.6781
  59   2.0000      -1.567605       -42.6567
  60   2.0000      -1.478241       -40.2250
  61   2.0000      -1.477006       -40.1914
  62   2.0000      -1.476645       -40.1815
  63   2.0000      -1.471941       -40.0536
  64   2.0000      -1.470789       -40.0222
  65   2.0000      -1.470174       -40.0055
  66   2.0000      -1.363676       -37.1075
  67   2.0000      -1.362820       -37.0842
  68   2.0000      -1.361914       -37.0596
  69   2.0000      -1.327935       -36.1350
  70   2.0000      -1.255013       -34.1506
  71   2.0000      -1.202808       -32.7301
  72   2.0000      -1.199152       -32.6306
  73   2.0000      -1.151905       -31.3449
  74   2.0000      -1.070092       -29.1187
  75   2.0000      -1.061952       -28.8972
  76   2.0000      -1.059476       -28.8298
  77   2.0000      -1.058532       -28.8041
  78   2.0000      -1.038285       -28.2532
  79   2.0000      -1.035516       -28.1778
  80   2.0000      -0.988130       -26.8884
  81   2.0000      -0.981256       -26.7013
  82   2.0000      -0.967631       -26.3306
  83   2.0000      -0.950988       -25.8777
  84   2.0000      -0.930742       -25.3268
  85   2.0000      -0.926714       -25.2172
  86   2.0000      -0.920638       -25.0518
  87   2.0000      -0.920243       -25.0411
  88   2.0000      -0.919036       -25.0082
  89   2.0000      -0.913924       -24.8691
  90   2.0000      -0.904307       -24.6075
  91   2.0000      -0.888075       -24.1657
  92   2.0000      -0.861987       -23.4559
  93   2.0000      -0.854311       -23.2470
  94   2.0000      -0.849868       -23.1261
  95   2.0000      -0.804666       -21.8961
  96   2.0000      -0.797361       -21.6973
  97   2.0000      -0.784622       -21.3507
  98   2.0000      -0.776368       -21.1260
  99   2.0000      -0.769187       -20.9306
 100   2.0000      -0.763312       -20.7708
 101   2.0000      -0.762388       -20.7456
 102   2.0000      -0.761326       -20.7167
 103   2.0000      -0.755406       -20.5556
 104   2.0000      -0.748035       -20.3551
 105   2.0000      -0.734319       -19.9818
 106   2.0000      -0.733631       -19.9631
 107   2.0000      -0.730445       -19.8764
 108   2.0000      -0.727419       -19.7941
 109   2.0000      -0.724603       -19.7175
 110   2.0000      -0.722159       -19.6509
 111   2.0000      -0.719539       -19.5797
 112   2.0000      -0.715248       -19.4629
 113   2.0000      -0.697108       -18.9693
 114   2.0000      -0.694147       -18.8887
 115   2.0000      -0.691320       -18.8118
 116   2.0000      -0.673371       -18.3233
 117   2.0000      -0.665502       -18.1092
 118   2.0000      -0.655130       -17.8270
 119   2.0000      -0.642026       -17.4704
 120   2.0000      -0.626017       -17.0348
 121   2.0000      -0.623724       -16.9724
 122   2.0000      -0.622592       -16.9416
 123   2.0000      -0.620285       -16.8788
 124   2.0000      -0.619887       -16.8680
 125   2.0000      -0.618118       -16.8199
 126   2.0000      -0.616203       -16.7677
 127   2.0000      -0.612352       -16.6629
 128   2.0000      -0.596888       -16.2421
 129   2.0000      -0.595037       -16.1918
 130   2.0000      -0.593126       -16.1398
 131   2.0000      -0.587577       -15.9888
 132   2.0000      -0.582785       -15.8584
 133   2.0000      -0.581352       -15.8194
 134   2.0000      -0.578913       -15.7530
 135   2.0000      -0.576254       -15.6807
 136   2.0000      -0.575431       -15.6583
 137   2.0000      -0.575295       -15.6546
 138   2.0000      -0.574295       -15.6274
 139   2.0000      -0.569901       -15.5078
 140   2.0000      -0.569569       -15.4988
 141   2.0000      -0.567115       -15.4320
 142   2.0000      -0.562580       -15.3086
 143   2.0000      -0.560909       -15.2631
 144   2.0000      -0.560136       -15.2421
 145   2.0000      -0.558422       -15.1954
 146   2.0000      -0.557008       -15.1570
 147   2.0000      -0.556558       -15.1447
 148   2.0000      -0.555067       -15.1041
 149   2.0000      -0.550644       -14.9838
 150   2.0000      -0.548233       -14.9182
 151   2.0000      -0.545929       -14.8555
 152   2.0000      -0.538452       -14.6520
 153   2.0000      -0.536135       -14.5890
 154   2.0000      -0.530611       -14.4387
 155   2.0000      -0.525472       -14.2988
 156   2.0000      -0.523842       -14.2545
 157   2.0000      -0.523277       -14.2391
 158   2.0000      -0.516123       -14.0444
 159   2.0000      -0.513585       -13.9754
 160   2.0000      -0.508334       -13.8325
 161   2.0000      -0.505727       -13.7615
 162   2.0000      -0.500275       -13.6132
 163   2.0000      -0.487332       -13.2610
 164   2.0000      -0.482479       -13.1289
 165   2.0000      -0.480765       -13.0823
 166   2.0000      -0.471630       -12.8337
 167   2.0000      -0.471040       -12.8177
 168   2.0000      -0.465151       -12.6574
 169   2.0000      -0.463188       -12.6040
 170   2.0000      -0.459899       -12.5145
 171   2.0000      -0.457075       -12.4376
 172   2.0000      -0.453907       -12.3514
 173   2.0000      -0.449722       -12.2376
 174   2.0000      -0.445827       -12.1316
 175   2.0000      -0.443166       -12.0592
 176   2.0000      -0.439678       -11.9642
 177   2.0000      -0.438817       -11.9408
 178   2.0000      -0.437407       -11.9024
 179   2.0000      -0.424400       -11.5485
 180   2.0000      -0.416310       -11.3284
 181   2.0000      -0.402406       -10.9500
 182   2.0000      -0.369032       -10.0419
 183   2.0000      -0.366711        -9.9787
 184   2.0000      -0.356833        -9.7099
 185   2.0000      -0.352684        -9.5970
 186   2.0000      -0.337219        -9.1762
 187   2.0000      -0.334551        -9.1036
 188   2.0000      -0.333311        -9.0699
 189   2.0000      -0.330407        -8.9908
 190   2.0000      -0.316015        -8.5992
 191   2.0000      -0.314886        -8.5685
 192   2.0000      -0.312627        -8.5070
 193   2.0000      -0.308999        -8.4083
 194   2.0000      -0.306665        -8.3448
 195   2.0000      -0.300494        -8.1769
 196   2.0000      -0.281616        -7.6632
 197   2.0000      -0.261304        -7.1105
 198   2.0000      -0.218066        -5.9339
 199   0.0000      -0.007874        -0.2143
 200   0.0000       0.017976         0.4892
 201   0.0000       0.031644         0.8611
 202   0.0000       0.042224         1.1490
 203   0.0000       0.050189         1.3657

MULLIKEN ATOMIC CHARGES
-----------------------
   0 C :    0.349195
   1 C :   -0.154250
   2 C :    0.309896
   3 C :    0.080468
   4 C :   -0.224592
   5 C :   -0.364061
   6 C :    0.452759
   7 C :    0.134869
   8 C :    0.300542
   9 C :   -0.092933
  10 C :    0.271999
  11 C :    0.027893
  12 C :   -0.317125
  13 H :    0.178287
  14 H :    0.130334
  15 H :    0.202409
  16 O :   -0.297729
  17 O :   -0.577156
  18 O :   -0.581197
  19 C :   -0.029319
  20 C :   -0.356575
  21 C :   -0.035761
  22 C :   -0.122351
  23 H :    0.166692
  24 C :   -0.176411
  25 C :   -0.174578
  26 H :    0.165303
  27 H :    0.164254
  28 H :    0.163725
  29 C :    0.437201
  30 O :   -0.679807
  31 O :   -0.674812
  32 C :    0.112809
  33 C :   -0.207783
  34 C :   -0.217573
  35 C :   -0.245709
  36 H :    0.147144
  37 C :   -0.202461
  38 H :    0.151632
  39 C :    0.077490
  40 H :    0.169671
  41 H :    0.167873
  42 C :    0.042424
  43 C :   -0.227147
  44 C :   -0.214665
  45 C :   -0.209681
  46 H :    0.153472
  47 C :   -0.249367
  48 H :    0.149779
  49 C :    0.085961
  50 H :    0.167635
  51 H :    0.168436
  52 C :    0.083755
  53 C :   -0.266768
  54 C :   -0.220292
  55 C :   -0.211288
  56 H :    0.189247
  57 C :   -0.233588
  58 H :    0.152898
  59 C :    0.084463
  60 H :    0.171078
  61 H :    0.169762
  62 C :    0.639027
  63 C :    0.637903
  64 C :    0.619578
  65 F :   -0.236625
  66 F :   -0.243900
  67 F :   -0.244048
  68 F :   -0.243402
  69 F :   -0.241969
  70 F :   -0.245286
  71 F :   -0.241595
  72 F :   -0.245380
  73 F :   -0.243170
  74 Na:    0.872489
Sum of atomic charges:   -1.0000000

LOEWDIN ATOMIC CHARGES
----------------------
   0 C :   -0.312352
   1 C :   -0.098126
   2 C :   -0.112792
   3 C :   -0.116191
   4 C :   -0.086279
   5 C :   -0.150587
   6 C :    0.038335
   7 C :   -0.113252
   8 C :   -0.116487
   9 C :   -0.094846
  10 C :   -0.268683
  11 C :   -0.099796
  12 C :   -0.033858
  13 H :    0.163529
  14 H :    0.145894
  15 H :    0.172707
  16 O :    0.361752
  17 O :   -0.055324
  18 O :   -0.076101
  19 C :   -0.057352
  20 C :   -0.090658
  21 C :   -0.070096
  22 C :   -0.132925
  23 H :    0.161062
  24 C :   -0.095535
  25 C :   -0.134139
  26 H :    0.153319
  27 H :    0.158073
  28 H :    0.152561
  29 C :   -0.491351
  30 O :   -0.026462
  31 O :   -0.012427
  32 C :   -0.090407
  33 C :   -0.088193
  34 C :   -0.090918
  35 C :   -0.096851
  36 H :    0.156541
  37 C :   -0.095603
  38 H :    0.156599
  39 C :   -0.147722
  40 H :    0.160012
  41 H :    0.158867
  42 C :   -0.089085
  43 C :   -0.090944
  44 C :   -0.087673
  45 C :   -0.095444
  46 H :    0.156861
  47 C :   -0.096897
  48 H :    0.156684
  49 C :   -0.147220
  50 H :    0.158851
  51 H :    0.159865
  52 C :   -0.089003
  53 C :   -0.096794
  54 C :   -0.091581
  55 C :   -0.095747
  56 H :    0.159215
  57 C :   -0.095495
  58 H :    0.156296
  59 C :   -0.147711
  60 H :    0.158751
  61 H :    0.160775
  62 C :   -0.549288
  63 C :   -0.549244
  64 C :   -0.546812
  65 F :    0.165279
  66 F :    0.144122
  67 F :    0.141927
  68 F :    0.149248
  69 F :    0.165391
  70 F :    0.142043
  71 F :    0.165488
  72 F :    0.141705
  73 F :    0.149059
  74 Na:    0.553436

  Mayer bond orders larger than 0.100000
B(  0-C ,  1-C ) :   1.0013 B(  0-C ,  5-C ) :   1.1810 B(  0-C , 18-O ) :   1.8990
B(  1-C ,  2-C ) :   1.3557 B(  1-C , 18-O ) :  -0.1246 B(  1-C , 32-C ) :   0.8364
B(  2-C ,  3-C ) :   1.2783 B(  2-C , 16-O ) :   1.0564 B(  3-C ,  4-C ) :   1.1429
B(  3-C ,  6-C ) :   1.2164 B(  4-C ,  5-C ) :   1.6467 B(  4-C , 13-H ) :   0.9620
B(  5-C , 14-H ) :   1.0077 B(  6-C ,  7-C ) :   1.1099 B(  6-C , 19-C ) :   0.6473
B(  6-C , 20-C ) :  -0.1314 B(  6-C , 21-C ) :  -0.1443 B(  7-C ,  8-C ) :   1.2921
B(  7-C , 12-C ) :   1.1346 B(  7-C , 19-C ) :  -0.1129 B(  8-C ,  9-C ) :   1.4307
B(  8-C , 16-O ) :   1.0720 B(  9-C , 10-C ) :   1.0768 B(  9-C , 17-O ) :  -0.1618
B(  9-C , 42-C ) :   0.8215 B( 10-C , 11-C ) :   1.1075 B( 10-C , 17-O ) :   1.9717
B( 11-C , 12-C ) :   1.5559 B( 11-C , 17-O ) :  -0.1469 B( 11-C , 52-C ) :   0.8375
B( 12-C , 15-H ) :   0.9459 B( 19-C , 20-C ) :   1.4219 B( 19-C , 21-C ) :   1.3503
B( 20-C , 22-C ) :   1.4338 B( 20-C , 23-H ) :   0.9922 B( 21-C , 24-C ) :   1.4120
B( 21-C , 29-C ) :   0.9008 B( 22-C , 25-C ) :   1.3887 B( 22-C , 26-H ) :   0.9817
B( 24-C , 25-C ) :   1.3975 B( 24-C , 27-H ) :   0.9812 B( 25-C , 28-H ) :   0.9832
B( 29-C , 30-O ) :   1.5822 B( 29-C , 31-O ) :   1.6157 B( 30-O , 74-Na) :   0.1094
B( 31-O , 74-Na) :   0.1141 B( 32-C , 33-C ) :   1.3565 B( 32-C , 34-C ) :   1.3544
B( 33-C , 35-C ) :   1.4639 B( 33-C , 36-H ) :   0.9840 B( 34-C , 37-C ) :   1.4396
B( 34-C , 38-H ) :   0.9895 B( 35-C , 39-C ) :   1.3423 B( 35-C , 40-H ) :   0.9802
B( 37-C , 39-C ) :   1.3360 B( 37-C , 41-H ) :   0.9855 B( 39-C , 62-C ) :   1.0533
B( 42-C , 43-C ) :   1.3600 B( 42-C , 44-C ) :   1.3631 B( 43-C , 45-C ) :   1.4367
B( 43-C , 46-H ) :   0.9904 B( 44-C , 47-C ) :   1.4713 B( 44-C , 48-H ) :   0.9837
B( 45-C , 49-C ) :   1.3428 B( 45-C , 50-H ) :   0.9854 B( 47-C , 49-C ) :   1.3375
B( 47-C , 51-H ) :   0.9824 B( 49-C , 63-C ) :   1.0545 B( 52-C , 53-C ) :   1.3759
B( 52-C , 54-C ) :   1.3407 B( 53-C , 55-C ) :   1.4470 B( 53-C , 56-H ) :   0.9470
B( 54-C , 57-C ) :   1.4610 B( 54-C , 58-H ) :   0.9804 B( 55-C , 59-C ) :   1.3526
B( 55-C , 60-H ) :   0.9791 B( 57-C , 59-C ) :   1.3399 B( 57-C , 61-H ) :   0.9810
B( 59-C , 64-C ) :   1.0515 B( 62-C , 71-F ) :   1.0515 B( 62-C , 72-F ) :   1.0497
B( 62-C , 73-F ) :   1.0667 B( 63-C , 68-F ) :   1.0666 B( 63-C , 69-F ) :   1.0507
B( 63-C , 70-F ) :   1.0494 B( 64-C , 65-F ) :   1.0716 B( 64-C , 66-F ) :   1.0665
B( 64-C , 67-F ) :   1.0666

MP2 TOTAL ENERGY:    -3008.923396910 Eh

-----------------------------------------------------------------------------
         ABSORPTION SPECTRUM VIA TRANSITION ELECTRIC DIPOLE MOMENTS
-----------------------------------------------------------------------------
State   Energy    Wavelength  fosc         T2        TX        TY        TZ
        (cm-1)      (nm)                 (au**2)    (au)      (au)      (au)
-----------------------------------------------------------------------------
   1    9564.5   1045.5   0.442537654  15.23222   2.55712  -2.94340   0.17255
   2   17385.8    575.2   0.160868124   3.04615  -1.68810  -0.43131   0.10220
   3   15013.1    666.1   0.009427355   0.20673   0.38004  -0.23869  -0.07298
   4   19191.4    521.1   0.067064401   1.15044  -0.69298  -0.81825  -0.02623
   5   28410.1    352.0   0.081019665   0.93884   0.58782   0.76991  -0.02349
   6   25830.1    387.1   0.319197533   4.06827  -1.38727  -1.46259   0.06766
   7   23854.5    419.2   0.135016741   1.86334  -1.35591   0.15296  -0.03813
   8   15455.9    647.0   0.026953265   0.57411   0.72921   0.20574  -0.00578
   9   15074.7    663.4   0.002172704   0.04745  -0.21236  -0.04127  -0.02546
  10   25108.8    398.3   0.065703103   0.86146   0.88293   0.28264   0.04476
  11   23113.8    432.6   0.018010735   0.25653   0.18075   0.47263  -0.02195
  12   26142.8    382.5   0.021164342   0.26652   0.36139  -0.36857   0.00846
  13   26578.1    376.2   0.055528165   0.68780   0.73412  -0.36395   0.12811
  14   25984.8    384.8   0.028296651   0.35850  -0.39512   0.41623  -0.17069
  15   26830.7    372.7   0.024792158   0.30420  -0.45978   0.30411  -0.01789
  16   26220.7    381.4   0.041616832   0.52252  -0.55740  -0.29812   0.35064
  17   23995.1    416.8   0.068246747   0.93634  -0.07219   0.95904  -0.10664
  18   29252.1    341.9   0.021667407   0.24385   0.01829   0.46491  -0.16546
  19   31166.3    320.9   0.132168523   1.39610  -1.13841   0.30649   0.07873
  20   25689.5    389.3   0.005643936   0.07233  -0.16067   0.20082   0.07864
  21   30519.5    327.7   0.016315036   0.17599  -0.25214   0.23624   0.23792
  22   29688.1    336.8   0.092406333   1.02469   0.91656   0.41411  -0.11456
  23   32425.5    308.4   0.070725430   0.71807  -0.41756  -0.72609  -0.12844
  24   36406.0    274.7   0.056208151   0.50828   0.02544   0.38846  -0.59727
  25   32464.3    308.0   0.018486296   0.18746  -0.42076  -0.01198   0.10138
  26   31761.5    314.8   0.020963401   0.21729  -0.14703  -0.38836  -0.21177
  27   30264.1    330.4   0.061756094   0.67178   0.46465  -0.39256  -0.54934
  28   31366.2    318.8   0.011014424   0.11560  -0.17068   0.23014   0.18305
  29   30101.7    332.2   0.044786481   0.48981   0.55518  -0.42078   0.06733
  30   35264.6    283.6   0.050584343   0.47223   0.15645   0.54360   0.39020

Dispersion correction           -0.082008240
FINAL SINGLE POINT ENERGY     -3004.101108162395

DIPOLE MOMENT
-------------
                                X             Y             Z
Electronic contribution:    -15.86010     -39.82926      13.06701
Nuclear contribution   :     20.48611      40.73123     -10.60541
                        -----------------------------------------
Total Dipole Moment    :      4.62601       0.90197       2.46160
                        -----------------------------------------
Magnitude (a.u.)       :      5.31723
Magnitude (Debye)      :     13.51534

Rotational constants in cm-1:     0.002147     0.000923     0.000699
Rotational constants in MHz :    64.354030    27.675472    20.969670

                             ****ORCA TERMINATED NORMALLY****
TOTAL RUN TIME: 2 days 18 hours 11 minutes 58 seconds 945 msec
