                         Program Version 5.0.2 -  RELEASE  -
|  1> %maxcore 20000
|  2> %pal
|  3>  nprocs= 4
|  4> end
|  5> ! RI-wPBEPP86   def2-TZVP def2/J def2-TZVP/C RIJCOSX CPCM TightSCF
|  6> %TDDFT
|  7>    NROOTS   30
|  8>    dcorr 1
|  9>    TDA      FALSE
| 10> END
| 11>
| 12>  %CPCM
| 13>    SMD          TRUE
| 14>    SMDsolvent   "ACETONITRILE"
| 15>  END
| 16>
| 17>
| 18> * xyz -1 1
| 19> C                  -2.68112800    4.35468400   -0.29624100
| 20> C                  -2.46638500    2.91647300   -0.29316200
| 21> C                  -1.17434900    2.43225800   -0.27283500
| 22> C                  -0.01619000    3.25573100   -0.29227000
| 23> C                  -0.23995300    4.65902000   -0.28380400
| 24> C                  -1.49181400    5.17833400   -0.28451800
| 25> C                   1.25145600    2.66180900   -0.27740100
| 26> C                   1.35977700    1.26127800   -0.22155000
| 27> C                   0.18345300    0.47708800   -0.12872000
| 28> C                   0.19354300   -0.89658900   -0.01441500
| 29> C                   1.45793900   -1.61106500   -0.00849200
| 30> C                   2.67266500   -0.80277300   -0.14187200
| 31> C                   2.58430800    0.55968200   -0.23874700
| 32> H                   0.62045500    5.31656400   -0.26601500
| 33> H                  -1.64622200    6.25090200   -0.27252400
| 34> H                   3.49458900    1.13360400   -0.36137300
| 35> O                  -1.03310700    1.08102900   -0.18618800
| 36> O                   1.50541700   -2.84929500    0.13859500
| 37> O                  -3.82076100    4.86513800   -0.31508400
| 38> C                   2.47273600    3.49384400   -0.36190800
| 39> C                   2.69883400    4.23995900   -1.51950500
| 40> C                   3.44361800    3.50094300    0.65171600
| 41> C                   3.85366200    4.98950200   -1.67470000
| 42> H                   1.95893500    4.21651800   -2.31090400
| 43> C                   4.60885400    4.24115100    0.47221100
| 44> C                   4.81337300    4.99253300   -0.67304700
| 45> H                   4.00503700    5.56296000   -2.58045400
| 46> H                   5.35364300    4.22379200    1.25827700
| 47> H                   5.71936700    5.57461700   -0.78646100
| 48> C                   3.25485300    2.74620200    1.94076200
| 49> O                   4.26264600    2.16215400    2.42321100
| 50> O                   2.11324100    2.75797000    2.47071000
| 51> C                  -3.63010000    2.01597500   -0.30242700
| 52> C                  -4.68912700    2.22171200    0.58946600
| 53> C                  -3.73405500    0.95475000   -1.20658500
| 54> C                  -5.79890500    1.39914700    0.58280800
| 55> H                  -4.63139500    3.03644900    1.29752500
| 56> C                  -4.84641100    0.13003900   -1.22486100
| 57> H                  -2.93582100    0.77764400   -1.91595500
| 58> C                  -5.88562400    0.35412800   -0.33157900
| 59> H                  -6.60450700    1.56864900    1.28680700
| 60> H                  -4.90752300   -0.68352200   -1.93678100
| 61> C                  -1.05499400   -1.66637300    0.12151500
| 62> C                  -2.02167300   -1.33450000    1.07464700
| 63> C                  -1.29313800   -2.77983400   -0.69190800
| 64> C                  -3.17891600   -2.08171300    1.21766200
| 65> H                  -1.85939100   -0.48509200    1.72588700
| 66> C                  -2.44855700   -3.52574200   -0.56201100
| 67> H                  -0.55954000   -3.05617800   -1.43648900
| 68> C                  -3.39267700   -3.18414200    0.40154400
| 69> H                  -3.91028000   -1.81061100    1.96826300
| 70> H                  -2.61863000   -4.38023100   -1.20556200
| 71> C                   3.99474900   -1.44309900   -0.15135800
| 72> C                   5.08770600   -0.80947800    0.45258100
| 73> C                   4.21957300   -2.67704800   -0.77819600
| 74> C                   6.35152800   -1.37316400    0.42994400
| 75> H                   4.93850500    0.13445000    0.96641800
| 76> C                   5.47982200   -3.24094700   -0.80682600
| 77> H                   3.39494000   -3.18538400   -1.25482000
| 78> C                   6.55223000   -2.59330500   -0.19998700
| 79> H                   7.17820300   -0.86699200    0.91047700
| 80> H                   5.63668800   -4.18961400   -1.30661300
| 81> C                  -7.08497800   -0.53032900   -0.30357300
| 82> C                  -4.63860500   -3.99472000    0.51110700
| 83> C                   7.89544300   -3.23796600   -0.23299000
| 84> F                   8.85063900   -2.49701700    0.34675200
| 85> F                   8.31390400   -3.48907800   -1.49318500
| 86> F                   7.90463900   -4.43557600    0.39533800
| 87> F                  -4.39417900   -5.32032900    0.45561000
| 88> F                  -5.31171900   -3.77545300    1.64995800
| 89> F                  -5.50260900   -3.74185300   -0.49977000
| 90> F                  -7.20423100   -1.29237500   -1.40047400
| 91> F                  -7.07063800   -1.37756500    0.75233200
| 92> F                  -8.23395800    0.16792900   -0.19059600
| 93> Na                  2.92809000    1.39962500    4.10281200
| 94> *
| 95>
| 96>
| 97>
| 98>                          ****END OF INPUT****

CARTESIAN COORDINATES (ANGSTROEM)
---------------------------------
  C     -2.681128    4.354684   -0.296241
  C     -2.466385    2.916473   -0.293162
  C     -1.174349    2.432258   -0.272835
  C     -0.016190    3.255731   -0.292270
  C     -0.239953    4.659020   -0.283804
  C     -1.491814    5.178334   -0.284518
  C      1.251456    2.661809   -0.277401
  C      1.359777    1.261278   -0.221550
  C      0.183453    0.477088   -0.128720
  C      0.193543   -0.896589   -0.014415
  C      1.457939   -1.611065   -0.008492
  C      2.672665   -0.802773   -0.141872
  C      2.584308    0.559682   -0.238747
  H      0.620455    5.316564   -0.266015
  H     -1.646222    6.250902   -0.272524
  H      3.494589    1.133604   -0.361373
  O     -1.033107    1.081029   -0.186188
  O      1.505417   -2.849295    0.138595
  O     -3.820761    4.865138   -0.315084
  C      2.472736    3.493844   -0.361908
  C      2.698834    4.239959   -1.519505
  C      3.443618    3.500943    0.651716
  C      3.853662    4.989502   -1.674700
  H      1.958935    4.216518   -2.310904
  C      4.608854    4.241151    0.472211
  C      4.813373    4.992533   -0.673047
  H      4.005037    5.562960   -2.580454
  H      5.353643    4.223792    1.258277
  H      5.719367    5.574617   -0.786461
  C      3.254853    2.746202    1.940762
  O      4.262646    2.162154    2.423211
  O      2.113241    2.757970    2.470710
  C     -3.630100    2.015975   -0.302427
  C     -4.689127    2.221712    0.589466
  C     -3.734055    0.954750   -1.206585
  C     -5.798905    1.399147    0.582808
  H     -4.631395    3.036449    1.297525
  C     -4.846411    0.130039   -1.224861
  H     -2.935821    0.777644   -1.915955
  C     -5.885624    0.354128   -0.331579
  H     -6.604507    1.568649    1.286807
  H     -4.907523   -0.683522   -1.936781
  C     -1.054994   -1.666373    0.121515
  C     -2.021673   -1.334500    1.074647
  C     -1.293138   -2.779834   -0.691908
  C     -3.178916   -2.081713    1.217662
  H     -1.859391   -0.485092    1.725887
  C     -2.448557   -3.525742   -0.562011
  H     -0.559540   -3.056178   -1.436489
  C     -3.392677   -3.184142    0.401544
  H     -3.910280   -1.810611    1.968263
  H     -2.618630   -4.380231   -1.205562
  C      3.994749   -1.443099   -0.151358
  C      5.087706   -0.809478    0.452581
  C      4.219573   -2.677048   -0.778196
  C      6.351528   -1.373164    0.429944
  H      4.938505    0.134450    0.966418
  C      5.479822   -3.240947   -0.806826
  H      3.394940   -3.185384   -1.254820
  C      6.552230   -2.593305   -0.199987
  H      7.178203   -0.866992    0.910477
  H      5.636688   -4.189614   -1.306613
  C     -7.084978   -0.530329   -0.303573
  C     -4.638605   -3.994720    0.511107
  C      7.895443   -3.237966   -0.232990
  F      8.850639   -2.497017    0.346752
  F      8.313904   -3.489078   -1.493185
  F      7.904639   -4.435576    0.395338
  F     -4.394179   -5.320329    0.455610
  F     -5.311719   -3.775453    1.649958
  F     -5.502609   -3.741853   -0.499770
  F     -7.204231   -1.292375   -1.400474
  F     -7.070638   -1.377565    0.752332
  F     -8.233958    0.167929   -0.190596
  Na     2.928090    1.399625    4.102812

 Total Charge           Charge          ....   -1
 Multiplicity           Mult            ....    1
 Number of Electrons    NEL             ....  398
 Basis Dimension        Dim             .... 1851

ORBITAL ENERGIES
----------------

  NO   OCC          E(Eh)            E(eV)
   0   2.0000     -39.740407     -1081.3915
   1   2.0000     -25.768193      -701.1882
   2   2.0000     -25.766496      -701.1420
   3   2.0000     -25.766338      -701.1377
   4   2.0000     -25.762942      -701.0453
   5   2.0000     -25.762893      -701.0439
   6   2.0000     -25.762736      -701.0397
   7   2.0000     -25.762101      -701.0224
   8   2.0000     -25.759933      -700.9634
   9   2.0000     -25.759882      -700.9620
  10   2.0000     -20.127306      -547.6918
  11   2.0000     -20.006847      -544.4140
  12   2.0000     -20.006307      -544.3993
  13   2.0000     -19.994176      -544.0692
  14   2.0000     -19.993712      -544.0566
  15   2.0000     -11.129576      -302.8512
  16   2.0000     -11.128347      -302.8177
  17   2.0000     -11.128280      -302.8159
  18   2.0000     -10.971865      -298.5596
  19   2.0000     -10.956461      -298.1405
  20   2.0000     -10.954959      -298.0996
  21   2.0000     -10.934587      -297.5452
  22   2.0000     -10.930414      -297.4317
  23   2.0000     -10.926471      -297.3244
  24   2.0000     -10.891711      -296.3785
  25   2.0000     -10.888024      -296.2782
  26   2.0000     -10.887531      -296.2648
  27   2.0000     -10.887327      -296.2592
  28   2.0000     -10.885797      -296.2176
  29   2.0000     -10.884916      -296.1936
  30   2.0000     -10.884788      -296.1901
  31   2.0000     -10.880951      -296.0857
  32   2.0000     -10.879453      -296.0450
  33   2.0000     -10.877751      -295.9987
  34   2.0000     -10.877332      -295.9872
  35   2.0000     -10.876639      -295.9684
  36   2.0000     -10.876368      -295.9610
  37   2.0000     -10.876358      -295.9607
  38   2.0000     -10.875610      -295.9404
  39   2.0000     -10.875426      -295.9354
  40   2.0000     -10.873503      -295.8831
  41   2.0000     -10.872144      -295.8461
  42   2.0000     -10.870981      -295.8144
  43   2.0000     -10.870507      -295.8015
  44   2.0000     -10.870061      -295.7894
  45   2.0000     -10.868867      -295.7569
  46   2.0000     -10.866928      -295.7041
  47   2.0000     -10.866721      -295.6985
  48   2.0000     -10.866482      -295.6920
  49   2.0000     -10.866116      -295.6821
  50   2.0000     -10.865746      -295.6720
  51   2.0000     -10.865353      -295.6613
  52   2.0000     -10.864770      -295.6454
  53   2.0000     -10.857947      -295.4597
  54   2.0000     -10.857621      -295.4509
  55   2.0000     -10.848435      -295.2009
  56   2.0000      -2.608594       -70.9835
  57   2.0000      -1.621089       -44.1121
  58   2.0000      -1.620258       -44.0895
  59   2.0000      -1.619470       -44.0680
  60   2.0000      -1.528751       -41.5994
  61   2.0000      -1.527729       -41.5716
  62   2.0000      -1.527364       -41.5617
  63   2.0000      -1.522374       -41.4259
  64   2.0000      -1.521509       -41.4024
  65   2.0000      -1.520879       -41.3852
  66   2.0000      -1.407548       -38.3013
  67   2.0000      -1.406448       -38.2714
  68   2.0000      -1.405581       -38.2478
  69   2.0000      -1.382065       -37.6079
  70   2.0000      -1.306427       -35.5497
  71   2.0000      -1.255301       -34.1585
  72   2.0000      -1.251292       -34.0494
  73   2.0000      -1.202086       -32.7104
  74   2.0000      -1.122613       -30.5478
  75   2.0000      -1.114083       -30.3157
  76   2.0000      -1.111284       -30.2396
  77   2.0000      -1.110453       -30.2170
  78   2.0000      -1.090566       -29.6758
  79   2.0000      -1.087380       -29.5891
  80   2.0000      -1.039438       -28.2845
  81   2.0000      -1.032358       -28.0919
  82   2.0000      -1.018292       -27.7091
  83   2.0000      -1.001531       -27.2530
  84   2.0000      -0.981142       -26.6982
  85   2.0000      -0.976409       -26.5694
  86   2.0000      -0.970058       -26.3966
  87   2.0000      -0.969841       -26.3907
  88   2.0000      -0.968586       -26.3566
  89   2.0000      -0.963846       -26.2276
  90   2.0000      -0.954244       -25.9663
  91   2.0000      -0.937944       -25.5228
  92   2.0000      -0.911148       -24.7936
  93   2.0000      -0.903453       -24.5842
  94   2.0000      -0.898779       -24.4570
  95   2.0000      -0.853351       -23.2209
  96   2.0000      -0.846508       -23.0346
  97   2.0000      -0.833222       -22.6731
  98   2.0000      -0.824675       -22.4406
  99   2.0000      -0.817056       -22.2332
 100   2.0000      -0.811078       -22.0706
 101   2.0000      -0.810089       -22.0436
 102   2.0000      -0.808855       -22.0101
 103   2.0000      -0.803147       -21.8547
 104   2.0000      -0.795660       -21.6510
 105   2.0000      -0.781199       -21.2575
 106   2.0000      -0.780257       -21.2319
 107   2.0000      -0.777322       -21.1520
 108   2.0000      -0.774085       -21.0639
 109   2.0000      -0.771157       -20.9843
 110   2.0000      -0.768500       -20.9119
 111   2.0000      -0.766956       -20.8699
 112   2.0000      -0.761954       -20.7338
 113   2.0000      -0.743767       -20.2389
 114   2.0000      -0.741001       -20.1637
 115   2.0000      -0.738177       -20.0868
 116   2.0000      -0.720551       -19.6072
 117   2.0000      -0.712494       -19.3879
 118   2.0000      -0.703060       -19.1312
 119   2.0000      -0.689512       -18.7626
 120   2.0000      -0.671788       -18.2803
 121   2.0000      -0.668956       -18.2032
 122   2.0000      -0.667778       -18.1712
 123   2.0000      -0.665085       -18.0979
 124   2.0000      -0.664996       -18.0955
 125   2.0000      -0.663519       -18.0553
 126   2.0000      -0.661410       -17.9979
 127   2.0000      -0.658662       -17.9231
 128   2.0000      -0.642769       -17.4906
 129   2.0000      -0.640766       -17.4361
 130   2.0000      -0.640148       -17.4193
 131   2.0000      -0.634006       -17.2522
 132   2.0000      -0.627571       -17.0771
 133   2.0000      -0.625841       -17.0300
 134   2.0000      -0.624256       -16.9869
 135   2.0000      -0.620925       -16.8962
 136   2.0000      -0.620075       -16.8731
 137   2.0000      -0.619156       -16.8481
 138   2.0000      -0.618860       -16.8400
 139   2.0000      -0.614557       -16.7229
 140   2.0000      -0.613665       -16.6987
 141   2.0000      -0.610512       -16.6129
 142   2.0000      -0.605735       -16.4829
 143   2.0000      -0.604860       -16.4591
 144   2.0000      -0.604032       -16.4365
 145   2.0000      -0.602046       -16.3825
 146   2.0000      -0.600923       -16.3520
 147   2.0000      -0.600399       -16.3377
 148   2.0000      -0.599440       -16.3116
 149   2.0000      -0.595338       -16.2000
 150   2.0000      -0.592480       -16.1222
 151   2.0000      -0.590141       -16.0586
 152   2.0000      -0.583705       -15.8834
 153   2.0000      -0.580624       -15.7996
 154   2.0000      -0.573502       -15.6058
 155   2.0000      -0.568155       -15.4603
 156   2.0000      -0.565963       -15.4006
 157   2.0000      -0.565388       -15.3850
 158   2.0000      -0.559274       -15.2186
 159   2.0000      -0.557377       -15.1670
 160   2.0000      -0.553834       -15.0706
 161   2.0000      -0.550879       -14.9902
 162   2.0000      -0.543678       -14.7942
 163   2.0000      -0.533833       -14.5263
 164   2.0000      -0.527500       -14.3540
 165   2.0000      -0.525446       -14.2981
 166   2.0000      -0.516052       -14.0425
 167   2.0000      -0.514074       -13.9887
 168   2.0000      -0.510684       -13.8964
 169   2.0000      -0.506845       -13.7919
 170   2.0000      -0.505012       -13.7421
 171   2.0000      -0.502710       -13.6794
 172   2.0000      -0.499041       -13.5796
 173   2.0000      -0.491359       -13.3706
 174   2.0000      -0.486748       -13.2451
 175   2.0000      -0.485099       -13.2002
 176   2.0000      -0.479808       -13.0562
 177   2.0000      -0.478766       -13.0279
 178   2.0000      -0.477816       -13.0020
 179   2.0000      -0.470061       -12.7910
 180   2.0000      -0.457569       -12.4511
 181   2.0000      -0.448322       -12.1995
 182   2.0000      -0.411978       -11.2105
 183   2.0000      -0.410407       -11.1677
 184   2.0000      -0.400444       -10.8966
 185   2.0000      -0.396533       -10.7902
 186   2.0000      -0.380607       -10.3568
 187   2.0000      -0.377924       -10.2838
 188   2.0000      -0.376308       -10.2399
 189   2.0000      -0.373714       -10.1693
 190   2.0000      -0.358553        -9.7567
 191   2.0000      -0.357285        -9.7222
 192   2.0000      -0.354859        -9.6562
 193   2.0000      -0.350861        -9.5474
 194   2.0000      -0.348653        -9.4873
 195   2.0000      -0.342720        -9.3259
 196   2.0000      -0.323268        -8.7966
 197   2.0000      -0.302546        -8.2327
 198   2.0000      -0.256612        -6.9828
 199   0.0000      -0.001576        -0.0429
 200   0.0000       0.029834         0.8118
 201   0.0000       0.039928         1.0865
 202   0.0000       0.051031         1.3886
 203   0.0000       0.059617         1.6223

MULLIKEN ATOMIC CHARGES
-----------------------
   0 C :    0.353896
   1 C :   -0.168206
   2 C :    0.307071
   3 C :    0.060767
   4 C :   -0.232840
   5 C :   -0.387007
   6 C :    0.371727
   7 C :    0.113687
   8 C :    0.311321
   9 C :   -0.125422
  10 C :    0.291045
  11 C :    0.010885
  12 C :   -0.331930
  13 H :    0.208602
  14 H :    0.160585
  15 H :    0.247102
  16 O :   -0.257786
  17 O :   -0.567784
  18 O :   -0.572809
  19 C :   -0.070544
  20 C :   -0.361998
  21 C :   -0.051251
  22 C :   -0.141509
  23 H :    0.197417
  24 C :   -0.185295
  25 C :   -0.199939
  26 H :    0.189709
  27 H :    0.190579
  28 H :    0.187876
  29 C :    0.422745
  30 O :   -0.670646
  31 O :   -0.659524
  32 C :    0.099692
  33 C :   -0.234984
  34 C :   -0.249545
  35 C :   -0.248306
  36 H :    0.179724
  37 C :   -0.227519
  38 H :    0.183836
  39 C :    0.051181
  40 H :    0.197010
  41 H :    0.197624
  42 C :    0.032752
  43 C :   -0.258636
  44 C :   -0.239350
  45 C :   -0.234580
  46 H :    0.185759
  47 C :   -0.250588
  48 H :    0.182388
  49 C :    0.059964
  50 H :    0.197478
  51 H :    0.195769
  52 C :    0.099221
  53 C :   -0.284592
  54 C :   -0.248091
  55 C :   -0.226722
  56 H :    0.193328
  57 C :   -0.238619
  58 H :    0.182993
  59 C :    0.049182
  60 H :    0.196193
  61 H :    0.197286
  62 C :    0.586256
  63 C :    0.585277
  64 C :    0.572078
  65 F :   -0.217974
  66 F :   -0.223997
  67 F :   -0.224094
  68 F :   -0.223694
  69 F :   -0.221743
  70 F :   -0.223699
  71 F :   -0.221398
  72 F :   -0.223870
  73 F :   -0.223469
  74 Na:    0.879956
Sum of atomic charges:   -1.0000000

LOEWDIN ATOMIC CHARGES
----------------------
   0 C :   -0.318078
   1 C :   -0.102443
   2 C :   -0.115380
   3 C :   -0.121486
   4 C :   -0.089335
   5 C :   -0.153390
   6 C :    0.036546
   7 C :   -0.118466
   8 C :   -0.119248
   9 C :   -0.099082
  10 C :   -0.274071
  11 C :   -0.104068
  12 C :   -0.035715
  13 H :    0.169842
  14 H :    0.153216
  15 H :    0.178696
  16 O :    0.368480
  17 O :   -0.048631
  18 O :   -0.068725
  19 C :   -0.063638
  20 C :   -0.094846
  21 C :   -0.074870
  22 C :   -0.136442
  23 H :    0.167923
  24 C :   -0.098803
  25 C :   -0.137450
  26 H :    0.159909
  27 H :    0.164572
  28 H :    0.159130
  29 C :   -0.503242
  30 O :   -0.022054
  31 O :   -0.007191
  32 C :   -0.096856
  33 C :   -0.092126
  34 C :   -0.095975
  35 C :   -0.099588
  36 H :    0.163135
  37 C :   -0.100708
  38 H :    0.163415
  39 C :   -0.153190
  40 H :    0.166829
  41 H :    0.165573
  42 C :   -0.095629
  43 C :   -0.095955
  44 C :   -0.091480
  45 C :   -0.100562
  46 H :    0.163676
  47 C :   -0.099565
  48 H :    0.163375
  49 C :   -0.152643
  50 H :    0.165557
  51 H :    0.166697
  52 C :   -0.094308
  53 C :   -0.100376
  54 C :   -0.095792
  55 C :   -0.098446
  56 H :    0.163309
  57 C :   -0.098542
  58 H :    0.162380
  59 C :   -0.152963
  60 H :    0.165163
  61 H :    0.167548
  62 C :   -0.563258
  63 C :   -0.563236
  64 C :   -0.560224
  65 F :    0.170591
  66 F :    0.149669
  67 F :    0.147466
  68 F :    0.154952
  69 F :    0.170956
  70 F :    0.147616
  71 F :    0.171047
  72 F :    0.147242
  73 F :    0.154751
  74 Na:    0.558812

  Mayer bond orders larger than 0.100000
B(  0-C ,  1-C ) :   1.0145 B(  0-C ,  5-C ) :   1.1728 B(  0-C , 18-O ) :   1.8792
B(  1-C ,  2-C ) :   1.3687 B(  1-C , 18-O ) :  -0.1117 B(  1-C , 32-C ) :   0.8510
B(  2-C ,  3-C ) :   1.2815 B(  2-C , 16-O ) :   1.0771 B(  3-C ,  4-C ) :   1.1404
B(  3-C ,  6-C ) :   1.2414 B(  4-C ,  5-C ) :   1.6609 B(  4-C , 13-H ) :   0.9441
B(  5-C , 14-H ) :   0.9898 B(  6-C ,  7-C ) :   1.1257 B(  6-C , 19-C ) :   0.6828
B(  6-C , 20-C ) :  -0.1320 B(  6-C , 21-C ) :  -0.1308 B(  7-C ,  8-C ) :   1.3005
B(  7-C , 12-C ) :   1.1492 B(  7-C , 19-C ) :  -0.1103 B(  8-C ,  9-C ) :   1.4317
B(  8-C , 16-O ) :   1.0902 B(  9-C , 10-C ) :   1.0837 B(  9-C , 17-O ) :  -0.1469
B(  9-C , 42-C ) :   0.8414 B( 10-C , 11-C ) :   1.1108 B( 10-C , 17-O ) :   1.9510
B( 11-C , 12-C ) :   1.5593 B( 11-C , 17-O ) :  -0.1318 B( 11-C , 52-C ) :   0.8432
B( 12-C , 15-H ) :   0.9089 B( 19-C , 20-C ) :   1.4388 B( 19-C , 21-C ) :   1.3395
B( 20-C , 22-C ) :   1.4291 B( 20-C , 23-H ) :   0.9748 B( 21-C , 24-C ) :   1.4187
B( 21-C , 29-C ) :   0.9041 B( 22-C , 25-C ) :   1.3867 B( 22-C , 26-H ) :   0.9740
B( 24-C , 25-C ) :   1.3989 B( 24-C , 27-H ) :   0.9664 B( 25-C , 28-H ) :   0.9762
B( 29-C , 30-O ) :   1.5828 B( 29-C , 31-O ) :   1.6152 B( 30-O , 74-Na) :   0.1050
B( 31-O , 74-Na) :   0.1102 B( 32-C , 33-C ) :   1.3529 B( 32-C , 34-C ) :   1.3479
B( 33-C , 35-C ) :   1.4715 B( 33-C , 36-H ) :   0.9724 B( 34-C , 37-C ) :   1.4497
B( 34-C , 38-H ) :   0.9791 B( 35-C , 39-C ) :   1.3466 B( 35-C , 40-H ) :   0.9643
B( 37-C , 39-C ) :   1.3284 B( 37-C , 41-H ) :   0.9720 B( 39-C , 62-C ) :   1.0566
B( 42-C , 43-C ) :   1.3523 B( 42-C , 44-C ) :   1.3619 B( 43-C , 45-C ) :   1.4471
B( 43-C , 46-H ) :   0.9797 B( 44-C , 47-C ) :   1.4769 B( 44-C , 48-H ) :   0.9710
B( 45-C , 49-C ) :   1.3349 B( 45-C , 50-H ) :   0.9717 B( 47-C , 49-C ) :   1.3415
B( 47-C , 51-H ) :   0.9663 B( 49-C , 63-C ) :   1.0574 B( 52-C , 53-C ) :   1.3696
B( 52-C , 54-C ) :   1.3337 B( 53-C , 55-C ) :   1.4672 B( 53-C , 56-H ) :   0.9456
B( 54-C , 57-C ) :   1.4694 B( 54-C , 58-H ) :   0.9684 B( 55-C , 59-C ) :   1.3564
B( 55-C , 60-H ) :   0.9639 B( 57-C , 59-C ) :   1.3464 B( 57-C , 61-H ) :   0.9632
B( 59-C , 64-C ) :   1.0523 B( 62-C , 71-F ) :   1.0675 B( 62-C , 72-F ) :   1.0635
B( 62-C , 73-F ) :   1.0804 B( 63-C , 68-F ) :   1.0802 B( 63-C , 69-F ) :   1.0666
B( 63-C , 70-F ) :   1.0633 B( 64-C , 65-F ) :   1.0845 B( 64-C , 66-F ) :   1.0789
B( 64-C , 67-F ) :   1.0786

MP2 TOTAL ENERGY:    -3010.077515857 Eh

-----------------------------------------------------------------------------
         ABSORPTION SPECTRUM VIA TRANSITION ELECTRIC DIPOLE MOMENTS
-----------------------------------------------------------------------------
State   Energy    Wavelength  fosc         T2        TX        TY        TZ
        (cm-1)      (nm)                 (au**2)    (au)      (au)      (au)
-----------------------------------------------------------------------------
   1   19761.8    506.0   0.921403510  15.34964  -2.56805   2.95374  -0.17381
   2   28311.1    353.2   0.263418118   3.06312   1.69502   0.42321  -0.10458
   3   29062.5    344.1   0.016060278   0.18193  -0.19606   0.37074   0.07773
   4   30426.9    328.7   0.096552043   1.04467   0.72769   0.71753   0.01674
   5   35233.0    283.8   0.518367966   4.84355  -1.34895  -1.73707   0.08064
   6   33820.4    295.7   0.184643232   1.79734  -1.33995   0.02631  -0.03435
   7   33176.5    301.4   0.221889277   2.20182   1.42277   0.42133  -0.00400
   8   31830.2    314.2   0.000352046   0.00364  -0.03859  -0.04274   0.01804
   9   38715.4    258.3   0.017542640   0.14917  -0.14837  -0.35176   0.05852
  10   37412.6    267.3   0.067345108   0.59260   0.72127   0.26592   0.04077
  11   38735.9    258.2   0.018274010   0.15531   0.14090  -0.36749  -0.02019
  12   38489.2    259.8   0.013952179   0.11934   0.07738   0.04403   0.33378
  13   38772.9    257.9   0.001037451   0.00881  -0.02986   0.07035  -0.05447
  14   39141.4    255.5   0.030480710   0.25637  -0.06673   0.48821  -0.11647
  15   38775.8    257.9   0.121981135   1.03564  -0.88542   0.48947  -0.10994
  16   40448.8    247.2   0.126949038   1.03324   0.98893  -0.16519  -0.16724
  17   41262.2    242.4   0.191092903   1.52464  -0.42357  -1.09433   0.38427
  18   38089.6    262.5   0.087501617   0.75628  -0.64213   0.58585  -0.02718
  19   40992.7    243.9   0.066281507   0.53231  -0.71132   0.14998   0.06192
  20   43024.6    232.4   0.027850633   0.21310  -0.19687   0.40748  -0.09112
  21   43120.1    231.9   0.060256990   0.46005  -0.21844  -0.46911   0.43848
  22   41088.4    243.4   0.027562371   0.22084  -0.43927   0.06960  -0.15177
  23   42203.3    236.9   0.042900922   0.33465  -0.36037   0.42205   0.16328
  24   43124.7    231.9   0.212992808   1.62598   0.11463   1.08890   0.65356
  25   43653.9    229.1   0.078338063   0.59078  -0.61319  -0.03105   0.46240
  26   43427.3    230.3   0.096654899   0.73272  -0.43256   0.45893   0.57878
  27   45364.8    220.4   0.183077532   1.32859  -0.86846   0.73653  -0.17858
  28   46075.7    217.0   0.099950485   0.71415  -0.53375  -0.65208   0.06367
  29   44373.1    225.4   0.007527110   0.05584   0.12035  -0.19185  -0.06749
  30   47362.4    211.1   0.000819399   0.00570  -0.03512   0.02064  -0.06353

FINAL SINGLE POINT ENERGY     -3004.851212300995

DIPOLE MOMENT
-------------
                                X             Y             Z
Electronic contribution:    -15.83495     -39.79612      13.06641
Nuclear contribution   :     20.48611      40.73123     -10.60541
                        -----------------------------------------
Total Dipole Moment    :      4.65116       0.93510       2.46099
                        -----------------------------------------
Magnitude (a.u.)       :      5.34455
Magnitude (Debye)      :     13.58477

Rotational constants in cm-1:     0.002147     0.000923     0.000699
Rotational constants in MHz :    64.354030    27.675472    20.969670

                             ****ORCA TERMINATED NORMALLY****
TOTAL RUN TIME: 4 days 9 hours 26 minutes 55 seconds 646 msec
