                         Program Version 5.0.2 -  RELEASE  -
|  1> %maxcore 20000
|  2> %pal
|  3>  nprocs= 6
|  4> end
|  5> ! RI-SCS-PBE-QIDH   def2-TZVP def2/J def2-TZVP/C RIJCOSX CPCM TightSCF
|  6> %TDDFT
|  7>    NROOTS   30
|  8>    dcorr 4
|  9>    doscs true
| 10>    TDA      FALSE
| 11> END
| 12>
| 13>  %CPCM
| 14>    SMD          TRUE
| 15>    SMDsolvent   "ACETONITRILE"
| 16>  END
| 17>
| 18>
| 19> * xyz -1 1
| 20> C                  -2.68112800    4.35468400   -0.29624100
| 21> C                  -2.46638500    2.91647300   -0.29316200
| 22> C                  -1.17434900    2.43225800   -0.27283500
| 23> C                  -0.01619000    3.25573100   -0.29227000
| 24> C                  -0.23995300    4.65902000   -0.28380400
| 25> C                  -1.49181400    5.17833400   -0.28451800
| 26> C                   1.25145600    2.66180900   -0.27740100
| 27> C                   1.35977700    1.26127800   -0.22155000
| 28> C                   0.18345300    0.47708800   -0.12872000
| 29> C                   0.19354300   -0.89658900   -0.01441500
| 30> C                   1.45793900   -1.61106500   -0.00849200
| 31> C                   2.67266500   -0.80277300   -0.14187200
| 32> C                   2.58430800    0.55968200   -0.23874700
| 33> H                   0.62045500    5.31656400   -0.26601500
| 34> H                  -1.64622200    6.25090200   -0.27252400
| 35> H                   3.49458900    1.13360400   -0.36137300
| 36> O                  -1.03310700    1.08102900   -0.18618800
| 37> O                   1.50541700   -2.84929500    0.13859500
| 38> O                  -3.82076100    4.86513800   -0.31508400
| 39> C                   2.47273600    3.49384400   -0.36190800
| 40> C                   2.69883400    4.23995900   -1.51950500
| 41> C                   3.44361800    3.50094300    0.65171600
| 42> C                   3.85366200    4.98950200   -1.67470000
| 43> H                   1.95893500    4.21651800   -2.31090400
| 44> C                   4.60885400    4.24115100    0.47221100
| 45> C                   4.81337300    4.99253300   -0.67304700
| 46> H                   4.00503700    5.56296000   -2.58045400
| 47> H                   5.35364300    4.22379200    1.25827700
| 48> H                   5.71936700    5.57461700   -0.78646100
| 49> C                   3.25485300    2.74620200    1.94076200
| 50> O                   4.26264600    2.16215400    2.42321100
| 51> O                   2.11324100    2.75797000    2.47071000
| 52> C                  -3.63010000    2.01597500   -0.30242700
| 53> C                  -4.68912700    2.22171200    0.58946600
| 54> C                  -3.73405500    0.95475000   -1.20658500
| 55> C                  -5.79890500    1.39914700    0.58280800
| 56> H                  -4.63139500    3.03644900    1.29752500
| 57> C                  -4.84641100    0.13003900   -1.22486100
| 58> H                  -2.93582100    0.77764400   -1.91595500
| 59> C                  -5.88562400    0.35412800   -0.33157900
| 60> H                  -6.60450700    1.56864900    1.28680700
| 61> H                  -4.90752300   -0.68352200   -1.93678100
| 62> C                  -1.05499400   -1.66637300    0.12151500
| 63> C                  -2.02167300   -1.33450000    1.07464700
| 64> C                  -1.29313800   -2.77983400   -0.69190800
| 65> C                  -3.17891600   -2.08171300    1.21766200
| 66> H                  -1.85939100   -0.48509200    1.72588700
| 67> C                  -2.44855700   -3.52574200   -0.56201100
| 68> H                  -0.55954000   -3.05617800   -1.43648900
| 69> C                  -3.39267700   -3.18414200    0.40154400
| 70> H                  -3.91028000   -1.81061100    1.96826300
| 71> H                  -2.61863000   -4.38023100   -1.20556200
| 72> C                   3.99474900   -1.44309900   -0.15135800
| 73> C                   5.08770600   -0.80947800    0.45258100
| 74> C                   4.21957300   -2.67704800   -0.77819600
| 75> C                   6.35152800   -1.37316400    0.42994400
| 76> H                   4.93850500    0.13445000    0.96641800
| 77> C                   5.47982200   -3.24094700   -0.80682600
| 78> H                   3.39494000   -3.18538400   -1.25482000
| 79> C                   6.55223000   -2.59330500   -0.19998700
| 80> H                   7.17820300   -0.86699200    0.91047700
| 81> H                   5.63668800   -4.18961400   -1.30661300
| 82> C                  -7.08497800   -0.53032900   -0.30357300
| 83> C                  -4.63860500   -3.99472000    0.51110700
| 84> C                   7.89544300   -3.23796600   -0.23299000
| 85> F                   8.85063900   -2.49701700    0.34675200
| 86> F                   8.31390400   -3.48907800   -1.49318500
| 87> F                   7.90463900   -4.43557600    0.39533800
| 88> F                  -4.39417900   -5.32032900    0.45561000
| 89> F                  -5.31171900   -3.77545300    1.64995800
| 90> F                  -5.50260900   -3.74185300   -0.49977000
| 91> F                  -7.20423100   -1.29237500   -1.40047400
| 92> F                  -7.07063800   -1.37756500    0.75233200
| 93> F                  -8.23395800    0.16792900   -0.19059600
| 94> Na                  2.92809000    1.39962500    4.10281200
| 95> *
| 96>
| 97>
| 98>
| 99>                          ****END OF INPUT****

CARTESIAN COORDINATES (ANGSTROEM)
---------------------------------
  C     -2.681128    4.354684   -0.296241
  C     -2.466385    2.916473   -0.293162
  C     -1.174349    2.432258   -0.272835
  C     -0.016190    3.255731   -0.292270
  C     -0.239953    4.659020   -0.283804
  C     -1.491814    5.178334   -0.284518
  C      1.251456    2.661809   -0.277401
  C      1.359777    1.261278   -0.221550
  C      0.183453    0.477088   -0.128720
  C      0.193543   -0.896589   -0.014415
  C      1.457939   -1.611065   -0.008492
  C      2.672665   -0.802773   -0.141872
  C      2.584308    0.559682   -0.238747
  H      0.620455    5.316564   -0.266015
  H     -1.646222    6.250902   -0.272524
  H      3.494589    1.133604   -0.361373
  O     -1.033107    1.081029   -0.186188
  O      1.505417   -2.849295    0.138595
  O     -3.820761    4.865138   -0.315084
  C      2.472736    3.493844   -0.361908
  C      2.698834    4.239959   -1.519505
  C      3.443618    3.500943    0.651716
  C      3.853662    4.989502   -1.674700
  H      1.958935    4.216518   -2.310904
  C      4.608854    4.241151    0.472211
  C      4.813373    4.992533   -0.673047
  H      4.005037    5.562960   -2.580454
  H      5.353643    4.223792    1.258277
  H      5.719367    5.574617   -0.786461
  C      3.254853    2.746202    1.940762
  O      4.262646    2.162154    2.423211
  O      2.113241    2.757970    2.470710
  C     -3.630100    2.015975   -0.302427
  C     -4.689127    2.221712    0.589466
  C     -3.734055    0.954750   -1.206585
  C     -5.798905    1.399147    0.582808
  H     -4.631395    3.036449    1.297525
  C     -4.846411    0.130039   -1.224861
  H     -2.935821    0.777644   -1.915955
  C     -5.885624    0.354128   -0.331579
  H     -6.604507    1.568649    1.286807
  H     -4.907523   -0.683522   -1.936781
  C     -1.054994   -1.666373    0.121515
  C     -2.021673   -1.334500    1.074647
  C     -1.293138   -2.779834   -0.691908
  C     -3.178916   -2.081713    1.217662
  H     -1.859391   -0.485092    1.725887
  C     -2.448557   -3.525742   -0.562011
  H     -0.559540   -3.056178   -1.436489
  C     -3.392677   -3.184142    0.401544
  H     -3.910280   -1.810611    1.968263
  H     -2.618630   -4.380231   -1.205562
  C      3.994749   -1.443099   -0.151358
  C      5.087706   -0.809478    0.452581
  C      4.219573   -2.677048   -0.778196
  C      6.351528   -1.373164    0.429944
  H      4.938505    0.134450    0.966418
  C      5.479822   -3.240947   -0.806826
  H      3.394940   -3.185384   -1.254820
  C      6.552230   -2.593305   -0.199987
  H      7.178203   -0.866992    0.910477
  H      5.636688   -4.189614   -1.306613
  C     -7.084978   -0.530329   -0.303573
  C     -4.638605   -3.994720    0.511107
  C      7.895443   -3.237966   -0.232990
  F      8.850639   -2.497017    0.346752
  F      8.313904   -3.489078   -1.493185
  F      7.904639   -4.435576    0.395338
  F     -4.394179   -5.320329    0.455610
  F     -5.311719   -3.775453    1.649958
  F     -5.502609   -3.741853   -0.499770
  F     -7.204231   -1.292375   -1.400474
  F     -7.070638   -1.377565    0.752332
  F     -8.233958    0.167929   -0.190596
  Na     2.928090    1.399625    4.102812

 Total Charge           Charge          ....   -1
 Multiplicity           Mult            ....    1
 Number of Electrons    NEL             ....  398
 Basis Dimension        Dim             .... 1851

ORBITAL ENERGIES
----------------

  NO   OCC          E(Eh)            E(eV)
   0   2.0000     -39.675592     -1079.6277
   1   2.0000     -25.709117      -699.5806
   2   2.0000     -25.707204      -699.5286
   3   2.0000     -25.707040      -699.5241
   4   2.0000     -25.703796      -699.4358
   5   2.0000     -25.703760      -699.4349
   6   2.0000     -25.703750      -699.4346
   7   2.0000     -25.703148      -699.4182
   8   2.0000     -25.700572      -699.3481
   9   2.0000     -25.700520      -699.3467
  10   2.0000     -20.071683      -546.1783
  11   2.0000     -19.951038      -542.8953
  12   2.0000     -19.950573      -542.8827
  13   2.0000     -19.939261      -542.5749
  14   2.0000     -19.938963      -542.5668
  15   2.0000     -11.082877      -301.5804
  16   2.0000     -11.081464      -301.5420
  17   2.0000     -11.081392      -301.5400
  18   2.0000     -10.923675      -297.2483
  19   2.0000     -10.908179      -296.8267
  20   2.0000     -10.906770      -296.7883
  21   2.0000     -10.886644      -296.2406
  22   2.0000     -10.882562      -296.1296
  23   2.0000     -10.877389      -295.9888
  24   2.0000     -10.844710      -295.0996
  25   2.0000     -10.841577      -295.0143
  26   2.0000     -10.840852      -294.9946
  27   2.0000     -10.840661      -294.9894
  28   2.0000     -10.839047      -294.9455
  29   2.0000     -10.838153      -294.9211
  30   2.0000     -10.838031      -294.9178
  31   2.0000     -10.833893      -294.8052
  32   2.0000     -10.831715      -294.7460
  33   2.0000     -10.831287      -294.7343
  34   2.0000     -10.830221      -294.7053
  35   2.0000     -10.830051      -294.7007
  36   2.0000     -10.829750      -294.6925
  37   2.0000     -10.829746      -294.6924
  38   2.0000     -10.829083      -294.6743
  39   2.0000     -10.828901      -294.6694
  40   2.0000     -10.826939      -294.6160
  41   2.0000     -10.826208      -294.5961
  42   2.0000     -10.825080      -294.5654
  43   2.0000     -10.824139      -294.5398
  44   2.0000     -10.823678      -294.5273
  45   2.0000     -10.822567      -294.4970
  46   2.0000     -10.820518      -294.4413
  47   2.0000     -10.820331      -294.4362
  48   2.0000     -10.820101      -294.4299
  49   2.0000     -10.819749      -294.4203
  50   2.0000     -10.819382      -294.4104
  51   2.0000     -10.819127      -294.4034
  52   2.0000     -10.818383      -294.3832
  53   2.0000     -10.811792      -294.2038
  54   2.0000     -10.811550      -294.1972
  55   2.0000     -10.802432      -293.9491
  56   2.0000      -2.567980       -69.8783
  57   2.0000      -1.580040       -42.9951
  58   2.0000      -1.579022       -42.9674
  59   2.0000      -1.578258       -42.9466
  60   2.0000      -1.488289       -40.4984
  61   2.0000      -1.487108       -40.4663
  62   2.0000      -1.486756       -40.4567
  63   2.0000      -1.481982       -40.3268
  64   2.0000      -1.480896       -40.2972
  65   2.0000      -1.480291       -40.2808
  66   2.0000      -1.369832       -37.2750
  67   2.0000      -1.369041       -37.2535
  68   2.0000      -1.368106       -37.2281
  69   2.0000      -1.340857       -36.4866
  70   2.0000      -1.265568       -34.4378
  71   2.0000      -1.214993       -33.0616
  72   2.0000      -1.211114       -32.9561
  73   2.0000      -1.161720       -31.6120
  74   2.0000      -1.082235       -29.4491
  75   2.0000      -1.074160       -29.2294
  76   2.0000      -1.071492       -29.1568
  77   2.0000      -1.070594       -29.1324
  78   2.0000      -1.050551       -28.5869
  79   2.0000      -1.047476       -28.5033
  80   2.0000      -0.999800       -27.2059
  81   2.0000      -0.992850       -27.0168
  82   2.0000      -0.978963       -26.6389
  83   2.0000      -0.962227       -26.1835
  84   2.0000      -0.941973       -25.6324
  85   2.0000      -0.937379       -25.5074
  86   2.0000      -0.931442       -25.3458
  87   2.0000      -0.931132       -25.3374
  88   2.0000      -0.929920       -25.3044
  89   2.0000      -0.924835       -25.1660
  90   2.0000      -0.915310       -24.9069
  91   2.0000      -0.899066       -24.4648
  92   2.0000      -0.872588       -23.7443
  93   2.0000      -0.864833       -23.5333
  94   2.0000      -0.860260       -23.4089
  95   2.0000      -0.815043       -22.1785
  96   2.0000      -0.808109       -21.9898
  97   2.0000      -0.794957       -21.6319
  98   2.0000      -0.786428       -21.3998
  99   2.0000      -0.779049       -21.1990
 100   2.0000      -0.773226       -21.0405
 101   2.0000      -0.772245       -21.0139
 102   2.0000      -0.771096       -20.9826
 103   2.0000      -0.765372       -20.8268
 104   2.0000      -0.757783       -20.6203
 105   2.0000      -0.743256       -20.2250
 106   2.0000      -0.742580       -20.2066
 107   2.0000      -0.739520       -20.1234
 108   2.0000      -0.736555       -20.0427
 109   2.0000      -0.733662       -19.9640
 110   2.0000      -0.731190       -19.8967
 111   2.0000      -0.729275       -19.8446
 112   2.0000      -0.724545       -19.7159
 113   2.0000      -0.706273       -19.2187
 114   2.0000      -0.703508       -19.1434
 115   2.0000      -0.700825       -19.0704
 116   2.0000      -0.683213       -18.5912
 117   2.0000      -0.675299       -18.3758
 118   2.0000      -0.665607       -18.1121
 119   2.0000      -0.652096       -17.7444
 120   2.0000      -0.634867       -17.2756
 121   2.0000      -0.631192       -17.1756
 122   2.0000      -0.630185       -17.1482
 123   2.0000      -0.627601       -17.0779
 124   2.0000      -0.627338       -17.0707
 125   2.0000      -0.626292       -17.0423
 126   2.0000      -0.623799       -16.9744
 127   2.0000      -0.621543       -16.9131
 128   2.0000      -0.605942       -16.4885
 129   2.0000      -0.603931       -16.4338
 130   2.0000      -0.602856       -16.4045
 131   2.0000      -0.596932       -16.2433
 132   2.0000      -0.590540       -16.0694
 133   2.0000      -0.589130       -16.0310
 134   2.0000      -0.587516       -15.9871
 135   2.0000      -0.584126       -15.8949
 136   2.0000      -0.583053       -15.8657
 137   2.0000      -0.582360       -15.8468
 138   2.0000      -0.582075       -15.8391
 139   2.0000      -0.578174       -15.7329
 140   2.0000      -0.576915       -15.6987
 141   2.0000      -0.574875       -15.6431
 142   2.0000      -0.570422       -15.5220
 143   2.0000      -0.569018       -15.4838
 144   2.0000      -0.568306       -15.4644
 145   2.0000      -0.565480       -15.3875
 146   2.0000      -0.564337       -15.3564
 147   2.0000      -0.563688       -15.3387
 148   2.0000      -0.563243       -15.3266
 149   2.0000      -0.559223       -15.2172
 150   2.0000      -0.556461       -15.1421
 151   2.0000      -0.554281       -15.0827
 152   2.0000      -0.547017       -14.8851
 153   2.0000      -0.544561       -14.8183
 154   2.0000      -0.538213       -14.6455
 155   2.0000      -0.533071       -14.5056
 156   2.0000      -0.531219       -14.4552
 157   2.0000      -0.530666       -14.4401
 158   2.0000      -0.523957       -14.2576
 159   2.0000      -0.521868       -14.2007
 160   2.0000      -0.517418       -14.0797
 161   2.0000      -0.514719       -14.0062
 162   2.0000      -0.508377       -13.8336
 163   2.0000      -0.497668       -13.5422
 164   2.0000      -0.491232       -13.3671
 165   2.0000      -0.490055       -13.3351
 166   2.0000      -0.480305       -13.0698
 167   2.0000      -0.479032       -13.0351
 168   2.0000      -0.475216       -12.9313
 169   2.0000      -0.470997       -12.8165
 170   2.0000      -0.470221       -12.7954
 171   2.0000      -0.467372       -12.7178
 172   2.0000      -0.463770       -12.6198
 173   2.0000      -0.456976       -12.4349
 174   2.0000      -0.452661       -12.3175
 175   2.0000      -0.450742       -12.2653
 176   2.0000      -0.446210       -12.1420
 177   2.0000      -0.445318       -12.1177
 178   2.0000      -0.444044       -12.0831
 179   2.0000      -0.434960       -11.8359
 180   2.0000      -0.423312       -11.5189
 181   2.0000      -0.413269       -11.2456
 182   2.0000      -0.376306       -10.2398
 183   2.0000      -0.374614       -10.1938
 184   2.0000      -0.365867        -9.9557
 185   2.0000      -0.362485        -9.8637
 186   2.0000      -0.345897        -9.4123
 187   2.0000      -0.345312        -9.3964
 188   2.0000      -0.342395        -9.3171
 189   2.0000      -0.340698        -9.2709
 190   2.0000      -0.326820        -8.8932
 191   2.0000      -0.325621        -8.8606
 192   2.0000      -0.323165        -8.7938
 193   2.0000      -0.319291        -8.6883
 194   2.0000      -0.317272        -8.6334
 195   2.0000      -0.311344        -8.4721
 196   2.0000      -0.292568        -7.9612
 197   2.0000      -0.271949        -7.4001
 198   2.0000      -0.228553        -6.2193
 199   0.0000      -0.018635        -0.5071
 200   0.0000       0.020218         0.5502
 201   0.0000       0.021720         0.5910
 202   0.0000       0.032402         0.8817
 203   0.0000       0.040676         1.1069

MULLIKEN ATOMIC CHARGES
-----------------------
   0 C :    0.360415
   1 C :   -0.165803
   2 C :    0.306761
   3 C :    0.084782
   4 C :   -0.240916
   5 C :   -0.382442
   6 C :    0.433756
   7 C :    0.143237
   8 C :    0.298200
   9 C :   -0.105295
  10 C :    0.281245
  11 C :    0.035791
  12 C :   -0.336926
  13 H :    0.186505
  14 H :    0.143492
  15 H :    0.214286
  16 O :   -0.246899
  17 O :   -0.573244
  18 O :   -0.577617
  19 C :   -0.031664
  20 C :   -0.371256
  21 C :   -0.035052
  22 C :   -0.127670
  23 H :    0.177927
  24 C :   -0.189767
  25 C :   -0.184618
  26 H :    0.174411
  27 H :    0.176090
  28 H :    0.172816
  29 C :    0.421921
  30 O :   -0.677596
  31 O :   -0.667690
  32 C :    0.112713
  33 C :   -0.227333
  34 C :   -0.236458
  35 C :   -0.253502
  36 H :    0.158699
  37 C :   -0.204645
  38 H :    0.160514
  39 C :    0.079742
  40 H :    0.180157
  41 H :    0.177633
  42 C :    0.041009
  43 C :   -0.246740
  44 C :   -0.234095
  45 C :   -0.211918
  46 H :    0.161941
  47 C :   -0.255850
  48 H :    0.160252
  49 C :    0.088096
  50 H :    0.177218
  51 H :    0.178941
  52 C :    0.097865
  53 C :   -0.279266
  54 C :   -0.238167
  55 C :   -0.219759
  56 H :    0.183250
  57 C :   -0.242469
  58 H :    0.163843
  59 C :    0.091418
  60 H :    0.180962
  61 H :    0.179806
  62 C :    0.587121
  63 C :    0.585697
  64 C :    0.568336
  65 F :   -0.220726
  66 F :   -0.227796
  67 F :   -0.227940
  68 F :   -0.227357
  69 F :   -0.225710
  70 F :   -0.228479
  71 F :   -0.225379
  72 F :   -0.228629
  73 F :   -0.227138
  74 Na:    0.876964
Sum of atomic charges:   -1.0000000

LOEWDIN ATOMIC CHARGES
----------------------
   0 C :   -0.317862
   1 C :   -0.099993
   2 C :   -0.116468
   3 C :   -0.118581
   4 C :   -0.089285
   5 C :   -0.150733
   6 C :    0.034132
   7 C :   -0.115508
   8 C :   -0.120019
   9 C :   -0.096757
  10 C :   -0.273919
  11 C :   -0.102196
  12 C :   -0.036089
  13 H :    0.167068
  14 H :    0.150285
  15 H :    0.176385
  16 O :    0.367740
  17 O :   -0.047829
  18 O :   -0.068311
  19 C :   -0.062078
  20 C :   -0.093214
  21 C :   -0.073331
  22 C :   -0.135371
  23 H :    0.164972
  24 C :   -0.097654
  25 C :   -0.136380
  26 H :    0.156961
  27 H :    0.161799
  28 H :    0.156184
  29 C :   -0.501339
  30 O :   -0.024260
  31 O :   -0.009522
  32 C :   -0.095242
  33 C :   -0.090158
  34 C :   -0.093494
  35 C :   -0.098622
  36 H :    0.160517
  37 C :   -0.098424
  38 H :    0.160665
  39 C :   -0.151127
  40 H :    0.163857
  41 H :    0.162690
  42 C :   -0.093970
  43 C :   -0.093469
  44 C :   -0.089574
  45 C :   -0.098272
  46 H :    0.160921
  47 C :   -0.098601
  48 H :    0.160690
  49 C :   -0.150618
  50 H :    0.162677
  51 H :    0.163724
  52 C :   -0.093506
  53 C :   -0.098379
  54 C :   -0.093558
  55 C :   -0.097713
  56 H :    0.162105
  57 C :   -0.097463
  58 H :    0.160029
  59 C :   -0.150951
  60 H :    0.162425
  61 H :    0.164580
  62 C :   -0.558033
  63 C :   -0.558005
  64 C :   -0.555393
  65 F :    0.168964
  66 F :    0.148002
  67 F :    0.145807
  68 F :    0.153136
  69 F :    0.169176
  70 F :    0.145963
  71 F :    0.169262
  72 F :    0.145600
  73 F :    0.152941
  74 Na:    0.562014

  Mayer bond orders larger than 0.100000
B(  0-C ,  1-C ) :   1.0055 B(  0-C ,  5-C ) :   1.1760 B(  0-C , 18-O ) :   1.8763
B(  1-C ,  2-C ) :   1.3466 B(  1-C , 18-O ) :  -0.1118 B(  1-C , 32-C ) :   0.8342
B(  2-C ,  3-C ) :   1.2943 B(  2-C , 16-O ) :   1.0770 B(  3-C ,  4-C ) :   1.1412
B(  3-C ,  6-C ) :   1.2182 B(  4-C ,  5-C ) :   1.6519 B(  4-C , 13-H ) :   0.9620
B(  5-C , 14-H ) :   1.0009 B(  6-C ,  7-C ) :   1.1058 B(  6-C , 19-C ) :   0.6516
B(  6-C , 20-C ) :  -0.1439 B(  6-C , 21-C ) :  -0.1484 B(  7-C ,  8-C ) :   1.3115
B(  7-C , 12-C ) :   1.1256 B(  7-C , 19-C ) :  -0.1203 B(  8-C ,  9-C ) :   1.4168
B(  8-C , 16-O ) :   1.0905 B(  9-C , 10-C ) :   1.0715 B(  9-C , 17-O ) :  -0.1443
B(  9-C , 42-C ) :   0.8212 B( 10-C , 11-C ) :   1.1132 B( 10-C , 17-O ) :   1.9440
B( 11-C , 12-C ) :   1.5528 B( 11-C , 17-O ) :  -0.1308 B( 11-C , 52-C ) :   0.8207
B( 12-C , 15-H ) :   0.9371 B( 19-C , 20-C ) :   1.4413 B( 19-C , 21-C ) :   1.3354
B( 20-C , 22-C ) :   1.4316 B( 20-C , 23-H ) :   0.9864 B( 21-C , 24-C ) :   1.4178
B( 21-C , 29-C ) :   0.9094 B( 22-C , 25-C ) :   1.3881 B( 22-C , 26-H ) :   0.9776
B( 24-C , 25-C ) :   1.3983 B( 24-C , 27-H ) :   0.9753 B( 25-C , 28-H ) :   0.9798
B( 29-C , 30-O ) :   1.5824 B( 29-C , 31-O ) :   1.6157 B( 30-O , 74-Na) :   0.1054
B( 31-O , 74-Na) :   0.1103 B( 32-C , 33-C ) :   1.3552 B( 32-C , 34-C ) :   1.3544
B( 33-C , 35-C ) :   1.4611 B( 33-C , 36-H ) :   0.9823 B( 34-C , 37-C ) :   1.4430
B( 34-C , 38-H ) :   0.9856 B( 35-C , 39-C ) :   1.3464 B( 35-C , 40-H ) :   0.9758
B( 37-C , 39-C ) :   1.3367 B( 37-C , 41-H ) :   0.9785 B( 39-C , 62-C ) :   1.0578
B( 42-C , 43-C ) :   1.3605 B( 42-C , 44-C ) :   1.3642 B( 43-C , 45-C ) :   1.4401
B( 43-C , 46-H ) :   0.9872 B( 44-C , 47-C ) :   1.4672 B( 44-C , 48-H ) :   0.9825
B( 45-C , 49-C ) :   1.3430 B( 45-C , 50-H ) :   0.9785 B( 47-C , 49-C ) :   1.3413
B( 47-C , 51-H ) :   0.9781 B( 49-C , 63-C ) :   1.0589 B( 52-C , 53-C ) :   1.3679
B( 52-C , 54-C ) :   1.3322 B( 53-C , 55-C ) :   1.4479 B( 53-C , 56-H ) :   0.9552
B( 54-C , 57-C ) :   1.4602 B( 54-C , 58-H ) :   0.9790 B( 55-C , 59-C ) :   1.3524
B( 55-C , 60-H ) :   0.9752 B( 57-C , 59-C ) :   1.3432 B( 57-C , 61-H ) :   0.9768
B( 59-C , 64-C ) :   1.0538 B( 62-C , 71-F ) :   1.0659 B( 62-C , 72-F ) :   1.0623
B( 62-C , 73-F ) :   1.0796 B( 63-C , 68-F ) :   1.0794 B( 63-C , 69-F ) :   1.0650
B( 63-C , 70-F ) :   1.0621 B( 64-C , 65-F ) :   1.0851 B( 64-C , 66-F ) :   1.0788
B( 64-C , 67-F ) :   1.0786

MP2 TOTAL ENERGY:    -3008.625903811 Eh

-----------------------------------------------------------------------------
         ABSORPTION SPECTRUM VIA TRANSITION ELECTRIC DIPOLE MOMENTS
-----------------------------------------------------------------------------
State   Energy    Wavelength  fosc         T2        TX        TY        TZ
        (cm-1)      (nm)                 (au**2)    (au)      (au)      (au)
-----------------------------------------------------------------------------
   1   18859.2    530.2   0.873558306  15.24908  -2.56388   2.94041  -0.17207
   2   27005.7    370.3   0.249508285   3.04162   1.68461   0.43955  -0.10255
   3   27333.3    365.9   0.019341241   0.23295   0.43707  -0.19123  -0.07316
   4   29998.5    333.3   0.103745963   1.13854  -0.67108  -0.82906  -0.02889
   5   33148.2    301.7   0.454721928   4.51608   1.44545   1.55650  -0.06372
   6   32296.6    309.6   0.075709067   0.77173  -0.80711   0.34516  -0.03424
   7   32166.7    310.9   0.189149256   1.93586  -1.35695  -0.30749  -0.00017
   8   30564.4    327.2   0.000392029   0.00422  -0.06238   0.00655  -0.01697
   9   37304.1    268.1   0.027685052   0.24432  -0.11130  -0.47951   0.04475
  10   35743.4    279.8   0.096231782   0.88634   0.88704   0.31282   0.04045
  11   35546.4    281.3   0.020425131   0.18917   0.00056  -0.43492   0.00377
  12   36783.1    271.9   0.051047683   0.45688   0.49759  -0.45448   0.05231
  13   37132.8    269.3   0.117399905   1.04084   0.84048  -0.53035   0.23060
  14   36980.4    270.4   0.011321094   0.10078   0.20790   0.20242  -0.12879
  15   36965.8    270.5   0.026849893   0.23912   0.26577   0.33841  -0.23231
  16   37387.0    267.5   0.054270175   0.47788  -0.64874   0.08762   0.22213
  17   36884.7    271.1   0.103589987   0.92459   0.00303   0.95484  -0.11342
  18   38907.5    257.0   0.022136589   0.18731   0.01522   0.41114  -0.13432
  19   40564.1    246.5   0.198680775   1.61246   1.22023  -0.34438  -0.06996
  20   38035.5    262.9   0.013621910   0.11790   0.14335   0.30423   0.06927
  21   40275.5    248.3   0.117520239   0.96061   0.91993   0.26276  -0.21282
  22   40567.2    246.5   0.043913945   0.35637  -0.41703  -0.42688  -0.01541
  23   42778.7    233.8   0.122108256   0.93971   0.19970   0.92162  -0.22458
  24   42196.8    237.0   0.089115167   0.69526   0.20352   0.42300   0.68914
  25   41285.5    242.2   0.088854114   0.70853  -0.58180   0.32987   0.51110
  26   41584.6    240.5   0.026361995   0.20870  -0.32317  -0.24267  -0.21300
  27   42020.1    238.0   0.060501956   0.47401  -0.44531   0.52193   0.05748
  28   43167.7    231.7   0.084072945   0.64117   0.40460   0.68960  -0.04387
  29   45350.9    220.5   0.041936001   0.30442   0.03636  -0.51708  -0.18903
  30   46788.4    213.7   0.023329119   0.16415   0.22486  -0.25241   0.22333

FINAL SINGLE POINT ENERGY     -3004.864163961625

DIPOLE MOMENT
-------------
                                X             Y             Z
Electronic contribution:    -15.90325     -39.86291      13.08983
Nuclear contribution   :     20.48611      40.73123     -10.60541
                        -----------------------------------------
Total Dipole Moment    :      4.58286       0.86831       2.48442
                        -----------------------------------------
Magnitude (a.u.)       :      5.28478
Magnitude (Debye)      :     13.43285

Rotational constants in cm-1:     0.002147     0.000923     0.000699
Rotational constants in MHz :    64.354030    27.675472    20.969670

                             ****ORCA TERMINATED NORMALLY****
TOTAL RUN TIME: 11 days 6 hours 47 minutes 16 seconds 285 msec
