                         Program Version 5.0.2 -  RELEASE  -
|  1> %maxcore 20000
|  2> %pal
|  3>  nprocs= 4
|  4> end
|  5> ! RI-B2GP-PLYP   def2-TZVP def2/J def2-TZVP/C RIJCOSX CPCM TightSCF
|  6> %TDDFT
|  7>    NROOTS   30
|  8>    dcorr 4
|  9>    TDA      FALSE
| 10> END
| 11>
| 12> %CPCM
| 13>    SMD          TRUE
| 14>    SMDsolvent   "N,N-DIMETHYLFORMAMIDE"
| 15> END
| 16>
| 17>
| 18> * xyz 0 1
| 19> C                  -0.69204800   -3.64386400   -0.00787400
| 20> C                  -1.38063400   -2.43381100    0.01449500
| 21> C                  -0.70412400   -1.22065400    0.00031700
| 22> C                   0.70453700   -1.22132400   -0.01151200
| 23> C                   1.37757400   -2.43577000   -0.05047100
| 24> C                   0.68626500   -3.64462700   -0.04839400
| 25> C                   0.70452700    1.22133800    0.01141000
| 26> C                  -0.70413500    1.22065200   -0.00038400
| 27> C                  -1.38065800    2.43380100   -0.01460900
| 28> H                  -2.46172000    2.43500700   -0.04119000
| 29> C                  -0.69208600    3.64386400    0.00768500
| 30> C                   0.68622800    3.64464400    0.04816700
| 31> C                   1.37755000    2.43579500    0.05028500
| 32> H                  -2.46169400   -2.43503000    0.04110900
| 33> H                   2.45827400   -2.44078500   -0.08404200
| 34> H                   1.24095300   -4.57320800   -0.07768800
| 35> H                  -1.24837500    4.57189400   -0.00273000
| 36> H                   1.24090700    4.57323200    0.07740300
| 37> N                  -1.38783400   -0.00000400    0.00001600
| 38> C                   2.81359400    0.00001000    0.00001200
| 39> C                   3.50492200    0.26808100   -1.17600900
| 40> C                   3.50487000   -0.26806900    1.17606000
| 41> C                   4.88571300    0.27165100   -1.18089900
| 42> C                   4.88566100   -0.27164800    1.18100900
| 43> C                   5.58200100   -0.00000100    0.00007000
| 44> H                   5.43094000    0.47772700   -2.09179700
| 45> H                   5.43084800   -0.47772900    2.09193100
| 46> H                   2.95295300    0.47632700   -2.08345700
| 47> H                   2.95286100   -0.47631300    2.08348400
| 48> H                  -1.24832600   -4.57190200    0.00251200
| 49> N                   1.38978900    0.00001000   -0.00001500
| 50> C                  -2.81267800   -0.00000700    0.00003000
| 51> C                  -3.50271800   -0.16014900   -1.19561600
| 52> C                  -3.50269000    0.16013500    1.19569200
| 53> C                  -4.88377600   -0.16242500   -1.20102800
| 54> H                  -2.94982500   -0.28486500   -2.11773400
| 55> C                  -4.88374800    0.16241100    1.20113700
| 56> H                  -2.94977500    0.28485300    2.11779700
| 57> C                  -5.57941300   -0.00000800    0.00006200
| 58> H                  -5.42939900   -0.28554300   -2.12654800
| 59> H                  -5.42934900    0.28552900    2.12666900
| 60> H                   2.45825100    2.44082500    0.08382800
| 61> C                   7.00167700   -0.00000500    0.00010100
| 62> C                  -6.99939900   -0.00000900    0.00008000
| 63> N                   8.15878000   -0.00000800    0.00012600
| 64> N                  -8.15639400   -0.00000900    0.00009400
| 65> *
| 66>
| 67>
| 68>                          ****END OF INPUT****

CARTESIAN COORDINATES (ANGSTROEM)
---------------------------------
  C     -0.692048   -3.643864   -0.007874
  C     -1.380634   -2.433811    0.014495
  C     -0.704124   -1.220654    0.000317
  C      0.704537   -1.221324   -0.011512
  C      1.377574   -2.435770   -0.050471
  C      0.686265   -3.644627   -0.048394
  C      0.704527    1.221338    0.011410
  C     -0.704135    1.220652   -0.000384
  C     -1.380658    2.433801   -0.014609
  H     -2.461720    2.435007   -0.041190
  C     -0.692086    3.643864    0.007685
  C      0.686228    3.644644    0.048167
  C      1.377550    2.435795    0.050285
  H     -2.461694   -2.435030    0.041109
  H      2.458274   -2.440785   -0.084042
  H      1.240953   -4.573208   -0.077688
  H     -1.248375    4.571894   -0.002730
  H      1.240907    4.573232    0.077403
  N     -1.387834   -0.000004    0.000016
  C      2.813594    0.000010    0.000012
  C      3.504922    0.268081   -1.176009
  C      3.504870   -0.268069    1.176060
  C      4.885713    0.271651   -1.180899
  C      4.885661   -0.271648    1.181009
  C      5.582001   -0.000001    0.000070
  H      5.430940    0.477727   -2.091797
  H      5.430848   -0.477729    2.091931
  H      2.952953    0.476327   -2.083457
  H      2.952861   -0.476313    2.083484
  H     -1.248326   -4.571902    0.002512
  N      1.389789    0.000010   -0.000015
  C     -2.812678   -0.000007    0.000030
  C     -3.502718   -0.160149   -1.195616
  C     -3.502690    0.160135    1.195692
  C     -4.883776   -0.162425   -1.201028
  H     -2.949825   -0.284865   -2.117734
  C     -4.883748    0.162411    1.201137
  H     -2.949775    0.284853    2.117797
  C     -5.579413   -0.000008    0.000062
  H     -5.429399   -0.285543   -2.126548
  H     -5.429349    0.285529    2.126669
  H      2.458251    2.440825    0.083828
  C      7.001677   -0.000005    0.000101
  C     -6.999399   -0.000009    0.000080
  N      8.158780   -0.000008    0.000126
  N     -8.156394   -0.000009    0.000094

 Total Charge           Charge          ....    0
 Multiplicity           Mult            ....    1
 Number of Electrons    NEL             ....  200
 Basis Dimension        Dim             .... 1026

ORBITAL ENERGIES
----------------

  NO   OCC          E(Eh)            E(eV)
   0   2.0000     -15.062314      -409.8664
   1   2.0000     -15.061812      -409.8527
   2   2.0000     -15.041028      -409.2872
   3   2.0000     -15.040786      -409.2806
   4   2.0000     -10.835783      -294.8567
   5   2.0000     -10.835526      -294.8497
   6   2.0000     -10.835088      -294.8377
   7   2.0000     -10.834916      -294.8330
   8   2.0000     -10.831018      -294.7270
   9   2.0000     -10.830993      -294.7263
  10   2.0000     -10.830142      -294.7032
  11   2.0000     -10.830135      -294.7030
  12   2.0000     -10.826012      -294.5908
  13   2.0000     -10.825515      -294.5772
  14   2.0000     -10.803571      -293.9801
  15   2.0000     -10.803539      -293.9793
  16   2.0000     -10.803351      -293.9741
  17   2.0000     -10.803319      -293.9732
  18   2.0000     -10.791380      -293.6484
  19   2.0000     -10.791360      -293.6478
  20   2.0000     -10.791142      -293.6419
  21   2.0000     -10.791122      -293.6414
  22   2.0000     -10.773469      -293.1610
  23   2.0000     -10.773469      -293.1610
  24   2.0000     -10.773404      -293.1592
  25   2.0000     -10.773404      -293.1592
  26   2.0000     -10.770136      -293.0703
  27   2.0000     -10.770136      -293.0703
  28   2.0000     -10.769114      -293.0425
  29   2.0000     -10.769113      -293.0425
  30   2.0000      -1.189012       -32.3547
  31   2.0000      -1.145366       -31.1670
  32   2.0000      -1.104228       -30.0476
  33   2.0000      -1.103845       -30.0371
  34   2.0000      -1.055456       -28.7204
  35   2.0000      -1.046525       -28.4774
  36   2.0000      -1.040398       -28.3107
  37   2.0000      -1.005616       -27.3642
  38   2.0000      -0.952760       -25.9259
  39   2.0000      -0.935447       -25.4548
  40   2.0000      -0.928152       -25.2563
  41   2.0000      -0.927503       -25.2386
  42   2.0000      -0.920971       -25.0609
  43   2.0000      -0.916614       -24.9423
  44   2.0000      -0.884289       -24.0627
  45   2.0000      -0.862031       -23.4571
  46   2.0000      -0.802843       -21.8465
  47   2.0000      -0.787751       -21.4358
  48   2.0000      -0.774974       -21.0881
  49   2.0000      -0.764033       -20.7904
  50   2.0000      -0.762817       -20.7573
  51   2.0000      -0.731976       -19.9181
  52   2.0000      -0.730307       -19.8727
  53   2.0000      -0.686230       -18.6733
  54   2.0000      -0.678457       -18.4617
  55   2.0000      -0.678377       -18.4596
  56   2.0000      -0.678229       -18.4556
  57   2.0000      -0.646591       -17.5946
  58   2.0000      -0.638376       -17.3711
  59   2.0000      -0.606181       -16.4950
  60   2.0000      -0.599814       -16.3218
  61   2.0000      -0.597724       -16.2649
  62   2.0000      -0.572973       -15.5914
  63   2.0000      -0.570100       -15.5132
  64   2.0000      -0.563201       -15.3255
  65   2.0000      -0.555503       -15.1160
  66   2.0000      -0.542474       -14.7615
  67   2.0000      -0.541488       -14.7346
  68   2.0000      -0.538499       -14.6533
  69   2.0000      -0.538253       -14.6466
  70   2.0000      -0.533180       -14.5086
  71   2.0000      -0.530050       -14.4234
  72   2.0000      -0.527673       -14.3587
  73   2.0000      -0.512229       -13.9385
  74   2.0000      -0.505392       -13.7524
  75   2.0000      -0.498130       -13.5548
  76   2.0000      -0.493217       -13.4211
  77   2.0000      -0.484902       -13.1948
  78   2.0000      -0.484783       -13.1916
  79   2.0000      -0.474380       -12.9085
  80   2.0000      -0.468862       -12.7584
  81   2.0000      -0.462564       -12.5870
  82   2.0000      -0.461225       -12.5506
  83   2.0000      -0.449989       -12.2448
  84   2.0000      -0.444269       -12.0892
  85   2.0000      -0.433318       -11.7912
  86   2.0000      -0.432619       -11.7722
  87   2.0000      -0.430652       -11.7186
  88   2.0000      -0.427823       -11.6417
  89   2.0000      -0.425424       -11.5764
  90   2.0000      -0.423059       -11.5120
  91   2.0000      -0.398511       -10.8440
  92   2.0000      -0.333833        -9.0841
  93   2.0000      -0.328776        -8.9465
  94   2.0000      -0.322654        -8.7799
  95   2.0000      -0.322036        -8.7630
  96   2.0000      -0.315913        -8.5964
  97   2.0000      -0.312849        -8.5131
  98   2.0000      -0.279409        -7.6031
  99   2.0000      -0.214016        -5.8237
 100   0.0000       0.008212         0.2235
 101   0.0000       0.009557         0.2601
 102   0.0000       0.036393         0.9903
 103   0.0000       0.037608         1.0234
 104   0.0000       0.059850         1.6286

MULLIKEN ATOMIC CHARGES
-----------------------
   0 C :   -0.201508
   1 C :   -0.231486
   2 C :    0.108279
   3 C :    0.094523
   4 C :   -0.237829
   5 C :   -0.196816
   6 C :    0.095318
   7 C :    0.107663
   8 C :   -0.231099
   9 H :    0.171424
  10 C :   -0.202249
  11 C :   -0.196612
  12 C :   -0.238057
  13 H :    0.171313
  14 H :    0.171169
  15 H :    0.158473
  16 H :    0.158389
  17 H :    0.158470
  18 N :   -0.019895
  19 C :    0.141249
  20 C :   -0.234971
  21 C :   -0.234998
  22 C :   -0.172821
  23 C :   -0.172826
  24 C :    0.329911
  25 H :    0.181516
  26 H :    0.181433
  27 H :    0.171249
  28 H :    0.171192
  29 H :    0.158342
  30 N :   -0.020230
  31 C :    0.134542
  32 C :   -0.232452
  33 C :   -0.231863
  34 C :   -0.170856
  35 H :    0.170764
  36 C :   -0.171255
  37 H :    0.170739
  38 C :    0.327693
  39 H :    0.181946
  40 H :    0.181879
  41 H :    0.171059
  42 C :   -0.133067
  43 C :   -0.130508
  44 N :   -0.203977
  45 N :   -0.203161
Sum of atomic charges:   -0.0000000

LOEWDIN ATOMIC CHARGES
----------------------
   0 C :   -0.167706
   1 C :   -0.127395
   2 C :   -0.129639
   3 C :   -0.129019
   4 C :   -0.127047
   5 C :   -0.168068
   6 C :   -0.129019
   7 C :   -0.129638
   8 C :   -0.127397
   9 H :    0.160364
  10 C :   -0.167708
  11 C :   -0.168069
  12 C :   -0.127046
  13 H :    0.160365
  14 H :    0.160338
  15 H :    0.149920
  16 H :    0.149946
  17 H :    0.149920
  18 N :    0.270922
  19 C :   -0.147288
  20 C :   -0.080662
  21 C :   -0.080660
  22 C :   -0.058494
  23 C :   -0.058494
  24 C :   -0.147820
  25 H :    0.166513
  26 H :    0.166513
  27 H :    0.165842
  28 H :    0.165842
  29 H :    0.149946
  30 N :    0.271004
  31 C :   -0.147565
  32 C :   -0.079764
  33 C :   -0.079763
  34 C :   -0.058181
  35 H :    0.165856
  36 C :   -0.058181
  37 H :    0.165857
  38 C :   -0.147349
  39 H :    0.166604
  40 H :    0.166604
  41 H :    0.160338
  42 C :   -0.117758
  43 C :   -0.117443
  44 N :   -0.018077
  45 N :   -0.017442

  Mayer bond orders larger than 0.100000
B(  0-C ,  1-C ) :   1.3566 B(  0-C ,  5-C ) :   1.4427 B(  0-C , 29-H ) :   0.9879
B(  1-C ,  2-C ) :   1.4277 B(  1-C , 13-H ) :   0.9671 B(  2-C ,  3-C ) :   1.3693
B(  2-C , 18-N ) :   1.0722 B(  3-C ,  4-C ) :   1.4338 B(  3-C , 30-N ) :   1.0718
B(  4-C ,  5-C ) :   1.3550 B(  4-C , 14-H ) :   0.9678 B(  5-C , 15-H ) :   0.9878
B(  6-C ,  7-C ) :   1.3691 B(  6-C , 12-C ) :   1.4338 B(  6-C , 30-N ) :   1.0720
B(  7-C ,  8-C ) :   1.4282 B(  7-C , 18-N ) :   1.0722 B(  8-C ,  9-H ) :   0.9671
B(  8-C , 10-C ) :   1.3566 B( 10-C , 11-C ) :   1.4423 B( 10-C , 16-H ) :   0.9879
B( 11-C , 12-C ) :   1.3547 B( 11-C , 17-H ) :   0.9879 B( 12-C , 41-H ) :   0.9677
B( 18-N , 31-C ) :   0.7259 B( 19-C , 20-C ) :   1.4475 B( 19-C , 21-C ) :   1.4473
B( 19-C , 30-N ) :   0.7526 B( 20-C , 22-C ) :   1.4372 B( 20-C , 27-H ) :   0.9897
B( 21-C , 23-C ) :   1.4371 B( 21-C , 28-H ) :   0.9898 B( 22-C , 24-C ) :   1.3187
B( 22-C , 25-H ) :   0.9786 B( 23-C , 24-C ) :   1.3187 B( 23-C , 26-H ) :   0.9787
B( 24-C , 42-C ) :   0.9293 B( 31-C , 32-C ) :   1.4663 B( 31-C , 33-C ) :   1.4660
B( 32-C , 34-C ) :   1.4330 B( 32-C , 35-H ) :   0.9896 B( 33-C , 36-C ) :   1.4326
B( 33-C , 37-H ) :   0.9898 B( 34-C , 38-C ) :   1.3179 B( 34-C , 39-H ) :   0.9780
B( 36-C , 38-C ) :   1.3181 B( 36-C , 40-H ) :   0.9783 B( 38-C , 43-C ) :   0.9357
B( 42-C , 44-N ) :   3.0337 B( 43-C , 45-N ) :   3.0304

MP2 TOTAL ENERGY:    -1218.572824524 Eh

-----------------------------------------------------------------------------
         ABSORPTION SPECTRUM VIA TRANSITION ELECTRIC DIPOLE MOMENTS
-----------------------------------------------------------------------------
State   Energy    Wavelength  fosc         T2        TX        TY        TZ
        (cm-1)      (nm)                 (au**2)    (au)      (au)      (au)
-----------------------------------------------------------------------------
   1   22513.1    444.2   0.006450830   0.09433   0.30713   0.00001  -0.00007
   2   26281.7    380.5   0.000086843   0.00109   0.00070  -0.00407   0.03272
   3   22829.6    438.0   0.037872693   0.54614  -0.73901   0.00008  -0.00002
   4   27718.4    360.8   0.197677473   2.34782   0.00004   1.53194   0.03143
   5   32423.5    308.4   0.001010919   0.01026  -0.10131  -0.00001   0.00003
   6   30987.7    322.7   0.000882143   0.00937  -0.00002  -0.06261   0.07384
   7   32677.0    306.0   0.093301752   0.93999  -0.00005  -0.96942  -0.01449
   8   39587.6    252.6   0.056511557   0.46995   0.00011  -0.07361  -0.68157
   9   39460.9    253.4   0.042006412   0.35045   0.00008   0.14332  -0.57438
  10   43717.6    228.7   0.931976223   7.01817   2.64918   0.00003   0.00005
  11   44778.6    223.3   0.009613854   0.07068  -0.26586   0.00002   0.00004
  12   42089.6    237.6   0.008727048   0.06826   0.00002  -0.01954  -0.26054
  13   43912.1    227.7   0.015983234   0.11983   0.34616  -0.00068   0.00000
  14   41209.9    242.7   1.214536391   9.70253  -0.00012   3.11487   0.01020
  15   39255.1    254.7   0.125056811   1.04878  -1.02410  -0.00036   0.00002
  16   38670.4    258.6   0.028793894   0.24513  -0.49511  -0.00024  -0.00004
  17   44666.7    223.9   0.009361724   0.06900  -0.00002   0.06175  -0.25532
  18   47996.2    208.3   1.926085665  13.21126   3.63473  -0.00003  -0.00003
  19   47808.1    209.2   0.004348950   0.02995  -0.17305   0.00003   0.00004
  20   45989.8    217.4   0.001167993   0.00836  -0.00016   0.00542  -0.09128
  21   49734.7    201.1   0.008176923   0.05413  -0.00022  -0.22193  -0.06982
  22   51038.0    195.9   0.839873122   5.41745  -2.32754   0.00001  -0.00070
  23   50150.4    199.4   0.603990040   3.96489  -0.00080  -0.05460   1.99045
  24   47688.9    209.7   0.000349096   0.00241   0.00018  -0.04016   0.02823
  25   52631.9    190.0   0.000000123   0.00000  -0.00087   0.00000  -0.00012
  26   55898.8    178.9   0.000342030   0.00201  -0.04488  -0.00002  -0.00005
  27   56393.8    177.3   0.000101086   0.00059  -0.02429  -0.00001  -0.00002
  28   47533.7    210.4   0.109963437   0.76159   0.00000   0.16179  -0.85756
  29   47227.3    211.7   0.036826545   0.25671  -0.00001   0.19391   0.46809
  30   50676.7    197.3   0.001303393   0.00847   0.09202  -0.00001  -0.00003

FINAL SINGLE POINT ENERGY     -1216.484348857101

DIPOLE MOMENT
-------------
                                X             Y             Z
Electronic contribution:     -0.01825       0.00001       0.00038
Nuclear contribution   :     -0.01216       0.00002      -0.00044
                        -----------------------------------------
Total Dipole Moment    :     -0.03042       0.00003      -0.00006
                        -----------------------------------------
Magnitude (a.u.)       :      0.03042
Magnitude (Debye)      :      0.07731

Rotational constants in cm-1:     0.013166     0.002691     0.002341
Rotational constants in MHz :   394.716059    80.676940    70.178145

                             ****ORCA TERMINATED NORMALLY****
TOTAL RUN TIME: 0 days 9 hours 54 minutes 46 seconds 181 msec
