 Gaussian 09, Revision E.01,

 ----------------------------------------------------------------------
 #p b3lyp/def2TZVP opt freq=noraman nosymm int=ultrafine scrf=(SMD,solv
 ent=n,n-DiMethylFormamide) EmpiricalDispersion=GD3BJ
 ----------------------------------------------------------------------

 -----
 Title
 -----
 Symbolic Z-matrix:
 Charge =  0 Multiplicity = 1

 SCF Done:  E(RB3LYP) =  -1219.97153728     A.U. after   13 cycles
 SCF Done:  E(RB3LYP) =  -1219.97443299     A.U. after    9 cycles
 SCF Done:  E(RB3LYP) =  -1219.97447471     A.U. after    8 cycles
 Optimization completed.
    -- Stationary point found.
 Normal termination of Gaussian 09 at Mon Feb 15 03:49:37 2021.

 --------------------------------------------------------------------
 #P Geom=AllCheck Guess=TCheck SCRF=Check GenChk RB3LYP/def2TZVP Freq
 --------------------------------------------------------------------

 Structure from the checkpoint file:  "cp.chk"
 -----
 Title
 -----
 Charge =  0 Multiplicity = 1

 SCF Done:  E(RB3LYP) =  -1219.97447471     A.U. after    2 cycles

  Exact polarizability: 655.318   0.000 509.726   0.021  -0.006 348.882
 Approx polarizability: 692.043   0.000 531.943   0.025  -0.010 399.359

                      1                      2                      3
                      A                      A                      A
 Frequencies --      5.0519                14.0256                23.2803
 Red. masses --      3.7062                 8.1471                 3.9456
 Frc consts  --      0.0001                 0.0009                 0.0013
 IR Inten    --      0.0000                 1.1858                 0.0002

                      4                      5                      6
                      A                      A                      A
 Frequencies --     25.3365                28.4658                34.3529
 Red. masses --      6.5246                10.8114                 5.4250
 Frc consts  --      0.0025                 0.0052                 0.0038
 IR Inten    --      0.9446                 4.6134                 0.0001

                      7                      8                      9
                      A                      A                      A
 Frequencies --     44.0251               119.8590               126.7886
 Red. masses --      7.8318                 3.8125                 8.2920
 Frc consts  --      0.0089                 0.0323                 0.0785
 IR Inten    --      0.0000                 0.0000                15.1239

                     10                     11                     12
                      A                      A                      A
 Frequencies --    131.8613               137.8860               156.5086
 Red. masses --      7.2097                 6.5379                 8.5542
 Frc consts  --      0.0739                 0.0732                 0.1235
 IR Inten    --      0.0000                 0.0000                33.1463

                     13                     14                     15
                      A                      A                      A
 Frequencies --    173.2818               192.1301               199.5596
 Red. masses --      8.8762                 5.7571                 5.8567
 Frc consts  --      0.1570                 0.1252                 0.1374
 IR Inten    --      0.0000                 0.0000                 0.0031

                     16                     17                     18
                      A                      A                      A
 Frequencies --    253.7409               265.3651               286.0085
 Red. masses --      4.9109                 4.9420                 6.0302
 Frc consts  --      0.1863                 0.2050                 0.2906
 IR Inten    --      1.0503                 0.0000                 0.0000

                     19                     20                     21
                      A                      A                      A
 Frequencies --    296.8928               366.3217               408.3809
 Red. masses --      6.2909                 6.5235                 7.0178
 Frc consts  --      0.3267                 0.5158                 0.6896
 IR Inten    --      3.6708                 5.1599                 0.0494

                     22                     23                     24
                      A                      A                      A
 Frequencies --    408.7570               414.8991               415.6847
 Red. masses --      4.9730                 2.9089                 2.9073
 Frc consts  --      0.4895                 0.2950                 0.2960
 IR Inten    --      4.8928                 0.0000                 0.0000

                     25                     26                     27
                      A                      A                      A
 Frequencies --    425.9994               447.7933               457.7250
 Red. masses --      6.8793                 5.1767                 3.1851
 Frc consts  --      0.7355                 0.6116                 0.3932
 IR Inten    --      0.0001                 0.0000                 0.0001

                     28                     29                     30
                      A                      A                      A
 Frequencies --    485.4705               485.5385               503.3947
 Red. masses --      6.1518                 3.9369                 5.7983
 Frc consts  --      0.8542                 0.5468                 0.8657
 IR Inten    --      0.2500                 4.6201                 2.8180

                     31                     32                     33
                      A                      A                      A
 Frequencies --    513.5528               562.6955               565.5435
 Red. masses --      8.7985                 4.2107                 6.4549
 Frc consts  --      1.3672                 0.7855                 1.2164
 IR Inten    --      0.0000                 0.0000                28.7933

                     34                     35                     36
                      A                      A                      A
 Frequencies --    569.2740               575.3724               576.3995
 Red. masses --      4.6510                 4.5709                 7.4508
 Frc consts  --      0.8881                 0.8916                 1.4585
 IR Inten    --      0.0000                 0.0000                 6.1389

                     37                     38                     39
                      A                      A                      A
 Frequencies --    576.5463               588.9357               633.9495
 Red. masses --      7.2515                 3.1319                 6.4186
 Frc consts  --      1.4202                 0.6400                 1.5198
 IR Inten    --      0.0002               114.6752                33.6578

                     40                     41                     42
                      A                      A                      A
 Frequencies --    643.8601               667.2164               667.4253
 Red. masses --      3.6116                 7.3990                 7.4041
 Frc consts  --      0.8821                 1.9407                 1.9432
 IR Inten    --      0.0000                 0.5206                 0.0000

                     43                     44                     45
                      A                      A                      A
 Frequencies --    679.3226               720.5023               721.5382
 Red. masses --      6.1414                 6.3415                 4.8474
 Frc consts  --      1.6698                 1.9396                 1.4869
 IR Inten    --      0.0000                29.7681                 0.0000

                     46                     47                     48
                      A                      A                      A
 Frequencies --    732.5266               744.8229               748.7018
 Red. masses --      4.7702                 1.2263                 1.2241
 Frc consts  --      1.5081                 0.4008                 0.4043
 IR Inten    --      0.0000               311.8662                 0.0000

                     49                     50                     51
                      A                      A                      A
 Frequencies --    758.6058               774.9280               784.6610
 Red. masses --      3.9719                 3.5629                 6.5306
 Frc consts  --      1.3467                 1.2606                 2.3690
 IR Inten    --      3.0430                 0.0000                 0.0000

                     52                     53                     54
                      A                      A                      A
 Frequencies --    812.3724               851.2968               853.6244
 Red. masses --      6.3790                 1.4304                 1.4200
 Frc consts  --      2.4804                 0.6108                 0.6097
 IR Inten    --      2.2042                 0.0000                 0.0001

                     55                     56                     57
                      A                      A                      A
 Frequencies --    854.4285               856.0551               856.1362
 Red. masses --      1.8084                 1.2425                 1.2421
 Frc consts  --      0.7778                 0.5365                 0.5364
 IR Inten    --    115.0789                 0.0007                 0.0001

                     58                     59                     60
                      A                      A                      A
 Frequencies --    868.1242               921.2301               921.3031
 Red. masses --      1.9334                 6.8199                 1.3783
 Frc consts  --      0.8585                 3.4101                 0.6893
 IR Inten    --      0.0001                 0.0265                21.4596

                     61                     62                     63
                      A                      A                      A
 Frequencies --    921.3750               947.9527               949.2300
 Red. masses --      1.3665                 1.2144                 1.2131
 Frc consts  --      0.6835                 0.6429                 0.6440
 IR Inten    --      0.0055                 0.0000                 0.0000

                     64                     65                     66
                      A                      A                      A
 Frequencies --    952.0944               952.3657               959.1100
 Red. masses --      3.5309                 3.8755                 6.3131
 Frc consts  --      1.8858                 2.0710                 3.4216
 IR Inten    --      4.6483                 0.0000                 0.4353

                     67                     68                     69
                      A                      A                      A
 Frequencies --    997.6712               997.6743               999.2822
 Red. masses --      1.3660                 1.3661                 1.4935
 Frc consts  --      0.8011                 0.8011                 0.8787
 IR Inten    --      0.0000                 0.0001                 0.0000

                     70                     71                     72
                      A                      A                      A
 Frequencies --    999.4755              1042.3230              1042.6346
 Red. masses --      1.5235                 2.6777                 2.6421
 Frc consts  --      0.8967                 1.7140                 1.6922
 IR Inten    --      3.3609                38.7652                 0.0000

                     73                     74                     75
                      A                      A                      A
 Frequencies --   1076.1224              1088.9940              1123.7479
 Red. masses --      2.4149                 1.8587                 2.0310
 Frc consts  --      1.6477                 1.2987                 1.5111
 IR Inten    --      0.0000                63.1994                 0.0000

                     76                     77                     78
                      A                      A                      A
 Frequencies --   1131.3449              1131.3577              1148.5579
 Red. masses --      1.3151                 1.3150                 1.6844
 Frc consts  --      0.9917                 0.9917                 1.3092
 IR Inten    --     20.9491                 0.0004                 1.5719

                     79                     80                     81
                      A                      A                      A
 Frequencies --   1176.6932              1178.8832              1189.9923
 Red. masses --      1.0965                 1.1000                 1.3285
 Frc consts  --      0.8945                 0.9007                 1.1084
 IR Inten    --      7.3708                 0.0000                15.0017

                     82                     83                     84
                      A                      A                      A
 Frequencies --   1191.8171              1205.2724              1222.5048
 Red. masses --      1.1737                 2.4791                 4.2506
 Frc consts  --      0.9822                 2.1218                 3.7428
 IR Inten    --      0.0000                 0.1761                 0.0000

                     85                     86                     87
                      A                      A                      A
 Frequencies --   1223.3181              1225.3623              1254.6579
 Red. masses --      3.6878                 2.6468                 2.0852
 Frc consts  --      3.2516                 2.3415                 1.9340
 IR Inten    --      3.5259                 0.0000                 0.0000

                     88                     89                     90
                      A                      A                      A
 Frequencies --   1298.5345              1308.6891              1314.8692
 Red. masses --      2.2767                 7.6134                10.1508
 Frc consts  --      2.2618                 7.6825                10.3399
 IR Inten    --    269.3352               965.7385                 0.0037

                     91                     92                     93
                      A                      A                      A
 Frequencies --   1314.9090              1318.9092              1332.3364
 Red. masses --     10.1806                 3.8910                 1.3072
 Frc consts  --     10.3709                 3.9878                 1.3671
 IR Inten    --     53.8161                 0.0000                 0.0000

                     94                     95                     96
                      A                      A                      A
 Frequencies --   1332.3729              1339.0950              1370.5136
 Red. masses --      1.3065                 2.1045                 7.6043
 Frc consts  --      1.3665                 2.2235                 8.4154
 IR Inten    --      0.0107                 0.0000                 0.0001

                     97                     98                     99
                      A                      A                      A
 Frequencies --   1375.1098              1377.0250              1437.6836
 Red. masses --      5.2435                 2.4900                 2.9559
 Frc consts  --      5.8418                 2.7819                 3.5997
 IR Inten    --    951.4720               239.2709                20.7522

                    100                    101                    102
                      A                      A                      A
 Frequencies --   1437.6852              1475.7705              1491.4324
 Red. masses --      2.9566                 2.3941                 2.5216
 Frc consts  --      3.6006                 3.0721                 3.3047
 IR Inten    --      0.0763                 0.0000                26.2499

                    103                    104                    105
                      A                      A                      A
 Frequencies --   1514.8656              1540.0589              1542.1237
 Red. masses --      2.7711                 2.4898                 2.5645
 Frc consts  --      3.7468                 3.4793                 3.5933
 IR Inten    --   1219.9892                 0.0000               203.6784

                    106                    107                    108
                      A                      A                      A
 Frequencies --   1552.5328              1599.5509              1602.3679
 Red. masses --      2.9148                 5.2640                 6.7499
 Frc consts  --      4.1394                 7.9353                10.2111
 IR Inten    --      0.0000                 0.0000                 0.0055

                    109                    110                    111
                      A                      A                      A
 Frequencies --   1602.3797              1618.0146              1633.5469
 Red. masses --      6.7502                 5.9998                 5.9850
 Frc consts  --     10.2117                 9.2545                 9.4098
 IR Inten    --      5.4320                 0.9635               344.3048

                    112                    113                    114
                      A                      A                      A
 Frequencies --   1644.4028              1652.8313              1655.5075
 Red. masses --      6.3367                 7.2316                 6.3046
 Frc consts  --     10.0956                11.6397                10.1806
 IR Inten    --      0.0000                 0.0000                 2.3119

                    115                    116                    117
                      A                      A                      A
 Frequencies --   2329.3171              2329.3674              3180.7487
 Red. masses --     12.6847                12.6848                 1.0863
 Frc consts  --     40.5496                40.5517                 6.4754
 IR Inten    --    449.7314                 0.0002                 0.0000

                    118                    119                    120
                      A                      A                      A
 Frequencies --   3180.9679              3194.8076              3194.9230
 Red. masses --      1.0865                 1.0925                 1.0925
 Frc consts  --      6.4774                 6.5698                 6.5706
 IR Inten    --      2.0097                59.6642                 0.0002

                    121                    122                    123
                      A                      A                      A
 Frequencies --   3200.5357              3200.5386              3201.1284
 Red. masses --      1.0901                 1.0901                 1.0895
 Frc consts  --      6.5790                 6.5790                 6.5776
 IR Inten    --      6.6201                 0.0190                 0.0010

                    124                    125                    126
                      A                      A                      A
 Frequencies --   3201.1309              3210.6437              3211.2016
 Red. masses --      1.0895                 1.0911                 1.0912
 Frc consts  --      6.5776                 6.6266                 6.6296
 IR Inten    --      0.1130                 0.0008                27.8203

                    127                    128                    129
                      A                      A                      A
 Frequencies --   3213.5589              3213.8263              3213.8305
 Red. masses --      1.0938                 1.0953                 1.0953
 Frc consts  --      6.6549                 6.6657                 6.6657
 IR Inten    --      1.3467                 0.0054                 3.3430

                    130                    131                    132
                      A                      A                      A
 Frequencies --   3214.0765              3214.9951              3215.0037
 Red. masses --      1.0937                 1.0965                 1.0965
 Frc consts  --      6.6568                 6.6773                 6.6773
 IR Inten    --      0.0000                 0.3389                 0.0003

 - Thermochemistry -
 -------------------
 Temperature   298.150 Kelvin.  Pressure   1.00000 Atm.
 Atom     1 has atomic number  6 and mass  12.00000

 Molecular mass:   384.13750 amu.
 Principal axes and moments of inertia in atomic units:
                           1         2         3
     Eigenvalues --  4583.42412********************
           X            1.00000  -0.00000   0.00000
           Y            0.00000   1.00000  -0.00001
           Z           -0.00000   0.00001   1.00000
 This molecule is an asymmetric top.
 Rotational symmetry number  1.
 Warning -- assumption of classical behavior for rotation
           may cause significant error
 Rotational temperatures (Kelvin)      0.01890     0.00386     0.00337
 Rotational constants (GHZ):           0.39375     0.08051     0.07014
 Zero-point vibrational energy     920340.2 (Joules/Mol)
                                  219.96659 (Kcal/Mol)
 Warning -- explicit consideration of  38 degrees of freedom as
           vibrations may cause significant error
 Vibrational temperatures:      7.27    20.18    33.50    36.45    40.96
          (Kelvin)             49.43    63.34   172.45   182.42   189.72
                              198.39   225.18   249.31   276.43   287.12
                              365.08   381.80   411.50   427.16   527.05
                              587.57   588.11   596.95   598.08   612.92
                              644.27   658.56   698.48   698.58   724.27
                              738.89   809.59   813.69   819.06   827.83
                              829.31   829.52   847.35   912.11   926.37
                              959.97   960.27   977.39  1036.64  1038.13
                             1053.94  1071.63  1077.21  1091.46  1114.95
                             1128.95  1168.82  1224.82  1228.17  1229.33
                             1231.67  1231.79  1249.04  1325.44  1325.55
                             1325.65  1363.89  1365.73  1369.85  1370.24
                             1379.94  1435.42  1435.43  1437.74  1438.02
                             1499.67  1500.12  1548.30  1566.82  1616.82
                             1627.75  1627.77  1652.52  1693.00  1696.15
                             1712.13  1714.76  1734.12  1758.91  1760.08
                             1763.02  1805.17  1868.30  1882.91  1891.80
                             1891.86  1897.61  1916.93  1916.99  1926.66
                             1971.86  1978.47  1981.23  2068.50  2068.51
                             2123.30  2145.84  2179.55  2215.80  2218.77
                             2233.75  2301.39  2305.45  2305.46  2327.96
                             2350.31  2365.93  2378.05  2381.90  3351.36
                             3351.44  4576.38  4576.70  4596.61  4596.78
                             4604.85  4604.86  4605.70  4605.71  4619.39
                             4620.20  4623.59  4623.97  4623.98  4624.33
                             4625.66  4625.67

 Zero-point correction=                           0.350539 (Hartree/Particle)
 Thermal correction to Energy=                    0.373880
 Thermal correction to Enthalpy=                  0.374824
 Thermal correction to Gibbs Free Energy=         0.292065
 Sum of electronic and zero-point Energies=          -1219.623936
 Sum of electronic and thermal Energies=             -1219.600595
 Sum of electronic and thermal Enthalpies=           -1219.599650
 Sum of electronic and thermal Free Energies=        -1219.682410

                     E (Thermal)             CV                S
                      KCal/Mol        Cal/Mol-Kelvin    Cal/Mol-Kelvin
 Total                  234.613             92.072            174.182
 Electronic               0.000              0.000              0.000
 Translational            0.889              2.981             43.730
 Rotational               0.889              2.981             36.223
 Vibrational            232.836             86.110             94.230
 Vibration     1          0.593              1.987              9.368
 Vibration     2          0.593              1.986              7.339
 Vibration     3          0.593              1.985              6.333
 Vibration     4          0.593              1.985              6.165
 Vibration     5          0.593              1.984              5.934
 Vibration     6          0.594              1.983              5.561
 Vibration     7          0.595              1.980              5.069
 Vibration     8          0.609              1.933              3.103
 Vibration     9          0.611              1.926              2.994
 Vibration    10          0.612              1.921              2.919
 Vibration    11          0.614              1.915              2.833
 Vibration    12          0.620              1.895              2.592
 Vibration    13          0.627              1.875              2.400
 Vibration    14          0.634              1.851              2.207
 Vibration    15          0.638              1.840              2.137
 Vibration    16          0.665              1.756              1.704
 Vibration    17          0.671              1.737              1.626
 Vibration    18          0.684              1.700              1.497
 Vibration    19          0.691              1.680              1.434
 Vibration    20          0.739              1.542              1.095
 Vibration    21          0.773              1.452              0.932
 Vibration    22          0.773              1.451              0.931
 Vibration    23          0.778              1.438              0.909
 Vibration    24          0.779              1.436              0.907
 Vibration    25          0.788              1.414              0.872
 Vibration    26          0.807              1.366              0.802
 Vibration    27          0.816              1.344              0.773
 Vibration    28          0.842              1.282              0.695
 Vibration    29          0.842              1.282              0.695
 Vibration    30          0.859              1.242              0.650
 Vibration    31          0.869              1.220              0.625
 Vibration    32          0.918              1.112              0.518
 Vibration    33          0.921              1.106              0.513
 Vibration    34          0.925              1.098              0.506
 Vibration    35          0.932              1.085              0.494
 Vibration    36          0.933              1.082              0.492
 Vibration    37          0.933              1.082              0.492
 Vibration    38          0.946              1.055              0.469

 Normal termination of Gaussian 09 at Mon Feb 15 09:16:59 2021.
 Gaussian 09:  ES64L-G09RevE.01 30-Nov-2015

 ----------------------------------------------------------------------
 #p b3lyp chkbasis geom=allcheck Guess=Read int=ultrafine scrf=(SMD,sol
 vent=n,n-DiMethylFormamide) td=(NStates=30) EmpiricalDispersion=GD3BJ
 ----------------------------------------------------------------------

 Structure from the checkpoint file:  "cp.chk"
 -----
 Title
 -----
 Charge =  0 Multiplicity = 1

                         Standard orientation:
 ---------------------------------------------------------------------
 Center     Atomic      Atomic             Coordinates (Angstroms)
 Number     Number       Type             X           Y           Z
 ---------------------------------------------------------------------
      1          6           0        0.690844    3.650663    0.000466
      2          6           0        1.383112    2.438275    0.000460
      3          6           0        0.705368    1.223882   -0.000143
      4          6           0       -0.705377    1.223876   -0.000622
      5          6           0       -1.383139    2.438258   -0.000650
      6          6           0       -0.690890    3.650654   -0.000132
      7          6           0       -0.705368   -1.223875   -0.000627
      8          6           0        0.705377   -1.223868   -0.000280
      9          6           0        1.383139   -2.438249   -0.000007
     10          1           0        2.463027   -2.442820    0.000180
     11          6           0        0.690890   -3.650646    0.000032
     12          6           0       -0.690845   -3.650655   -0.000206
     13          6           0       -1.383112   -2.438268   -0.000529
     14          1           0        2.462998    2.442870    0.000913
     15          1           0       -2.463027    2.442831   -0.001105
     16          1           0       -1.245962    4.579471   -0.000182
     17          1           0        1.245964   -4.579462    0.000243
     18          1           0       -1.245907   -4.579478   -0.000156
     19          7           0        1.390781    0.000007   -0.000350
     20          6           0       -2.816284   -0.000006   -0.000637
     21          6           0       -3.506262   -0.000570   -1.208525
     22          6           0       -3.505327    0.000559    1.207799
     23          6           0       -4.890696   -0.000584   -1.214736
     24          6           0       -4.889746    0.000569    1.215085
     25          6           0       -5.583506   -0.000009    0.000442
     26          1           0       -5.437114   -0.001014   -2.147423
     27          1           0       -5.435451    0.000998    2.148190
     28          1           0       -2.952409   -0.000994   -2.137468
     29          1           0       -2.950767    0.000987    2.136322
     30          1           0        1.245906    4.579486    0.000919
     31          7           0       -1.390780   -0.000003   -0.001211
     32          6           0        2.816283    0.000004   -0.000105
     33          6           0        3.505967    0.000913   -1.208166
     34          6           0        3.505622   -0.000913    1.208157
     35          6           0        4.890395    0.000932   -1.214719
     36          1           0        2.951888    0.001601   -2.136975
     37          6           0        4.890047   -0.000931    1.215101
     38          1           0        2.951287   -0.001602    2.136813
     39          6           0        5.583506    0.000002    0.000290
     40          1           0        5.436587    0.001625   -2.147539
     41          1           0        5.435978   -0.001627    2.148074
     42          1           0       -2.462999   -2.442859   -0.000750
     43          6           0       -7.010157   -0.000011    0.001023
     44          6           0        7.010157    0.000002    0.000500
     45          7           0       -8.162834   -0.000013    0.001504
     46          7           0        8.162835    0.000002    0.000673
 ---------------------------------------------------------------------

 SCF Done:  E(RB3LYP) =  -1219.97447471     A.U. after    1 cycles

 Excitation energies and oscillator strengths:

 Excited State   1:      Singlet-A      2.2324 eV  555.39 nm  f=0.0000  <S**2>=0.000
     100 -> 101        0.70404
 This state for optimization and/or second-order correction.
 Total Energy, E(TD-HF/TD-KS) =  -1219.89243638
 Copying the excited state density for this state as the 1-particle RhoCI density.

 Excited State   2:      Singlet-A      2.2558 eV  549.63 nm  f=0.0000  <S**2>=0.000
     100 -> 102        0.70395

 Excited State   3:      Singlet-A      2.8770 eV  430.95 nm  f=0.0000  <S**2>=0.000
     100 -> 103        0.69442
     100 -> 105       -0.12466

 Excited State   4:      Singlet-A      2.9673 eV  417.83 nm  f=0.0325  <S**2>=0.000
     100 -> 104        0.70367

 Excited State   5:      Singlet-A      3.3855 eV  366.23 nm  f=0.0000  <S**2>=0.000
     100 -> 103        0.12487
     100 -> 105        0.69222

 Excited State   6:      Singlet-A      3.8140 eV  325.08 nm  f=0.2210  <S**2>=0.000
      99 -> 103        0.13505
      99 -> 105       -0.12507
     100 -> 106        0.68144

 Excited State   7:      Singlet-A      3.9042 eV  317.57 nm  f=0.0000  <S**2>=0.000
     100 -> 107        0.69128

 Excited State   8:      Singlet-A      3.9137 eV  316.80 nm  f=0.0000  <S**2>=0.000
      99 -> 101        0.70361

 Excited State   9:      Singlet-A      3.9370 eV  314.92 nm  f=0.0000  <S**2>=0.000
      99 -> 102        0.70371

 Excited State  10:      Singlet-A      4.6476 eV  266.77 nm  f=0.0000  <S**2>=0.000
      99 -> 104        0.70285

 Excited State  11:      Singlet-A      4.7052 eV  263.51 nm  f=0.3530  <S**2>=0.000
      99 -> 103        0.68505
     100 -> 106       -0.12002

 Excited State  12:      Singlet-A      4.7727 eV  259.78 nm  f=0.0143  <S**2>=0.000
     100 -> 108        0.70522

 Excited State  13:      Singlet-A      4.7786 eV  259.45 nm  f=0.0000  <S**2>=0.000
     100 -> 109        0.70569

 Excited State  14:      Singlet-A      4.7963 eV  258.50 nm  f=0.0175  <S**2>=0.000
      94 -> 102        0.13062
      95 -> 104       -0.12009
      96 -> 103       -0.11263
      97 -> 102        0.17629
      98 -> 101        0.64584

 Excited State  15:      Singlet-A      4.8123 eV  257.64 nm  f=0.0000  <S**2>=0.000
      94 -> 101        0.14271
      95 -> 103        0.11701
      96 -> 104        0.12784
      97 -> 101        0.23578
      98 -> 102        0.62090

 Excited State  16:      Singlet-A      4.8982 eV  253.12 nm  f=0.3952  <S**2>=0.000
      95 -> 101        0.10271
      96 -> 102       -0.10171
      97 -> 103       -0.10877
     100 -> 110        0.66859

 Excited State  17:      Singlet-A      4.9191 eV  252.05 nm  f=0.0000  <S**2>=0.000
      97 -> 101        0.66018
      98 -> 102       -0.24789

 Excited State  18:      Singlet-A      4.9342 eV  251.27 nm  f=0.0004  <S**2>=0.000
      97 -> 102        0.67525
      98 -> 101       -0.19612

 Excited State  19:      Singlet-A      4.9956 eV  248.19 nm  f=0.0024  <S**2>=0.000
     100 -> 111        0.64453
     100 -> 113        0.21901
     100 -> 116        0.16592

 Excited State  20:      Singlet-A      5.0913 eV  243.52 nm  f=0.0000  <S**2>=0.000
      93 -> 102        0.38658
      94 -> 101        0.43635
      95 -> 103        0.21227
      96 -> 104        0.23432
      98 -> 102       -0.20459

 Excited State  21:      Singlet-A      5.0936 eV  243.41 nm  f=0.0308  <S**2>=0.000
      93 -> 101        0.40207
      94 -> 102        0.42100
      95 -> 104       -0.23489
      96 -> 103       -0.22093
      98 -> 101       -0.18010

 Excited State  22:      Singlet-A      5.1623 eV  240.17 nm  f=0.7343  <S**2>=0.000
      99 -> 105        0.67998
     100 -> 106        0.14141

 Excited State  23:      Singlet-A      5.3313 eV  232.56 nm  f=0.0000  <S**2>=0.000
     100 -> 112        0.69957

 Excited State  24:      Singlet-A      5.3526 eV  231.63 nm  f=0.0015  <S**2>=0.000
     100 -> 111       -0.21990
     100 -> 113        0.66487

 Excited State  25:      Singlet-A      5.3554 eV  231.51 nm  f=0.8790  <S**2>=0.000
      93 -> 104       -0.10145
      94 -> 103        0.11732
      95 -> 101       -0.43562
      96 -> 102        0.48720
     100 -> 110        0.11999

 Excited State  26:      Singlet-A      5.3700 eV  230.89 nm  f=0.0000  <S**2>=0.000
      94 -> 104       -0.10660
      95 -> 102       -0.12345
      96 -> 101        0.66287

 Excited State  27:      Singlet-A      5.4006 eV  229.57 nm  f=0.0021  <S**2>=0.000
      95 -> 101        0.52266
      96 -> 102        0.47557

 Excited State  28:      Singlet-A      5.4133 eV  229.03 nm  f=0.0000  <S**2>=0.000
      95 -> 102        0.67091
      96 -> 101        0.17050

 Excited State  29:      Singlet-A      5.4830 eV  226.12 nm  f=0.0000  <S**2>=0.000
      97 -> 104       -0.41328
      97 -> 106        0.13866
      98 -> 103        0.51612
      98 -> 105       -0.11783

 Excited State  30:      Singlet-A      5.5305 eV  224.18 nm  f=0.0000  <S**2>=0.000
     100 -> 114        0.70108

 The electronic state is 1-A.
 Alpha  occ. eigenvalues --  -14.35808 -14.35807 -14.32622 -14.32622 -10.23143
 Alpha  occ. eigenvalues --  -10.23142 -10.22701 -10.22701 -10.22542 -10.22540
 Alpha  occ. eigenvalues --  -10.22508 -10.22508 -10.22493 -10.22493 -10.20032
 Alpha  occ. eigenvalues --  -10.20032 -10.20031 -10.20031 -10.19124 -10.19124
 Alpha  occ. eigenvalues --  -10.19124 -10.19123 -10.17037 -10.17037 -10.17035
 Alpha  occ. eigenvalues --  -10.17035 -10.16704 -10.16703 -10.16643 -10.16643
 Alpha  occ. eigenvalues --   -1.00410  -0.96631  -0.92688  -0.92666  -0.88511
 Alpha  occ. eigenvalues --   -0.87752  -0.86857  -0.83847  -0.79675  -0.78123
 Alpha  occ. eigenvalues --   -0.77256  -0.77254  -0.76657  -0.76121  -0.73179
 Alpha  occ. eigenvalues --   -0.71834  -0.66841  -0.65747  -0.64417  -0.63627
 Alpha  occ. eigenvalues --   -0.63595  -0.60719  -0.60310  -0.57061  -0.56616
 Alpha  occ. eigenvalues --   -0.56588  -0.56486  -0.53753  -0.53241  -0.50151
 Alpha  occ. eigenvalues --   -0.49700  -0.49333  -0.46998  -0.46893  -0.46254
 Alpha  occ. eigenvalues --   -0.45706  -0.44486  -0.44472  -0.44295  -0.44242
 Alpha  occ. eigenvalues --   -0.43622  -0.43370  -0.43254  -0.41479  -0.41216
 Alpha  occ. eigenvalues --   -0.40990  -0.40602  -0.38655  -0.38471  -0.38417
 Alpha  occ. eigenvalues --   -0.38051  -0.37778  -0.37686  -0.36781  -0.36080
 Alpha  occ. eigenvalues --   -0.35554  -0.35244  -0.35151  -0.35015  -0.34663
 Alpha  occ. eigenvalues --   -0.34174  -0.32394  -0.28330  -0.28016  -0.27420
 Alpha  occ. eigenvalues --   -0.27348  -0.26443  -0.26222  -0.22943  -0.16984
 Alpha virt. eigenvalues --   -0.06382  -0.06307  -0.03716  -0.03644  -0.01690
 Alpha virt. eigenvalues --   -0.00617  -0.00383   0.02045   0.02067   0.02883
 Alpha virt. eigenvalues --    0.03875   0.04424   0.05497   0.05566   0.05663

 Mulliken charges:
               1
     1  C   -0.198146
     2  C   -0.193930
     3  C    0.065937
     4  C    0.065942
     5  C   -0.193931
     6  C   -0.198146
     7  C    0.065936
     8  C    0.065942
     9  C   -0.193930
    10  H    0.161644
    11  C   -0.198147
    12  C   -0.198148
    13  C   -0.193929
    14  H    0.161644
    15  H    0.161644
    16  H    0.142682
    17  H    0.142682
    18  H    0.142682
    19  N    0.023583
    20  C    0.083050
    21  C   -0.181072
    22  C   -0.181365
    23  C   -0.172790
    24  C   -0.172736
    25  C    0.278106
    26  H    0.165746
    27  H    0.165747
    28  H    0.154742
    29  H    0.154756
    30  H    0.142682
    31  N    0.023582
    32  C    0.083048
    33  C   -0.181190
    34  C   -0.181246
    35  C   -0.172774
    36  H    0.154749
    37  C   -0.172753
    38  H    0.154749
    39  C    0.278107
    40  H    0.165745
    41  H    0.165748
    42  H    0.161643
    43  C   -0.204059
    44  C   -0.204059
    45  N   -0.070083
    46  N   -0.070083
 Sum of Mulliken charges =  -0.00000

 Dipole moment (field-independent basis, Debye):
    X=             -0.0000    Y=              0.0001    Z=             -0.0021  Tot=              0.0021
 Quadrupole moment (field-independent basis, Debye-Ang):
   XX=           -294.7165   YY=           -172.4536   ZZ=           -159.5237
   XY=             -0.0001   XZ=              0.0178   YZ=             -0.0029

 Normal termination of Gaussian 09 at Mon Feb 15 12:29:29 2021.
