                         Program Version 5.0.2 -  RELEASE  -
|  1> %maxcore 60000
|  2> %pal
|  3>  nprocs= 4
|  4> end
|  5> !STEOM-DLPNO-CCSD DEF2-TZVP DEF2-TZVP/C def2/J TightSCF TightPNO CPCM
|  6> %MDCI
|  7>    Dorootwise true
|  8>    OTHRESH 0.005
|  9>    VTHRESH 0.005
| 10>    TCutPNOSingles 1e-11
| 11>    DTol 1e-5
| 12>    NROOTS  25
| 13>    DOSOLV  TRUE
| 14>    MAXITER 500
| 15> END
| 16> %CPCM
| 17>    SMD          TRUE
| 18>    SMDsolvent   "N,N-DIMETHYLFORMAMIDE"
| 19> END
| 20>
| 21>
| 22> * xyz 0 1
| 23> C                  -0.69204800   -3.64386400   -0.00787400
| 24> C                  -1.38063400   -2.43381100    0.01449500
| 25> C                  -0.70412400   -1.22065400    0.00031700
| 26> C                   0.70453700   -1.22132400   -0.01151200
| 27> C                   1.37757400   -2.43577000   -0.05047100
| 28> C                   0.68626500   -3.64462700   -0.04839400
| 29> C                   0.70452700    1.22133800    0.01141000
| 30> C                  -0.70413500    1.22065200   -0.00038400
| 31> C                  -1.38065800    2.43380100   -0.01460900
| 32> H                  -2.46172000    2.43500700   -0.04119000
| 33> C                  -0.69208600    3.64386400    0.00768500
| 34> C                   0.68622800    3.64464400    0.04816700
| 35> C                   1.37755000    2.43579500    0.05028500
| 36> H                  -2.46169400   -2.43503000    0.04110900
| 37> H                   2.45827400   -2.44078500   -0.08404200
| 38> H                   1.24095300   -4.57320800   -0.07768800
| 39> H                  -1.24837500    4.57189400   -0.00273000
| 40> H                   1.24090700    4.57323200    0.07740300
| 41> N                  -1.38783400   -0.00000400    0.00001600
| 42> C                   2.81359400    0.00001000    0.00001200
| 43> C                   3.50492200    0.26808100   -1.17600900
| 44> C                   3.50487000   -0.26806900    1.17606000
| 45> C                   4.88571300    0.27165100   -1.18089900
| 46> C                   4.88566100   -0.27164800    1.18100900
| 47> C                   5.58200100   -0.00000100    0.00007000
| 48> H                   5.43094000    0.47772700   -2.09179700
| 49> H                   5.43084800   -0.47772900    2.09193100
| 50> H                   2.95295300    0.47632700   -2.08345700
| 51> H                   2.95286100   -0.47631300    2.08348400
| 52> H                  -1.24832600   -4.57190200    0.00251200
| 53> N                   1.38978900    0.00001000   -0.00001500
| 54> C                  -2.81267800   -0.00000700    0.00003000
| 55> C                  -3.50271800   -0.16014900   -1.19561600
| 56> C                  -3.50269000    0.16013500    1.19569200
| 57> C                  -4.88377600   -0.16242500   -1.20102800
| 58> H                  -2.94982500   -0.28486500   -2.11773400
| 59> C                  -4.88374800    0.16241100    1.20113700
| 60> H                  -2.94977500    0.28485300    2.11779700
| 61> C                  -5.57941300   -0.00000800    0.00006200
| 62> H                  -5.42939900   -0.28554300   -2.12654800
| 63> H                  -5.42934900    0.28552900    2.12666900
| 64> H                   2.45825100    2.44082500    0.08382800
| 65> C                   7.00167700   -0.00000500    0.00010100
| 66> C                  -6.99939900   -0.00000900    0.00008000
| 67> N                   8.15878000   -0.00000800    0.00012600
| 68> N                  -8.15639400   -0.00000900    0.00009400
| 69> *
| 70>
| 71>
| 72>                          ****END OF INPUT****

CARTESIAN COORDINATES (ANGSTROEM)
---------------------------------
  C     -0.692048   -3.643864   -0.007874
  C     -1.380634   -2.433811    0.014495
  C     -0.704124   -1.220654    0.000317
  C      0.704537   -1.221324   -0.011512
  C      1.377574   -2.435770   -0.050471
  C      0.686265   -3.644627   -0.048394
  C      0.704527    1.221338    0.011410
  C     -0.704135    1.220652   -0.000384
  C     -1.380658    2.433801   -0.014609
  H     -2.461720    2.435007   -0.041190
  C     -0.692086    3.643864    0.007685
  C      0.686228    3.644644    0.048167
  C      1.377550    2.435795    0.050285
  H     -2.461694   -2.435030    0.041109
  H      2.458274   -2.440785   -0.084042
  H      1.240953   -4.573208   -0.077688
  H     -1.248375    4.571894   -0.002730
  H      1.240907    4.573232    0.077403
  N     -1.387834   -0.000004    0.000016
  C      2.813594    0.000010    0.000012
  C      3.504922    0.268081   -1.176009
  C      3.504870   -0.268069    1.176060
  C      4.885713    0.271651   -1.180899
  C      4.885661   -0.271648    1.181009
  C      5.582001   -0.000001    0.000070
  H      5.430940    0.477727   -2.091797
  H      5.430848   -0.477729    2.091931
  H      2.952953    0.476327   -2.083457
  H      2.952861   -0.476313    2.083484
  H     -1.248326   -4.571902    0.002512
  N      1.389789    0.000010   -0.000015
  C     -2.812678   -0.000007    0.000030
  C     -3.502718   -0.160149   -1.195616
  C     -3.502690    0.160135    1.195692
  C     -4.883776   -0.162425   -1.201028
  H     -2.949825   -0.284865   -2.117734
  C     -4.883748    0.162411    1.201137
  H     -2.949775    0.284853    2.117797
  C     -5.579413   -0.000008    0.000062
  H     -5.429399   -0.285543   -2.126548
  H     -5.429349    0.285529    2.126669
  H      2.458251    2.440825    0.083828
  C      7.001677   -0.000005    0.000101
  C     -6.999399   -0.000009    0.000080
  N      8.158780   -0.000008    0.000126
  N     -8.156394   -0.000009    0.000094

 Total Charge           Charge          ....    0
 Multiplicity           Mult            ....    1
 Number of Electrons    NEL             ....  200
 Basis Dimension        Dim             .... 1026

ORBITAL ENERGIES
----------------

  NO   OCC          E(Eh)            E(eV)
   0   2.0000     -15.594419      -424.3457
   1   2.0000     -15.593933      -424.3325
   2   2.0000     -15.579825      -423.9486
   3   2.0000     -15.579600      -423.9425
   4   2.0000     -11.292341      -307.2802
   5   2.0000     -11.292201      -307.2764
   6   2.0000     -11.291519      -307.2578
   7   2.0000     -11.291168      -307.2483
   8   2.0000     -11.287317      -307.1435
   9   2.0000     -11.287290      -307.1428
  10   2.0000     -11.286177      -307.1125
  11   2.0000     -11.286168      -307.1122
  12   2.0000     -11.278899      -306.9144
  13   2.0000     -11.278411      -306.9012
  14   2.0000     -11.259247      -306.3797
  15   2.0000     -11.259194      -306.3783
  16   2.0000     -11.259071      -306.3749
  17   2.0000     -11.259019      -306.3735
  18   2.0000     -11.243884      -305.9616
  19   2.0000     -11.243855      -305.9609
  20   2.0000     -11.243655      -305.9554
  21   2.0000     -11.243627      -305.9547
  22   2.0000     -11.228235      -305.5358
  23   2.0000     -11.228234      -305.5358
  24   2.0000     -11.228145      -305.5334
  25   2.0000     -11.228145      -305.5334
  26   2.0000     -11.225086      -305.4501
  27   2.0000     -11.225086      -305.4501
  28   2.0000     -11.223791      -305.4149
  29   2.0000     -11.223791      -305.4149
  30   2.0000      -1.324654       -36.0457
  31   2.0000      -1.276994       -34.7488
  32   2.0000      -1.235481       -33.6191
  33   2.0000      -1.235087       -33.6084
  34   2.0000      -1.180264       -32.1166
  35   2.0000      -1.170315       -31.8459
  36   2.0000      -1.165621       -31.7181
  37   2.0000      -1.127470       -30.6800
  38   2.0000      -1.066238       -29.0138
  39   2.0000      -1.047781       -28.5116
  40   2.0000      -1.041345       -28.3364
  41   2.0000      -1.040648       -28.3175
  42   2.0000      -1.033980       -28.1360
  43   2.0000      -1.029645       -28.0181
  44   2.0000      -0.995271       -27.0827
  45   2.0000      -0.966540       -26.3009
  46   2.0000      -0.898855       -24.4591
  47   2.0000      -0.880999       -23.9732
  48   2.0000      -0.867938       -23.6178
  49   2.0000      -0.856644       -23.3105
  50   2.0000      -0.855304       -23.2740
  51   2.0000      -0.822128       -22.3712
  52   2.0000      -0.821583       -22.3564
  53   2.0000      -0.773346       -21.0438
  54   2.0000      -0.757997       -20.6261
  55   2.0000      -0.757877       -20.6229
  56   2.0000      -0.754114       -20.5205
  57   2.0000      -0.723669       -19.6920
  58   2.0000      -0.713593       -19.4179
  59   2.0000      -0.680153       -18.5079
  60   2.0000      -0.673259       -18.3203
  61   2.0000      -0.672003       -18.2861
  62   2.0000      -0.645686       -17.5700
  63   2.0000      -0.641588       -17.4585
  64   2.0000      -0.635484       -17.2924
  65   2.0000      -0.626400       -17.0452
  66   2.0000      -0.612819       -16.6757
  67   2.0000      -0.609656       -16.5896
  68   2.0000      -0.606748       -16.5105
  69   2.0000      -0.606447       -16.5023
  70   2.0000      -0.601230       -16.3603
  71   2.0000      -0.600076       -16.3289
  72   2.0000      -0.594181       -16.1685
  73   2.0000      -0.587100       -15.9758
  74   2.0000      -0.579260       -15.7625
  75   2.0000      -0.555162       -15.1067
  76   2.0000      -0.552516       -15.0347
  77   2.0000      -0.551767       -15.0144
  78   2.0000      -0.550304       -14.9745
  79   2.0000      -0.537454       -14.6249
  80   2.0000      -0.533480       -14.5167
  81   2.0000      -0.521485       -14.1903
  82   2.0000      -0.518265       -14.1027
  83   2.0000      -0.510258       -13.8848
  84   2.0000      -0.505555       -13.7569
  85   2.0000      -0.490463       -13.3462
  86   2.0000      -0.489458       -13.3188
  87   2.0000      -0.484336       -13.1794
  88   2.0000      -0.481758       -13.1093
  89   2.0000      -0.477985       -13.0066
  90   2.0000      -0.477314       -12.9884
  91   2.0000      -0.449321       -12.2266
  92   2.0000      -0.366128        -9.9629
  93   2.0000      -0.359426        -9.7805
  94   2.0000      -0.354149        -9.6369
  95   2.0000      -0.353562        -9.6209
  96   2.0000      -0.347568        -9.4578
  97   2.0000      -0.344082        -9.3630
  98   2.0000      -0.311675        -8.4811
  99   2.0000      -0.243693        -6.6312
 100   0.0000       0.071263         1.9392
 101   0.0000       0.073072         1.9884
 102   0.0000       0.098501         2.6803
 103   0.0000       0.099627         2.7110
 104   0.0000       0.125496         3.4149

E(0)                                       ...  -1212.124545117
E(0)                                       ...  -1212.124545117
E(CORR)(strong-pairs)                      ...     -4.779599877
E(CORR)(weak-pairs)                        ...     -0.010164680
E(CORR)(corrected)                         ...     -4.789764556
E(TOT)                                     ...  -1216.914309673

MULLIKEN ATOMIC CHARGES
-----------------------
   0 C :   -0.199005
   1 C :   -0.227316
   2 C :    0.084250
   3 C :    0.068830
   4 C :   -0.227565
   5 C :   -0.201302
   6 C :    0.070092
   7 C :    0.082289
   8 C :   -0.227247
   9 H :    0.172985
  10 C :   -0.199463
  11 C :   -0.200915
  12 C :   -0.227212
  13 H :    0.172918
  14 H :    0.173412
  15 H :    0.166475
  16 H :    0.166408
  17 H :    0.166551
  18 N :    0.006945
  19 C :    0.112845
  20 C :   -0.248723
  21 C :   -0.238334
  22 C :   -0.162827
  23 C :   -0.179135
  24 C :    0.329664
  25 H :    0.186920
  26 H :    0.187353
  27 H :    0.176408
  28 H :    0.175892
  29 H :    0.166477
  30 N :    0.007569
  31 C :    0.115207
  32 C :   -0.248455
  33 C :   -0.237477
  34 C :   -0.160551
  35 H :    0.175763
  36 C :   -0.177319
  37 H :    0.175208
  38 C :    0.331140
  39 H :    0.186802
  40 H :    0.187371
  41 H :    0.173064
  42 C :   -0.186451
  43 C :   -0.187866
  44 N :   -0.141184
  45 N :   -0.140492
Sum of atomic charges:   -0.0000000

LOEWDIN ATOMIC CHARGES
----------------------
   0 C :   -0.171851
   1 C :   -0.132698
   2 C :   -0.137684
   3 C :   -0.136962
   4 C :   -0.132447
   5 C :   -0.172064
   6 C :   -0.136937
   7 C :   -0.137714
   8 C :   -0.132676
   9 H :    0.164960
  10 C :   -0.171823
  11 C :   -0.172094
  12 C :   -0.132462
  13 H :    0.164962
  14 H :    0.164944
  15 H :    0.155152
  16 H :    0.155153
  17 H :    0.155163
  18 N :    0.285701
  19 C :   -0.157048
  20 C :   -0.083789
  21 C :   -0.084222
  22 C :   -0.068373
  23 C :   -0.068660
  24 C :   -0.149753
  25 H :    0.170990
  26 H :    0.171044
  27 H :    0.170732
  28 H :    0.170664
  29 H :    0.155164
  30 N :    0.285783
  31 C :   -0.157236
  32 C :   -0.083074
  33 C :   -0.083350
  34 C :   -0.067945
  35 H :    0.170738
  36 C :   -0.068278
  37 H :    0.170669
  38 C :   -0.149410
  39 H :    0.171064
  40 H :    0.171115
  41 H :    0.164942
  42 C :   -0.128639
  43 C :   -0.128358
  44 N :    0.013034
  45 N :    0.013571

  Mayer bond orders larger than 0.100000
B(  0-C ,  1-C ) :   1.2514 B(  0-C ,  5-C ) :   1.3179 B(  0-C , 29-H ) :   0.9374
B(  1-C ,  2-C ) :   1.3146 B(  1-C , 13-H ) :   0.9224 B(  2-C ,  3-C ) :   1.2622
B(  2-C , 18-N ) :   1.0477 B(  3-C ,  4-C ) :   1.3177 B(  3-C , 30-N ) :   1.0470
B(  4-C ,  5-C ) :   1.2528 B(  4-C , 14-H ) :   0.9223 B(  5-C , 15-H ) :   0.9375
B(  6-C ,  7-C ) :   1.2622 B(  6-C , 12-C ) :   1.3178 B(  6-C , 30-N ) :   1.0470
B(  7-C ,  8-C ) :   1.3145 B(  7-C , 18-N ) :   1.0480 B(  8-C ,  9-H ) :   0.9221
B(  8-C , 10-C ) :   1.2519 B( 10-C , 11-C ) :   1.3178 B( 10-C , 16-H ) :   0.9375
B( 11-C , 12-C ) :   1.2524 B( 11-C , 17-H ) :   0.9374 B( 12-C , 41-H ) :   0.9225
B( 18-N , 31-C ) :   0.6646 B( 19-C , 20-C ) :   1.3448 B( 19-C , 21-C ) :   1.3440
B( 19-C , 30-N ) :   0.6930 B( 20-C , 22-C ) :   1.3285 B( 20-C , 27-H ) :   0.9420
B( 21-C , 23-C ) :   1.3280 B( 21-C , 28-H ) :   0.9423 B( 22-C , 24-C ) :   1.2293
B( 22-C , 25-H ) :   0.9299 B( 23-C , 24-C ) :   1.2202 B( 23-C , 26-H ) :   0.9313
B( 24-C , 42-C ) :   0.8494 B( 31-C , 32-C ) :   1.3622 B( 31-C , 33-C ) :   1.3606
B( 32-C , 34-C ) :   1.3244 B( 32-C , 35-H ) :   0.9426 B( 33-C , 36-C ) :   1.3217
B( 33-C , 37-H ) :   0.9432 B( 34-C , 38-C ) :   1.2285 B( 34-C , 39-H ) :   0.9302
B( 36-C , 38-C ) :   1.2198 B( 36-C , 40-H ) :   0.9312 B( 38-C , 43-C ) :   0.8494
B( 42-C , 44-N ) :   2.8417 B( 43-C , 45-N ) :   2.8420

-----------------------------------------------------------------------------
         ABSORPTION SPECTRUM VIA TRANSITION ELECTRIC DIPOLE MOMENTS
-----------------------------------------------------------------------------
State   Energy  Wavelength   fosc         T2         TX        TY        TZ
        (cm-1)    (nm)                  (au**2)     (au)      (au)      (au)
-----------------------------------------------------------------------------
   1   22704.7    440.4   0.004549147   0.06596   0.25682   0.00097   0.00105
   2   25316.8    395.0   0.000060432   0.00079   0.00137   0.00326   0.02769
   3   22786.0    438.9   0.024797133   0.35827   0.59848   0.00483   0.00005
   4   27588.5    362.5   0.097793724   1.16697   0.00269   1.08003   0.02152
   5   31491.4    317.5   0.000814636   0.00852   0.09224   0.00127   0.00103
   6   31672.0    315.7   0.000454484   0.00472   0.00205   0.06348   0.02549
   7   32758.3    305.3   0.012509103   0.12571   0.00866   0.35355   0.00746
   8   37253.3    268.4   0.006291786   0.05560   0.00784   0.01392   0.23499
   9   37330.0    267.9   0.000375701   0.00331   0.00864   0.01556   0.04894
  10   37412.2    267.3   0.012201168   0.10737   0.00534   0.01070   0.32707
  11   41180.1    242.8   0.003758844   0.03005   0.00093   0.00339   0.17272
  12   40538.7    246.7   0.106096033   0.86160   0.92820   0.00184   0.00341
  13   40373.2    247.7   0.000120696   0.00098   0.03125   0.00185   0.00194
  14   43122.7    231.9   1.211468949   9.24873   0.00153   3.04105   0.02719
  15   46213.2    216.4   0.006066415   0.04322   0.00614   0.08518   0.18571
  16   46723.0    214.0   0.007984977   0.05626   0.23704   0.00589   0.00367
  17   46923.6    213.1   0.690684820   4.84578   2.20131   0.00414   0.00056
  18   46285.2    216.1   0.000137868   0.00098   0.00415   0.00747   0.02721
  19   50028.9    199.9   0.329062053   2.16537   1.47151   0.00461   0.00161
  20   47079.1    212.4   0.000927912   0.00649   0.00122   0.08051   0.00052
  21   53986.6    185.2   0.000603072   0.00368   0.05903   0.01343   0.00297
  22   65013.9    153.8   0.001125736   0.00570   0.07004   0.02569   0.01095
  23   65781.1    152.0   0.000096646   0.00048   0.00397   0.01602   0.00901

FINAL SINGLE POINT ENERGY     -1216.810859236613

DIPOLE MOMENT
-------------
                                X             Y             Z
Electronic contribution:     -0.01534       0.00012      -0.00259
Nuclear contribution   :     -0.01216       0.00002      -0.00044
                        -----------------------------------------
Total Dipole Moment    :     -0.02750       0.00014      -0.00303
                        -----------------------------------------
Magnitude (a.u.)       :      0.02767
Magnitude (Debye)      :      0.07033

Rotational constants in cm-1:     0.013166     0.002691     0.002341
Rotational constants in MHz :   394.716059    80.676940    70.178145

                             ****ORCA TERMINATED NORMALLY****
TOTAL RUN TIME: 1 days 0 hours 33 minutes 38 seconds 251 msec
