                         Program Version 5.0.2 -  RELEASE  -
|  1> %maxcore 3200
|  2> %pal
|  3>  nprocs= 8
|  4> end
|  5> ! RI-B2PLYP D3BJ def2-TZVP def2/J def2-TZVP/C RIJCOSX CPCM TightSCF
|  6> %TDDFT DCORR 4
|  7>    NROOTS   30
|  8>
|  9>    TDA      FALSE
| 10> END
| 11>
| 12> %CPCM
| 13>    SMD          TRUE
| 14>    SMDsolvent   "N,N-DIMETHYLFORMAMIDE"
| 15> END
| 16>
| 17>
| 18> * xyz 0 1
| 19> C                  -0.69204800   -3.64386400   -0.00787400
| 20> C                  -1.38063400   -2.43381100    0.01449500
| 21> C                  -0.70412400   -1.22065400    0.00031700
| 22> C                   0.70453700   -1.22132400   -0.01151200
| 23> C                   1.37757400   -2.43577000   -0.05047100
| 24> C                   0.68626500   -3.64462700   -0.04839400
| 25> C                   0.70452700    1.22133800    0.01141000
| 26> C                  -0.70413500    1.22065200   -0.00038400
| 27> C                  -1.38065800    2.43380100   -0.01460900
| 28> H                  -2.46172000    2.43500700   -0.04119000
| 29> C                  -0.69208600    3.64386400    0.00768500
| 30> C                   0.68622800    3.64464400    0.04816700
| 31> C                   1.37755000    2.43579500    0.05028500
| 32> H                  -2.46169400   -2.43503000    0.04110900
| 33> H                   2.45827400   -2.44078500   -0.08404200
| 34> H                   1.24095300   -4.57320800   -0.07768800
| 35> H                  -1.24837500    4.57189400   -0.00273000
| 36> H                   1.24090700    4.57323200    0.07740300
| 37> N                  -1.38783400   -0.00000400    0.00001600
| 38> C                   2.81359400    0.00001000    0.00001200
| 39> C                   3.50492200    0.26808100   -1.17600900
| 40> C                   3.50487000   -0.26806900    1.17606000
| 41> C                   4.88571300    0.27165100   -1.18089900
| 42> C                   4.88566100   -0.27164800    1.18100900
| 43> C                   5.58200100   -0.00000100    0.00007000
| 44> H                   5.43094000    0.47772700   -2.09179700
| 45> H                   5.43084800   -0.47772900    2.09193100
| 46> H                   2.95295300    0.47632700   -2.08345700
| 47> H                   2.95286100   -0.47631300    2.08348400
| 48> H                  -1.24832600   -4.57190200    0.00251200
| 49> N                   1.38978900    0.00001000   -0.00001500
| 50> C                  -2.81267800   -0.00000700    0.00003000
| 51> C                  -3.50271800   -0.16014900   -1.19561600
| 52> C                  -3.50269000    0.16013500    1.19569200
| 53> C                  -4.88377600   -0.16242500   -1.20102800
| 54> H                  -2.94982500   -0.28486500   -2.11773400
| 55> C                  -4.88374800    0.16241100    1.20113700
| 56> H                  -2.94977500    0.28485300    2.11779700
| 57> C                  -5.57941300   -0.00000800    0.00006200
| 58> H                  -5.42939900   -0.28554300   -2.12654800
| 59> H                  -5.42934900    0.28552900    2.12666900
| 60> H                   2.45825100    2.44082500    0.08382800
| 61> C                   7.00167700   -0.00000500    0.00010100
| 62> C                  -6.99939900   -0.00000900    0.00008000
| 63> N                   8.15878000   -0.00000800    0.00012600
| 64> N                  -8.15639400   -0.00000900    0.00009400
| 65> *
| 66>
| 67>
| 68>                          ****END OF INPUT****

CARTESIAN COORDINATES (ANGSTROEM)
---------------------------------
  C     -0.692048   -3.643864   -0.007874
  C     -1.380634   -2.433811    0.014495
  C     -0.704124   -1.220654    0.000317
  C      0.704537   -1.221324   -0.011512
  C      1.377574   -2.435770   -0.050471
  C      0.686265   -3.644627   -0.048394
  C      0.704527    1.221338    0.011410
  C     -0.704135    1.220652   -0.000384
  C     -1.380658    2.433801   -0.014609
  H     -2.461720    2.435007   -0.041190
  C     -0.692086    3.643864    0.007685
  C      0.686228    3.644644    0.048167
  C      1.377550    2.435795    0.050285
  H     -2.461694   -2.435030    0.041109
  H      2.458274   -2.440785   -0.084042
  H      1.240953   -4.573208   -0.077688
  H     -1.248375    4.571894   -0.002730
  H      1.240907    4.573232    0.077403
  N     -1.387834   -0.000004    0.000016
  C      2.813594    0.000010    0.000012
  C      3.504922    0.268081   -1.176009
  C      3.504870   -0.268069    1.176060
  C      4.885713    0.271651   -1.180899
  C      4.885661   -0.271648    1.181009
  C      5.582001   -0.000001    0.000070
  H      5.430940    0.477727   -2.091797
  H      5.430848   -0.477729    2.091931
  H      2.952953    0.476327   -2.083457
  H      2.952861   -0.476313    2.083484
  H     -1.248326   -4.571902    0.002512
  N      1.389789    0.000010   -0.000015
  C     -2.812678   -0.000007    0.000030
  C     -3.502718   -0.160149   -1.195616
  C     -3.502690    0.160135    1.195692
  C     -4.883776   -0.162425   -1.201028
  H     -2.949825   -0.284865   -2.117734
  C     -4.883748    0.162411    1.201137
  H     -2.949775    0.284853    2.117797
  C     -5.579413   -0.000008    0.000062
  H     -5.429399   -0.285543   -2.126548
  H     -5.429349    0.285529    2.126669
  H      2.458251    2.440825    0.083828
  C      7.001677   -0.000005    0.000101
  C     -6.999399   -0.000009    0.000080
  N      8.158780   -0.000008    0.000126
  N     -8.156394   -0.000009    0.000094

 Total Charge           Charge          ....    0
 Multiplicity           Mult            ....    1
 Number of Electrons    NEL             ....  200
 Basis Dimension        Dim             .... 1026

ORBITAL ENERGIES
----------------

  NO   OCC          E(Eh)            E(eV)
   0   2.0000     -14.875204      -404.7749
   1   2.0000     -14.874699      -404.7611
   2   2.0000     -14.851492      -404.1297
   3   2.0000     -14.851236      -404.1227
   4   2.0000     -10.674753      -290.4748
   5   2.0000     -10.674537      -290.4689
   6   2.0000     -10.673376      -290.4373
   7   2.0000     -10.673186      -290.4322
   8   2.0000     -10.669634      -290.3355
   9   2.0000     -10.669610      -290.3348
  10   2.0000     -10.668856      -290.3143
  11   2.0000     -10.668849      -290.3142
  12   2.0000     -10.665714      -290.2288
  13   2.0000     -10.665202      -290.2149
  14   2.0000     -10.642729      -289.6034
  15   2.0000     -10.642703      -289.6027
  16   2.0000     -10.642489      -289.5968
  17   2.0000     -10.642462      -289.5961
  18   2.0000     -10.631441      -289.2962
  19   2.0000     -10.631425      -289.2958
  20   2.0000     -10.631193      -289.2895
  21   2.0000     -10.631175      -289.2890
  22   2.0000     -10.612786      -288.7886
  23   2.0000     -10.612785      -288.7886
  24   2.0000     -10.612728      -288.7870
  25   2.0000     -10.612728      -288.7870
  26   2.0000     -10.609441      -288.6976
  27   2.0000     -10.609441      -288.6976
  28   2.0000     -10.608521      -288.6725
  29   2.0000     -10.608521      -288.6725
  30   2.0000      -1.138261       -30.9737
  31   2.0000      -1.096051       -29.8251
  32   2.0000      -1.054762       -28.7015
  33   2.0000      -1.054377       -28.6910
  34   2.0000      -1.008334       -27.4382
  35   2.0000      -0.999759       -27.2048
  36   2.0000      -0.993122       -27.0242
  37   2.0000      -0.959530       -26.1101
  38   2.0000      -0.909548       -24.7501
  39   2.0000      -0.892661       -24.2905
  40   2.0000      -0.885089       -24.0845
  41   2.0000      -0.884460       -24.0674
  42   2.0000      -0.877963       -23.8906
  43   2.0000      -0.873585       -23.7714
  44   2.0000      -0.841973       -22.9112
  45   2.0000      -0.822021       -22.3683
  46   2.0000      -0.765474       -20.8296
  47   2.0000      -0.751446       -20.4479
  48   2.0000      -0.738740       -20.1021
  49   2.0000      -0.728011       -19.8102
  50   2.0000      -0.726830       -19.7781
  51   2.0000      -0.696971       -18.9655
  52   2.0000      -0.694559       -18.8999
  53   2.0000      -0.652132       -17.7454
  54   2.0000      -0.648032       -17.6339
  55   2.0000      -0.646710       -17.5979
  56   2.0000      -0.646546       -17.5934
  57   2.0000      -0.615796       -16.7567
  58   2.0000      -0.608350       -16.5540
  59   2.0000      -0.576505       -15.6875
  60   2.0000      -0.570473       -15.5234
  61   2.0000      -0.567892       -15.4531
  62   2.0000      -0.543793       -14.7974
  63   2.0000      -0.541313       -14.7299
  64   2.0000      -0.534333       -14.5400
  65   2.0000      -0.527175       -14.3452
  66   2.0000      -0.514396       -13.9974
  67   2.0000      -0.513982       -13.9862
  68   2.0000      -0.510998       -13.9050
  69   2.0000      -0.510811       -13.8999
  70   2.0000      -0.505582       -13.7576
  71   2.0000      -0.502001       -13.6602
  72   2.0000      -0.500672       -13.6240
  73   2.0000      -0.483023       -13.1437
  74   2.0000      -0.476355       -12.9623
  75   2.0000      -0.474199       -12.9036
  76   2.0000      -0.469213       -12.7679
  77   2.0000      -0.457078       -12.4377
  78   2.0000      -0.456746       -12.4287
  79   2.0000      -0.448798       -12.2124
  80   2.0000      -0.442731       -12.0473
  81   2.0000      -0.439018       -11.9463
  82   2.0000      -0.436568       -11.8796
  83   2.0000      -0.425685       -11.5835
  84   2.0000      -0.419356       -11.4113
  85   2.0000      -0.411127       -11.1873
  86   2.0000      -0.409554       -11.1445
  87   2.0000      -0.406160       -11.0522
  88   2.0000      -0.405066       -11.0224
  89   2.0000      -0.403078       -10.9683
  90   2.0000      -0.399707       -10.8766
  91   2.0000      -0.376940       -10.2571
  92   2.0000      -0.318509        -8.6671
  93   2.0000      -0.313982        -8.5439
  94   2.0000      -0.307624        -8.3709
  95   2.0000      -0.306993        -8.3537
  96   2.0000      -0.300600        -8.1797
  97   2.0000      -0.297700        -8.1008
  98   2.0000      -0.264123        -7.1872
  99   2.0000      -0.199897        -5.4395
 100   0.0000      -0.009227        -0.2511
 101   0.0000      -0.008023        -0.2183
 102   0.0000       0.019098         0.5197
 103   0.0000       0.020213         0.5500
 104   0.0000       0.041298         1.1238

MULLIKEN ATOMIC CHARGES
-----------------------
   0 C :   -0.200525
   1 C :   -0.222176
   2 C :    0.101498
   3 C :    0.089128
   4 C :   -0.228179
   5 C :   -0.196314
   6 C :    0.089875
   7 C :    0.100869
   8 C :   -0.221743
   9 H :    0.168087
  10 C :   -0.201199
  11 C :   -0.196085
  12 C :   -0.228436
  13 H :    0.168002
  14 H :    0.167923
  15 H :    0.153563
  16 H :    0.153465
  17 H :    0.153554
  18 N :   -0.012476
  19 C :    0.136121
  20 C :   -0.222973
  21 C :   -0.222997
  22 C :   -0.173861
  23 C :   -0.173866
  24 C :    0.315534
  25 H :    0.176769
  26 H :    0.176695
  27 H :    0.166720
  28 H :    0.166665
  29 H :    0.153434
  30 N :   -0.013500
  31 C :    0.127815
  32 C :   -0.219856
  33 C :   -0.219368
  34 C :   -0.171795
  35 H :    0.166144
  36 C :   -0.172138
  37 H :    0.166115
  38 C :    0.313884
  39 H :    0.177152
  40 H :    0.177094
  41 H :    0.167820
  42 C :   -0.147948
  43 C :   -0.145882
  44 N :   -0.171727
  45 N :   -0.170882
Sum of atomic charges:   -0.0000000

LOEWDIN ATOMIC CHARGES
----------------------
   0 C :   -0.168508
   1 C :   -0.128036
   2 C :   -0.130916
   3 C :   -0.130288
   4 C :   -0.127708
   5 C :   -0.168844
   6 C :   -0.130287
   7 C :   -0.130915
   8 C :   -0.128037
   9 H :    0.160356
  10 C :   -0.168510
  11 C :   -0.168844
  12 C :   -0.127708
  13 H :    0.160356
  14 H :    0.160330
  15 H :    0.149636
  16 H :    0.149660
  17 H :    0.149637
  18 N :    0.276830
  19 C :   -0.148475
  20 C :   -0.079856
  21 C :   -0.079854
  22 C :   -0.059383
  23 C :   -0.059382
  24 C :   -0.146753
  25 H :    0.166302
  26 H :    0.166302
  27 H :    0.165869
  28 H :    0.165869
  29 H :    0.149660
  30 N :    0.276952
  31 C :   -0.148730
  32 C :   -0.078928
  33 C :   -0.078928
  34 C :   -0.059025
  35 H :    0.165875
  36 C :   -0.059025
  37 H :    0.165875
  38 C :   -0.146263
  39 H :    0.166400
  40 H :    0.166401
  41 H :    0.160330
  42 C :   -0.122351
  43 C :   -0.121993
  44 N :   -0.012881
  45 N :   -0.012212

  Mayer bond orders larger than 0.100000
B(  0-C ,  1-C ) :   1.3523 B(  0-C ,  5-C ) :   1.4369 B(  0-C , 29-H ) :   0.9891
B(  1-C ,  2-C ) :   1.4116 B(  1-C , 13-H ) :   0.9666 B(  2-C ,  3-C ) :   1.3604
B(  2-C , 18-N ) :   1.0737 B(  3-C ,  4-C ) :   1.4171 B(  3-C , 30-N ) :   1.0731
B(  4-C ,  5-C ) :   1.3507 B(  4-C , 14-H ) :   0.9673 B(  5-C , 15-H ) :   0.9890
B(  6-C ,  7-C ) :   1.3602 B(  6-C , 12-C ) :   1.4171 B(  6-C , 30-N ) :   1.0733
B(  7-C ,  8-C ) :   1.4120 B(  7-C , 18-N ) :   1.0738 B(  8-C ,  9-H ) :   0.9666
B(  8-C , 10-C ) :   1.3523 B( 10-C , 11-C ) :   1.4365 B( 10-C , 16-H ) :   0.9891
B( 11-C , 12-C ) :   1.3504 B( 11-C , 17-H ) :   0.9891 B( 12-C , 41-H ) :   0.9672
B( 18-N , 31-C ) :   0.7247 B( 19-C , 20-C ) :   1.4361 B( 19-C , 21-C ) :   1.4359
B( 19-C , 30-N ) :   0.7518 B( 20-C , 22-C ) :   1.4295 B( 20-C , 27-H ) :   0.9912
B( 21-C , 23-C ) :   1.4295 B( 21-C , 28-H ) :   0.9913 B( 22-C , 24-C ) :   1.3114
B( 22-C , 25-H ) :   0.9802 B( 23-C , 24-C ) :   1.3114 B( 23-C , 26-H ) :   0.9802
B( 24-C , 42-C ) :   0.9370 B( 31-C , 32-C ) :   1.4542 B( 31-C , 33-C ) :   1.4539
B( 32-C , 34-C ) :   1.4252 B( 32-C , 35-H ) :   0.9912 B( 33-C , 36-C ) :   1.4249
B( 33-C , 37-H ) :   0.9913 B( 34-C , 38-C ) :   1.3108 B( 34-C , 39-H ) :   0.9797
B( 36-C , 38-C ) :   1.3110 B( 36-C , 40-H ) :   0.9799 B( 38-C , 43-C ) :   0.9422
B( 42-C , 44-N ) :   3.0443 B( 43-C , 45-N ) :   3.0415

MP2 TOTAL ENERGY:    -1218.822319552 Eh

-----------------------------------------------------------------------------
         ABSORPTION SPECTRUM VIA TRANSITION ELECTRIC DIPOLE MOMENTS
-----------------------------------------------------------------------------
State   Energy    Wavelength  fosc         T2        TX        TY        TZ
        (cm-1)      (nm)                 (au**2)    (au)      (au)      (au)
-----------------------------------------------------------------------------
   1   20567.9    486.2   0.004061986   0.06502  -0.25498  -0.00000  -0.00001
   2   20863.6    479.3   0.033102027   0.52232  -0.72272   0.00005  -0.00001
   3   24996.2    400.1   0.000109273   0.00144   0.00005  -0.00710   0.03727
   4   26088.6    383.3   0.147087371   1.85610  -0.00001  -1.36204  -0.03065
   5   31673.6    315.7   0.000466186   0.00485   0.06961   0.00004  -0.00007
   6   28927.7    345.7   0.000833887   0.00949   0.00001  -0.03326   0.09157
   7   31130.6    321.2   0.142049147   1.50220   0.00003   1.22564   0.00385
   8   36414.6    274.6   0.162404157   1.46824   1.21171   0.00015  -0.00017
   9   39375.1    254.0   0.031984112   0.26742  -0.00013   0.01500  -0.51691
  10   39342.0    254.2   0.049014476   0.41015  -0.00024  -0.00889  -0.64037
  11   36085.3    277.1   0.002045769   0.01866  -0.13662   0.00005  -0.00002
  12   42116.8    237.4   0.982778067   7.68203   2.77165  -0.00016  -0.00002
  13   41158.4    243.0   0.009439811   0.07551   0.00009   0.02016   0.27404
  14   43691.1    228.9   0.027192265   0.20489   0.45265  -0.00049   0.00002
  15   40054.5    249.7   1.110390990   9.12641  -0.00015  -3.02099  -0.00741
  16   43540.0    229.7   0.001658816   0.01254   0.11199  -0.00000  -0.00000
  17   41868.4    238.8   0.010241909   0.08053  -0.00001   0.08453  -0.27090
  18   44263.3    225.9   0.001027950   0.00765  -0.00011  -0.00712   0.08715
  19   46498.6    215.1   0.986471483   6.98426   2.64277  -0.00003  -0.00003
  20   46304.9    216.0   0.000396991   0.00282  -0.05313   0.00003   0.00006
  21   44232.8    226.1   0.017090904   0.12720  -0.00007  -0.22572  -0.27614
  22   44430.9    225.1   0.011242547   0.08330   0.00004  -0.23313   0.17015
  23   44090.6    226.8   0.003664838   0.02736   0.00007   0.14518   0.07930
  24   44938.7    222.5   0.000840332   0.00616   0.00014  -0.05223  -0.05855
  25   44441.5    225.0   0.041381100   0.30654  -0.00023  -0.54379  -0.10410
  26   44585.5    224.3   0.000004590   0.00003   0.00014   0.00314   0.00490
  27   50205.0    199.2   1.620649221  10.62718  -3.25994   0.00001  -0.00006
  28   47799.4    209.2   0.175244516   1.20697  -0.00030  -0.15810   1.08719
  29   48320.9    206.9   0.011063816   0.07538  -0.27455  -0.00037  -0.00044
  30   50256.7    199.0   0.107094781   0.70154   0.00008  -0.48779  -0.68088

Dispersion correction           -0.058507107
FINAL SINGLE POINT ENERGY     -1217.211938038689

DIPOLE MOMENT
-------------
                                X             Y             Z
Electronic contribution:     -0.02081       0.00000       0.00038
Nuclear contribution   :     -0.01216       0.00002      -0.00044
                        -----------------------------------------
Total Dipole Moment    :     -0.03298       0.00002      -0.00006
                        -----------------------------------------
Magnitude (a.u.)       :      0.03298
Magnitude (Debye)      :      0.08382

Rotational constants in cm-1:     0.013166     0.002691     0.002341
Rotational constants in MHz :   394.716059    80.676940    70.178145

                             ****ORCA TERMINATED NORMALLY****
TOTAL RUN TIME: 0 days 1 hours 20 minutes 58 seconds 156 msec
