                         Program Version 5.0.2 -  RELEASE  -
|  1> %maxcore 3200
|  2> %pal
|  3>  nprocs= 8
|  4> end
|  5> ! RI-wB2PLYP def2-TZVP def2/J def2-TZVP/C RIJCOSX CPCM TightSCF
|  6> %TDDFT DCORR 1
|  7>    NROOTS   30
|  8>
|  9>    TDA      FALSE
| 10> END
| 11>
| 12> %CPCM
| 13>    SMD          TRUE
| 14>    SMDsolvent   "N,N-DIMETHYLFORMAMIDE"
| 15> END
| 16>
| 17>
| 18> * xyz 0 1
| 19> C                  -0.69204800   -3.64386400   -0.00787400
| 20> C                  -1.38063400   -2.43381100    0.01449500
| 21> C                  -0.70412400   -1.22065400    0.00031700
| 22> C                   0.70453700   -1.22132400   -0.01151200
| 23> C                   1.37757400   -2.43577000   -0.05047100
| 24> C                   0.68626500   -3.64462700   -0.04839400
| 25> C                   0.70452700    1.22133800    0.01141000
| 26> C                  -0.70413500    1.22065200   -0.00038400
| 27> C                  -1.38065800    2.43380100   -0.01460900
| 28> H                  -2.46172000    2.43500700   -0.04119000
| 29> C                  -0.69208600    3.64386400    0.00768500
| 30> C                   0.68622800    3.64464400    0.04816700
| 31> C                   1.37755000    2.43579500    0.05028500
| 32> H                  -2.46169400   -2.43503000    0.04110900
| 33> H                   2.45827400   -2.44078500   -0.08404200
| 34> H                   1.24095300   -4.57320800   -0.07768800
| 35> H                  -1.24837500    4.57189400   -0.00273000
| 36> H                   1.24090700    4.57323200    0.07740300
| 37> N                  -1.38783400   -0.00000400    0.00001600
| 38> C                   2.81359400    0.00001000    0.00001200
| 39> C                   3.50492200    0.26808100   -1.17600900
| 40> C                   3.50487000   -0.26806900    1.17606000
| 41> C                   4.88571300    0.27165100   -1.18089900
| 42> C                   4.88566100   -0.27164800    1.18100900
| 43> C                   5.58200100   -0.00000100    0.00007000
| 44> H                   5.43094000    0.47772700   -2.09179700
| 45> H                   5.43084800   -0.47772900    2.09193100
| 46> H                   2.95295300    0.47632700   -2.08345700
| 47> H                   2.95286100   -0.47631300    2.08348400
| 48> H                  -1.24832600   -4.57190200    0.00251200
| 49> N                   1.38978900    0.00001000   -0.00001500
| 50> C                  -2.81267800   -0.00000700    0.00003000
| 51> C                  -3.50271800   -0.16014900   -1.19561600
| 52> C                  -3.50269000    0.16013500    1.19569200
| 53> C                  -4.88377600   -0.16242500   -1.20102800
| 54> H                  -2.94982500   -0.28486500   -2.11773400
| 55> C                  -4.88374800    0.16241100    1.20113700
| 56> H                  -2.94977500    0.28485300    2.11779700
| 57> C                  -5.57941300   -0.00000800    0.00006200
| 58> H                  -5.42939900   -0.28554300   -2.12654800
| 59> H                  -5.42934900    0.28552900    2.12666900
| 60> H                   2.45825100    2.44082500    0.08382800
| 61> C                   7.00167700   -0.00000500    0.00010100
| 62> C                  -6.99939900   -0.00000900    0.00008000
| 63> N                   8.15878000   -0.00000800    0.00012600
| 64> N                  -8.15639400   -0.00000900    0.00009400
| 65> *
| 66>
| 67>
| 68>                          ****END OF INPUT****

CARTESIAN COORDINATES (ANGSTROEM)
---------------------------------
  C     -0.692048   -3.643864   -0.007874
  C     -1.380634   -2.433811    0.014495
  C     -0.704124   -1.220654    0.000317
  C      0.704537   -1.221324   -0.011512
  C      1.377574   -2.435770   -0.050471
  C      0.686265   -3.644627   -0.048394
  C      0.704527    1.221338    0.011410
  C     -0.704135    1.220652   -0.000384
  C     -1.380658    2.433801   -0.014609
  H     -2.461720    2.435007   -0.041190
  C     -0.692086    3.643864    0.007685
  C      0.686228    3.644644    0.048167
  C      1.377550    2.435795    0.050285
  H     -2.461694   -2.435030    0.041109
  H      2.458274   -2.440785   -0.084042
  H      1.240953   -4.573208   -0.077688
  H     -1.248375    4.571894   -0.002730
  H      1.240907    4.573232    0.077403
  N     -1.387834   -0.000004    0.000016
  C      2.813594    0.000010    0.000012
  C      3.504922    0.268081   -1.176009
  C      3.504870   -0.268069    1.176060
  C      4.885713    0.271651   -1.180899
  C      4.885661   -0.271648    1.181009
  C      5.582001   -0.000001    0.000070
  H      5.430940    0.477727   -2.091797
  H      5.430848   -0.477729    2.091931
  H      2.952953    0.476327   -2.083457
  H      2.952861   -0.476313    2.083484
  H     -1.248326   -4.571902    0.002512
  N      1.389789    0.000010   -0.000015
  C     -2.812678   -0.000007    0.000030
  C     -3.502718   -0.160149   -1.195616
  C     -3.502690    0.160135    1.195692
  C     -4.883776   -0.162425   -1.201028
  H     -2.949825   -0.284865   -2.117734
  C     -4.883748    0.162411    1.201137
  H     -2.949775    0.284853    2.117797
  C     -5.579413   -0.000008    0.000062
  H     -5.429399   -0.285543   -2.126548
  H     -5.429349    0.285529    2.126669
  H      2.458251    2.440825    0.083828
  C      7.001677   -0.000005    0.000101
  C     -6.999399   -0.000009    0.000080
  N      8.158780   -0.000008    0.000126
  N     -8.156394   -0.000009    0.000094

 Total Charge           Charge          ....    0
 Multiplicity           Mult            ....    1
 Number of Electrons    NEL             ....  200
 Basis Dimension        Dim             .... 1026

ORBITAL ENERGIES
----------------

  NO   OCC          E(Eh)            E(eV)
   0   2.0000     -14.945913      -406.6990
   1   2.0000     -14.945435      -406.6859
   2   2.0000     -14.925553      -406.1450
   3   2.0000     -14.925331      -406.1389
   4   2.0000     -10.747318      -292.4494
   5   2.0000     -10.747161      -292.4451
   6   2.0000     -10.747017      -292.4412
   7   2.0000     -10.746742      -292.4337
   8   2.0000     -10.742776      -292.3258
   9   2.0000     -10.742746      -292.3250
  10   2.0000     -10.741986      -292.3043
  11   2.0000     -10.741980      -292.3041
  12   2.0000     -10.737685      -292.1873
  13   2.0000     -10.737204      -292.1742
  14   2.0000     -10.714711      -291.5621
  15   2.0000     -10.714681      -291.5613
  16   2.0000     -10.714504      -291.5565
  17   2.0000     -10.714474      -291.5557
  18   2.0000     -10.702499      -291.2298
  19   2.0000     -10.702482      -291.2293
  20   2.0000     -10.702278      -291.2238
  21   2.0000     -10.702259      -291.2233
  22   2.0000     -10.685009      -290.7539
  23   2.0000     -10.685007      -290.7538
  24   2.0000     -10.684937      -290.7519
  25   2.0000     -10.684936      -290.7519
  26   2.0000     -10.681390      -290.6554
  27   2.0000     -10.681390      -290.6554
  28   2.0000     -10.680456      -290.6300
  29   2.0000     -10.680456      -290.6300
  30   2.0000      -1.222702       -33.2714
  31   2.0000      -1.179018       -32.0827
  32   2.0000      -1.136882       -30.9361
  33   2.0000      -1.136448       -30.9243
  34   2.0000      -1.092131       -29.7184
  35   2.0000      -1.083052       -29.4714
  36   2.0000      -1.077864       -29.3302
  37   2.0000      -1.043118       -28.3847
  38   2.0000      -0.991118       -26.9697
  39   2.0000      -0.973128       -26.4802
  40   2.0000      -0.966089       -26.2886
  41   2.0000      -0.965267       -26.2662
  42   2.0000      -0.959422       -26.1072
  43   2.0000      -0.954708       -25.9789
  44   2.0000      -0.922260       -25.0960
  45   2.0000      -0.900911       -24.5150
  46   2.0000      -0.843442       -22.9512
  47   2.0000      -0.827435       -22.5156
  48   2.0000      -0.815644       -22.1948
  49   2.0000      -0.804321       -21.8867
  50   2.0000      -0.803130       -21.8543
  51   2.0000      -0.771716       -20.9995
  52   2.0000      -0.770151       -20.9569
  53   2.0000      -0.725898       -19.7527
  54   2.0000      -0.722772       -19.6676
  55   2.0000      -0.720655       -19.6100
  56   2.0000      -0.720509       -19.6061
  57   2.0000      -0.688905       -18.7461
  58   2.0000      -0.679115       -18.4797
  59   2.0000      -0.649645       -17.6777
  60   2.0000      -0.642500       -17.4833
  61   2.0000      -0.637701       -17.3527
  62   2.0000      -0.614680       -16.7263
  63   2.0000      -0.612087       -16.6557
  64   2.0000      -0.603287       -16.4163
  65   2.0000      -0.595330       -16.1998
  66   2.0000      -0.585194       -15.9239
  67   2.0000      -0.582931       -15.8624
  68   2.0000      -0.580806       -15.8045
  69   2.0000      -0.578794       -15.7498
  70   2.0000      -0.574098       -15.6220
  71   2.0000      -0.571692       -15.5565
  72   2.0000      -0.570238       -15.5170
  73   2.0000      -0.551896       -15.0179
  74   2.0000      -0.547171       -14.8893
  75   2.0000      -0.545531       -14.8447
  76   2.0000      -0.540749       -14.7145
  77   2.0000      -0.524945       -14.2845
  78   2.0000      -0.524712       -14.2781
  79   2.0000      -0.515559       -14.0291
  80   2.0000      -0.512334       -13.9413
  81   2.0000      -0.507973       -13.8226
  82   2.0000      -0.502353       -13.6697
  83   2.0000      -0.492540       -13.4027
  84   2.0000      -0.484357       -13.1800
  85   2.0000      -0.477939       -13.0054
  86   2.0000      -0.475462       -12.9380
  87   2.0000      -0.471964       -12.8428
  88   2.0000      -0.469478       -12.7751
  89   2.0000      -0.468964       -12.7612
  90   2.0000      -0.465003       -12.6534
  91   2.0000      -0.444822       -12.1042
  92   2.0000      -0.377016       -10.2591
  93   2.0000      -0.371339       -10.1046
  94   2.0000      -0.363729        -9.8976
  95   2.0000      -0.363029        -9.8785
  96   2.0000      -0.358684        -9.7603
  97   2.0000      -0.355014        -9.6604
  98   2.0000      -0.320035        -8.7086
  99   2.0000      -0.252164        -6.8617
 100   0.0000       0.032921         0.8958
 101   0.0000       0.034350         0.9347
 102   0.0000       0.060435         1.6445
 103   0.0000       0.061917         1.6848
 104   0.0000       0.085235         2.3194

MULLIKEN ATOMIC CHARGES
-----------------------
   0 C :   -0.218653
   1 C :   -0.234213
   2 C :    0.104677
   3 C :    0.093502
   4 C :   -0.238749
   5 C :   -0.216005
   6 C :    0.094269
   7 C :    0.104085
   8 C :   -0.233814
   9 H :    0.192241
  10 C :   -0.219436
  11 C :   -0.215817
  12 C :   -0.238941
  13 H :    0.192125
  14 H :    0.192191
  15 H :    0.175878
  16 H :    0.175955
  17 H :    0.175870
  18 N :   -0.028807
  19 C :    0.052123
  20 C :   -0.227805
  21 C :   -0.227852
  22 C :   -0.165640
  23 C :   -0.165625
  24 C :    0.266794
  25 H :    0.201541
  26 H :    0.201484
  27 H :    0.192414
  28 H :    0.192337
  29 H :    0.175888
  30 N :   -0.032772
  31 C :    0.030801
  32 C :   -0.221444
  33 C :   -0.220782
  34 C :   -0.162618
  35 H :    0.190873
  36 C :   -0.163071
  37 H :    0.190849
  38 C :    0.262905
  39 H :    0.202075
  40 H :    0.202011
  41 H :    0.192073
  42 C :   -0.161335
  43 C :   -0.157995
  44 N :   -0.152185
  45 N :   -0.151402
Sum of atomic charges:   -0.0000000

LOEWDIN ATOMIC CHARGES
----------------------
   0 C :   -0.170387
   1 C :   -0.129974
   2 C :   -0.132189
   3 C :   -0.131551
   4 C :   -0.129652
   5 C :   -0.170759
   6 C :   -0.131550
   7 C :   -0.132187
   8 C :   -0.129975
   9 H :    0.164233
  10 C :   -0.170389
  11 C :   -0.170759
  12 C :   -0.129652
  13 H :    0.164234
  14 H :    0.164218
  15 H :    0.153936
  16 H :    0.153965
  17 H :    0.153937
  18 N :    0.273154
  19 C :   -0.153741
  20 C :   -0.084434
  21 C :   -0.084432
  22 C :   -0.061680
  23 C :   -0.061680
  24 C :   -0.149714
  25 H :    0.170571
  26 H :    0.170571
  27 H :    0.169936
  28 H :    0.169935
  29 H :    0.153965
  30 N :    0.273203
  31 C :   -0.154166
  32 C :   -0.083533
  33 C :   -0.083532
  34 C :   -0.061370
  35 H :    0.169946
  36 C :   -0.061371
  37 H :    0.169947
  38 C :   -0.149264
  39 H :    0.170657
  40 H :    0.170658
  41 H :    0.164218
  42 C :   -0.121627
  43 C :   -0.121342
  44 N :   -0.010482
  45 N :   -0.009893

  Mayer bond orders larger than 0.100000
B(  0-C ,  1-C ) :   1.3652 B(  0-C ,  5-C ) :   1.4512 B(  0-C , 29-H ) :   0.9798
B(  1-C ,  2-C ) :   1.4084 B(  1-C , 13-H ) :   0.9573 B(  2-C ,  3-C ) :   1.3512
B(  2-C , 18-N ) :   1.0727 B(  3-C ,  4-C ) :   1.4134 B(  3-C , 30-N ) :   1.0717
B(  4-C ,  5-C ) :   1.3645 B(  4-C , 14-H ) :   0.9574 B(  5-C , 15-H ) :   0.9799
B(  6-C ,  7-C ) :   1.3510 B(  6-C , 12-C ) :   1.4135 B(  6-C , 30-N ) :   1.0719
B(  7-C ,  8-C ) :   1.4090 B(  7-C , 18-N ) :   1.0728 B(  8-C ,  9-H ) :   0.9573
B(  8-C , 10-C ) :   1.3652 B( 10-C , 11-C ) :   1.4508 B( 10-C , 16-H ) :   0.9798
B( 11-C , 12-C ) :   1.3643 B( 11-C , 17-H ) :   0.9800 B( 12-C , 41-H ) :   0.9573
B( 18-N , 31-C ) :   0.7324 B( 19-C , 20-C ) :   1.4433 B( 19-C , 21-C ) :   1.4430
B( 19-C , 30-N ) :   0.7610 B( 20-C , 22-C ) :   1.4369 B( 20-C , 27-H ) :   0.9773
B( 21-C , 23-C ) :   1.4367 B( 21-C , 28-H ) :   0.9774 B( 22-C , 24-C ) :   1.3215
B( 22-C , 25-H ) :   0.9657 B( 23-C , 24-C ) :   1.3215 B( 23-C , 26-H ) :   0.9658
B( 24-C , 42-C ) :   0.9283 B( 31-C , 32-C ) :   1.4602 B( 31-C , 33-C ) :   1.4597
B( 32-C , 34-C ) :   1.4321 B( 32-C , 35-H ) :   0.9784 B( 33-C , 36-C ) :   1.4317
B( 33-C , 37-H ) :   0.9786 B( 34-C , 38-C ) :   1.3206 B( 34-C , 39-H ) :   0.9648
B( 36-C , 38-C ) :   1.3210 B( 36-C , 40-H ) :   0.9651 B( 38-C , 43-C ) :   0.9348
B( 42-C , 44-N ) :   3.0822 B( 43-C , 45-N ) :   3.0785

MP2 TOTAL ENERGY:    -1217.438238625 Eh

-----------------------------------------------------------------------------
         ABSORPTION SPECTRUM VIA TRANSITION ELECTRIC DIPOLE MOMENTS
-----------------------------------------------------------------------------
State   Energy    Wavelength  fosc         T2        TX        TY        TZ
        (cm-1)      (nm)                 (au**2)    (au)      (au)      (au)
-----------------------------------------------------------------------------
   1   28703.1    348.4   0.000068231   0.00078  -0.00003  -0.00125   0.02795
   2   28858.8    346.5   0.012633814   0.14412  -0.37963   0.00004  -0.00002
   3   29370.9    340.5   0.058640950   0.65729   0.81074  -0.00038   0.00001
   4   31559.4    316.9   0.267105239   2.78631   0.00020   1.66894   0.03067
   5   35083.4    285.0   0.003590705   0.03369   0.18356  -0.00001  -0.00003
   6   38641.7    258.8   0.012651140   0.10778  -0.00001   0.13333   0.30001
   7   40229.5    248.6   0.013681913   0.11196   0.00012   0.27186  -0.19508
   8   40306.5    248.1   0.089304665   0.72941  -0.00008   0.08521   0.84980
   9   45040.9    222.0   0.974644479   7.12386   2.66906   0.00009  -0.00001
  10   39820.8    251.1   0.030972379   0.25606  -0.00044   0.47275  -0.18046
  11   45738.3    218.6   0.003228485   0.02324  -0.15244  -0.00003  -0.00004
  12   44239.3    226.0   0.003235025   0.02407   0.00000   0.01266   0.15464
  13   47002.0    212.8   0.005256098   0.03681  -0.19187  -0.00021  -0.00000
  14   44394.6    225.3   1.402467063  10.40012   0.00007  -3.22492  -0.00636
  15   48356.0    206.8   0.004263801   0.02903   0.00028  -0.03199   0.16735
  16   48270.7    207.2   1.638923376  11.17766   3.34330   0.00004  -0.00002
  17   49745.8    201.0   0.046187188   0.30566   0.55287   0.00003   0.00003
  18   48876.3    204.6   0.754190053   5.07994  -2.25387   0.00002   0.00003
  19   48899.7    204.5   0.382231349   2.57333   1.60416  -0.00004  -0.00001
  20   52897.7    189.0   0.077392997   0.48166  -0.00012  -0.34751  -0.60075
  21   53071.2    188.4   0.808308843   5.01411   0.00014  -0.18654   2.23144
  22   52665.8    189.9   0.150947440   0.94357   0.97137   0.00001  -0.00030
  23   51802.5    193.0   0.000549105   0.00349   0.00006   0.00829  -0.05849
  24   53966.7    185.3   0.000085171   0.00052  -0.02279  -0.00001  -0.00001
  25   56853.0    175.9   0.000270605   0.00157   0.03958  -0.00001   0.00008
  26   57011.8    175.4   0.000085533   0.00049  -0.02222  -0.00000   0.00001
  27   54425.1    183.7   0.001181022   0.00714   0.00007   0.08452  -0.00005
  28   59608.0    167.8   0.000398720   0.00220  -0.04693   0.00000   0.00002
  29   59757.6    167.3   0.000172887   0.00095   0.03086  -0.00000  -0.00002
  30   56393.5    177.3   0.001110665   0.00648   0.08052   0.00004  -0.00000

FINAL SINGLE POINT ENERGY     -1215.892009116263

DIPOLE MOMENT
-------------
                                X             Y             Z
Electronic contribution:     -0.01630       0.00001       0.00038
Nuclear contribution   :     -0.01216       0.00002      -0.00044
                        -----------------------------------------
Total Dipole Moment    :     -0.02846       0.00003      -0.00006
                        -----------------------------------------
Magnitude (a.u.)       :      0.02846
Magnitude (Debye)      :      0.07235

Rotational constants in cm-1:     0.013166     0.002691     0.002341
Rotational constants in MHz :   394.716059    80.676940    70.178145

                             ****ORCA TERMINATED NORMALLY****
TOTAL RUN TIME: 0 days 1 hours 33 minutes 25 seconds 272 msec
