                         Program Version 5.0.2 -  RELEASE  -
|  1> %maxcore 20000
|  2> %pal
|  3>  nprocs= 4
|  4> end
|  5> ! RI-wPBEPP86   def2-TZVP def2/J def2-TZVP/C RIJCOSX CPCM TightSCF
|  6> %TDDFT
|  7>    NROOTS   30
|  8>    dcorr 1
|  9>    TDA      FALSE
| 10> END
| 11>
| 12> %CPCM
| 13>    SMD          TRUE
| 14>    SMDsolvent   "N,N-DIMETHYLFORMAMIDE"
| 15> END
| 16>
| 17>
| 18> * xyz 0 1
| 19> C                  -0.69204800   -3.64386400   -0.00787400
| 20> C                  -1.38063400   -2.43381100    0.01449500
| 21> C                  -0.70412400   -1.22065400    0.00031700
| 22> C                   0.70453700   -1.22132400   -0.01151200
| 23> C                   1.37757400   -2.43577000   -0.05047100
| 24> C                   0.68626500   -3.64462700   -0.04839400
| 25> C                   0.70452700    1.22133800    0.01141000
| 26> C                  -0.70413500    1.22065200   -0.00038400
| 27> C                  -1.38065800    2.43380100   -0.01460900
| 28> H                  -2.46172000    2.43500700   -0.04119000
| 29> C                  -0.69208600    3.64386400    0.00768500
| 30> C                   0.68622800    3.64464400    0.04816700
| 31> C                   1.37755000    2.43579500    0.05028500
| 32> H                  -2.46169400   -2.43503000    0.04110900
| 33> H                   2.45827400   -2.44078500   -0.08404200
| 34> H                   1.24095300   -4.57320800   -0.07768800
| 35> H                  -1.24837500    4.57189400   -0.00273000
| 36> H                   1.24090700    4.57323200    0.07740300
| 37> N                  -1.38783400   -0.00000400    0.00001600
| 38> C                   2.81359400    0.00001000    0.00001200
| 39> C                   3.50492200    0.26808100   -1.17600900
| 40> C                   3.50487000   -0.26806900    1.17606000
| 41> C                   4.88571300    0.27165100   -1.18089900
| 42> C                   4.88566100   -0.27164800    1.18100900
| 43> C                   5.58200100   -0.00000100    0.00007000
| 44> H                   5.43094000    0.47772700   -2.09179700
| 45> H                   5.43084800   -0.47772900    2.09193100
| 46> H                   2.95295300    0.47632700   -2.08345700
| 47> H                   2.95286100   -0.47631300    2.08348400
| 48> H                  -1.24832600   -4.57190200    0.00251200
| 49> N                   1.38978900    0.00001000   -0.00001500
| 50> C                  -2.81267800   -0.00000700    0.00003000
| 51> C                  -3.50271800   -0.16014900   -1.19561600
| 52> C                  -3.50269000    0.16013500    1.19569200
| 53> C                  -4.88377600   -0.16242500   -1.20102800
| 54> H                  -2.94982500   -0.28486500   -2.11773400
| 55> C                  -4.88374800    0.16241100    1.20113700
| 56> H                  -2.94977500    0.28485300    2.11779700
| 57> C                  -5.57941300   -0.00000800    0.00006200
| 58> H                  -5.42939900   -0.28554300   -2.12654800
| 59> H                  -5.42934900    0.28552900    2.12666900
| 60> H                   2.45825100    2.44082500    0.08382800
| 61> C                   7.00167700   -0.00000500    0.00010100
| 62> C                  -6.99939900   -0.00000900    0.00008000
| 63> N                   8.15878000   -0.00000800    0.00012600
| 64> N                  -8.15639400   -0.00000900    0.00009400
| 65> *
| 66>
| 67>
| 68>                          ****END OF INPUT****

CARTESIAN COORDINATES (ANGSTROEM)
---------------------------------
  C     -0.692048   -3.643864   -0.007874
  C     -1.380634   -2.433811    0.014495
  C     -0.704124   -1.220654    0.000317
  C      0.704537   -1.221324   -0.011512
  C      1.377574   -2.435770   -0.050471
  C      0.686265   -3.644627   -0.048394
  C      0.704527    1.221338    0.011410
  C     -0.704135    1.220652   -0.000384
  C     -1.380658    2.433801   -0.014609
  H     -2.461720    2.435007   -0.041190
  C     -0.692086    3.643864    0.007685
  C      0.686228    3.644644    0.048167
  C      1.377550    2.435795    0.050285
  H     -2.461694   -2.435030    0.041109
  H      2.458274   -2.440785   -0.084042
  H      1.240953   -4.573208   -0.077688
  H     -1.248375    4.571894   -0.002730
  H      1.240907    4.573232    0.077403
  N     -1.387834   -0.000004    0.000016
  C      2.813594    0.000010    0.000012
  C      3.504922    0.268081   -1.176009
  C      3.504870   -0.268069    1.176060
  C      4.885713    0.271651   -1.180899
  C      4.885661   -0.271648    1.181009
  C      5.582001   -0.000001    0.000070
  H      5.430940    0.477727   -2.091797
  H      5.430848   -0.477729    2.091931
  H      2.952953    0.476327   -2.083457
  H      2.952861   -0.476313    2.083484
  H     -1.248326   -4.571902    0.002512
  N      1.389789    0.000010   -0.000015
  C     -2.812678   -0.000007    0.000030
  C     -3.502718   -0.160149   -1.195616
  C     -3.502690    0.160135    1.195692
  C     -4.883776   -0.162425   -1.201028
  H     -2.949825   -0.284865   -2.117734
  C     -4.883748    0.162411    1.201137
  H     -2.949775    0.284853    2.117797
  C     -5.579413   -0.000008    0.000062
  H     -5.429399   -0.285543   -2.126548
  H     -5.429349    0.285529    2.126669
  H      2.458251    2.440825    0.083828
  C      7.001677   -0.000005    0.000101
  C     -6.999399   -0.000009    0.000080
  N      8.158780   -0.000008    0.000126
  N     -8.156394   -0.000009    0.000094

 Total Charge           Charge          ....    0
 Multiplicity           Mult            ....    1
 Number of Electrons    NEL             ....  200
 Basis Dimension        Dim             .... 1026

ORBITAL ENERGIES
----------------

  NO   OCC          E(Eh)            E(eV)
   0   2.0000     -15.170964      -412.8229
   1   2.0000     -15.170462      -412.8093
   2   2.0000     -15.147474      -412.1837
   3   2.0000     -15.147255      -412.1778
   4   2.0000     -10.928642      -297.3835
   5   2.0000     -10.928357      -297.3757
   6   2.0000     -10.926452      -297.3239
   7   2.0000     -10.926300      -297.3198
   8   2.0000     -10.924219      -297.2631
   9   2.0000     -10.924195      -297.2625
  10   2.0000     -10.923308      -297.2383
  11   2.0000     -10.923301      -297.2381
  12   2.0000     -10.918083      -297.0961
  13   2.0000     -10.917611      -297.0833
  14   2.0000     -10.895169      -296.4726
  15   2.0000     -10.895136      -296.4717
  16   2.0000     -10.894976      -296.4674
  17   2.0000     -10.894942      -296.4665
  18   2.0000     -10.882612      -296.1309
  19   2.0000     -10.882592      -296.1304
  20   2.0000     -10.882405      -296.1253
  21   2.0000     -10.882384      -296.1247
  22   2.0000     -10.865585      -295.6676
  23   2.0000     -10.865585      -295.6676
  24   2.0000     -10.865512      -295.6656
  25   2.0000     -10.865512      -295.6656
  26   2.0000     -10.861660      -295.5608
  27   2.0000     -10.861660      -295.5608
  28   2.0000     -10.860595      -295.5318
  29   2.0000     -10.860595      -295.5318
  30   2.0000      -1.256709       -34.1968
  31   2.0000      -1.211813       -32.9751
  32   2.0000      -1.168005       -31.7830
  33   2.0000      -1.167603       -31.7721
  34   2.0000      -1.120024       -30.4774
  35   2.0000      -1.110738       -30.2247
  36   2.0000      -1.105633       -30.0858
  37   2.0000      -1.069756       -29.1095
  38   2.0000      -1.014875       -27.6161
  39   2.0000      -0.996726       -27.1223
  40   2.0000      -0.989445       -26.9242
  41   2.0000      -0.988625       -26.9019
  42   2.0000      -0.982842       -26.7445
  43   2.0000      -0.978355       -26.6224
  44   2.0000      -0.944996       -25.7146
  45   2.0000      -0.921903       -25.0863
  46   2.0000      -0.861389       -23.4396
  47   2.0000      -0.844954       -22.9924
  48   2.0000      -0.833009       -22.6673
  49   2.0000      -0.820653       -22.3311
  50   2.0000      -0.819501       -22.2997
  51   2.0000      -0.787780       -21.4366
  52   2.0000      -0.786456       -21.4006
  53   2.0000      -0.741032       -20.1645
  54   2.0000      -0.734594       -19.9893
  55   2.0000      -0.732587       -19.9347
  56   2.0000      -0.732467       -19.9314
  57   2.0000      -0.700774       -19.0690
  58   2.0000      -0.691644       -18.8206
  59   2.0000      -0.659774       -17.9534
  60   2.0000      -0.652608       -17.7584
  61   2.0000      -0.649558       -17.6754
  62   2.0000      -0.624480       -16.9930
  63   2.0000      -0.621566       -16.9137
  64   2.0000      -0.613091       -16.6831
  65   2.0000      -0.604719       -16.4552
  66   2.0000      -0.592765       -16.1299
  67   2.0000      -0.592546       -16.1240
  68   2.0000      -0.588483       -16.0134
  69   2.0000      -0.586730       -15.9657
  70   2.0000      -0.583090       -15.8667
  71   2.0000      -0.579287       -15.7632
  72   2.0000      -0.579079       -15.7575
  73   2.0000      -0.562616       -15.3095
  74   2.0000      -0.555705       -15.1215
  75   2.0000      -0.550776       -14.9874
  76   2.0000      -0.544938       -14.8285
  77   2.0000      -0.533178       -14.5085
  78   2.0000      -0.533015       -14.5041
  79   2.0000      -0.522974       -14.2308
  80   2.0000      -0.516596       -14.0573
  81   2.0000      -0.515083       -14.0161
  82   2.0000      -0.508256       -13.8303
  83   2.0000      -0.497833       -13.5467
  84   2.0000      -0.490675       -13.3519
  85   2.0000      -0.482571       -13.1314
  86   2.0000      -0.481014       -13.0891
  87   2.0000      -0.477012       -12.9802
  88   2.0000      -0.476161       -12.9570
  89   2.0000      -0.473103       -12.8738
  90   2.0000      -0.470493       -12.8028
  91   2.0000      -0.448912       -12.2155
  92   2.0000      -0.379321       -10.3218
  93   2.0000      -0.373510       -10.1637
  94   2.0000      -0.366815        -9.9815
  95   2.0000      -0.366153        -9.9635
  96   2.0000      -0.361138        -9.8271
  97   2.0000      -0.357601        -9.7308
  98   2.0000      -0.323200        -8.7947
  99   2.0000      -0.255844        -6.9619
 100   0.0000       0.026220         0.7135
 101   0.0000       0.027721         0.7543
 102   0.0000       0.053734         1.4622
 103   0.0000       0.055527         1.5110
 104   0.0000       0.079184         2.1547

MULLIKEN ATOMIC CHARGES
-----------------------
   0 C :   -0.223323
   1 C :   -0.256728
   2 C :    0.106029
   3 C :    0.092676
   4 C :   -0.262192
   5 C :   -0.219294
   6 C :    0.093534
   7 C :    0.105298
   8 C :   -0.256227
   9 H :    0.200455
  10 C :   -0.224218
  11 C :   -0.219047
  12 C :   -0.262407
  13 H :    0.200325
  14 H :    0.200193
  15 H :    0.183266
  16 H :    0.183215
  17 H :    0.183257
  18 N :    0.012172
  19 C :    0.048184
  20 C :   -0.248405
  21 C :   -0.248439
  22 C :   -0.171315
  23 C :   -0.171326
  24 C :    0.318456
  25 H :    0.205954
  26 H :    0.205867
  27 H :    0.198587
  28 H :    0.198514
  29 H :    0.183163
  30 N :    0.008114
  31 C :    0.027725
  32 C :   -0.242455
  33 C :   -0.241776
  34 C :   -0.169260
  35 H :    0.197088
  36 C :   -0.169714
  37 H :    0.197059
  38 C :    0.316114
  39 H :    0.206395
  40 H :    0.206323
  41 H :    0.200066
  42 C :   -0.117549
  43 C :   -0.114386
  44 N :   -0.230363
  45 N :   -0.229602
Sum of atomic charges:   -0.0000000

LOEWDIN ATOMIC CHARGES
----------------------
   0 C :   -0.171027
   1 C :   -0.130709
   2 C :   -0.134088
   3 C :   -0.133439
   4 C :   -0.130383
   5 C :   -0.171400
   6 C :   -0.133439
   7 C :   -0.134087
   8 C :   -0.130710
   9 H :    0.166013
  10 C :   -0.171029
  11 C :   -0.171400
  12 C :   -0.130382
  13 H :    0.166013
  14 H :    0.165982
  15 H :    0.156248
  16 H :    0.156274
  17 H :    0.156249
  18 N :    0.270858
  19 C :   -0.157181
  20 C :   -0.085489
  21 C :   -0.085487
  22 C :   -0.060849
  23 C :   -0.060849
  24 C :   -0.153396
  25 H :    0.172609
  26 H :    0.172609
  27 H :    0.172188
  28 H :    0.172188
  29 H :    0.156274
  30 N :    0.270917
  31 C :   -0.157633
  32 C :   -0.084586
  33 C :   -0.084585
  34 C :   -0.060526
  35 H :    0.172209
  36 C :   -0.060526
  37 H :    0.172209
  38 C :   -0.152918
  39 H :    0.172688
  40 H :    0.172688
  41 H :    0.165981
  42 C :   -0.117784
  43 C :   -0.117500
  44 N :   -0.014691
  45 N :   -0.014105

  Mayer bond orders larger than 0.100000
B(  0-C ,  1-C ) :   1.3596 B(  0-C ,  5-C ) :   1.4406 B(  0-C , 29-H ) :   0.9806
B(  1-C ,  2-C ) :   1.4226 B(  1-C , 13-H ) :   0.9562 B(  2-C ,  3-C ) :   1.3846
B(  2-C , 18-N ) :   1.0792 B(  3-C ,  4-C ) :   1.4287 B(  3-C , 30-N ) :   1.0788
B(  4-C ,  5-C ) :   1.3591 B(  4-C , 14-H ) :   0.9563 B(  5-C , 15-H ) :   0.9806
B(  6-C ,  7-C ) :   1.3844 B(  6-C , 12-C ) :   1.4288 B(  6-C , 30-N ) :   1.0790
B(  7-C ,  8-C ) :   1.4231 B(  7-C , 18-N ) :   1.0793 B(  8-C ,  9-H ) :   0.9561
B(  8-C , 10-C ) :   1.3595 B( 10-C , 11-C ) :   1.4402 B( 10-C , 16-H ) :   0.9807
B( 11-C , 12-C ) :   1.3588 B( 11-C , 17-H ) :   0.9807 B( 12-C , 41-H ) :   0.9562
B( 18-N , 31-C ) :   0.7525 B( 19-C , 20-C ) :   1.4567 B( 19-C , 21-C ) :   1.4565
B( 19-C , 30-N ) :   0.7787 B( 20-C , 22-C ) :   1.4379 B( 20-C , 27-H ) :   0.9780
B( 21-C , 23-C ) :   1.4378 B( 21-C , 28-H ) :   0.9781 B( 22-C , 24-C ) :   1.3196
B( 22-C , 25-H ) :   0.9679 B( 23-C , 24-C ) :   1.3196 B( 23-C , 26-H ) :   0.9680
B( 24-C , 42-C ) :   0.9396 B( 31-C , 32-C ) :   1.4788 B( 31-C , 33-C ) :   1.4784
B( 32-C , 34-C ) :   1.4332 B( 32-C , 35-H ) :   0.9789 B( 33-C , 36-C ) :   1.4328
B( 33-C , 37-H ) :   0.9791 B( 34-C , 38-C ) :   1.3180 B( 34-C , 39-H ) :   0.9672
B( 36-C , 38-C ) :   1.3183 B( 36-C , 40-H ) :   0.9674 B( 38-C , 43-C ) :   0.9470
B( 42-C , 44-N ) :   2.9920 B( 43-C , 45-N ) :   2.9881

MP2 TOTAL ENERGY:    -1218.853804881 Eh

-----------------------------------------------------------------------------
         ABSORPTION SPECTRUM VIA TRANSITION ELECTRIC DIPOLE MOMENTS
-----------------------------------------------------------------------------
State   Energy    Wavelength  fosc         T2        TX        TY        TZ
        (cm-1)      (nm)                 (au**2)    (au)      (au)      (au)
-----------------------------------------------------------------------------
   1   27397.1    365.0   0.000065247   0.00078   0.00003   0.00196  -0.02793
   2   25331.8    394.8   0.010630958   0.13816  -0.37170   0.00003  -0.00002
   3   25615.1    390.4   0.050295762   0.64642   0.80400  -0.00026   0.00002
   4   29263.1    341.7   0.243633693   2.74090   0.00014   1.65528   0.03069
   5   33064.2    302.4   0.003049760   0.03037  -0.17426   0.00000   0.00003
   6   35481.1    281.8   0.009455975   0.08774  -0.00001   0.12909   0.26659
   7   38207.8    261.7   0.016152157   0.13917  -0.00015  -0.34149   0.15020
   8   38187.2    261.9   0.093248386   0.80389   0.00014  -0.11653  -0.88900
   9   45418.5    220.2   0.934315712   6.77231   2.60237   0.00005   0.00002
  10   36521.0    273.8   0.036083901   0.32527  -0.00027   0.52648  -0.21930
  11   46220.8    216.4   0.002205800   0.01571  -0.12534  -0.00011  -0.00001
  12   46929.7    213.1   0.003990896   0.02800  -0.16732  -0.00011  -0.00003
  13   44186.1    226.3   0.007727323   0.05757  -0.00001  -0.06410   0.23122
  14   42300.9    236.4   1.328930296  10.34256   0.00007  -3.21596  -0.01172
  15   46862.5    213.4   0.004696104   0.03299   0.00025  -0.03707   0.17781
  16   44190.3    226.3   1.138072402   8.47849  -2.91179  -0.00007   0.00002
  17   44658.6    223.9   0.005272110   0.03886  -0.19714  -0.00001  -0.00003
  18   47343.7    211.2   0.932575113   6.48481  -2.54653   0.00001   0.00000
  19   47228.4    211.7   0.678986184   4.73297   2.17554  -0.00006  -0.00003
  20   51810.3    193.0   0.066727730   0.42400   0.00019   0.33872   0.55612
  21   57341.0    174.4   0.003188687   0.01831   0.13530  -0.00001   0.00080
  22   57450.6    174.1   0.000579457   0.00332  -0.05762  -0.00001   0.00013
  23   51982.4    192.4   0.792146186   5.01677   0.00023  -0.17448   2.23301
  24   51316.9    194.9   0.149078493   0.95638   0.97795  -0.00000  -0.00069
  25   52696.2    189.8   0.000000117   0.00000   0.00086   0.00001   0.00000
  26   49919.4    200.3   0.001101886   0.00727   0.00001   0.01042  -0.08461
  27   60914.2    164.2   0.000376148   0.00203  -0.04509   0.00000   0.00002
  28   61112.4    163.6   0.000156574   0.00084   0.02904  -0.00001  -0.00002
  29   53198.1    188.0   0.000284886   0.00176  -0.00008  -0.04151   0.00633
  30   55953.8    178.7   0.010240093   0.06025  -0.24546  -0.00007   0.00002

FINAL SINGLE POINT ENERGY     -1216.252901696834

DIPOLE MOMENT
-------------
                                X             Y             Z
Electronic contribution:     -0.01660       0.00001       0.00038
Nuclear contribution   :     -0.01216       0.00002      -0.00044
                        -----------------------------------------
Total Dipole Moment    :     -0.02876       0.00003      -0.00006
                        -----------------------------------------
Magnitude (a.u.)       :      0.02876
Magnitude (Debye)      :      0.07311

Rotational constants in cm-1:     0.013166     0.002691     0.002341
Rotational constants in MHz :   394.716059    80.676940    70.178145

                             ****ORCA TERMINATED NORMALLY****
TOTAL RUN TIME: 1 days 5 hours 37 minutes 14 seconds 766 msec
