                         Program Version 5.0.2 -  RELEASE  -
|  1> %maxcore 24000
|  2> %pal
|  3>  nprocs= 8
|  4> end
|  5> ! RI-DSD-BLYP D3BJ def2-TZVP def2/J def2-TZVP/C RIJCOSX CPCM TightSCF
|  6> %TDDFT
|  7>    NROOTS   30
|  8>    dcorr 4
|  9>    doscs true
| 10>    scspar 0.333, 1.2, 0.43, 1.24
| 11>    TDA      FALSE
| 12> END
| 13>
| 14> %CPCM
| 15>    SMD          TRUE
| 16>    SMDsolvent   "N,N-DIMETHYLFORMAMIDE"
| 17> END
| 18>
| 19>
| 20> * xyz 0 1
| 21> C                  -0.69204800   -3.64386400   -0.00787400
| 22> C                  -1.38063400   -2.43381100    0.01449500
| 23> C                  -0.70412400   -1.22065400    0.00031700
| 24> C                   0.70453700   -1.22132400   -0.01151200
| 25> C                   1.37757400   -2.43577000   -0.05047100
| 26> C                   0.68626500   -3.64462700   -0.04839400
| 27> C                   0.70452700    1.22133800    0.01141000
| 28> C                  -0.70413500    1.22065200   -0.00038400
| 29> C                  -1.38065800    2.43380100   -0.01460900
| 30> H                  -2.46172000    2.43500700   -0.04119000
| 31> C                  -0.69208600    3.64386400    0.00768500
| 32> C                   0.68622800    3.64464400    0.04816700
| 33> C                   1.37755000    2.43579500    0.05028500
| 34> H                  -2.46169400   -2.43503000    0.04110900
| 35> H                   2.45827400   -2.44078500   -0.08404200
| 36> H                   1.24095300   -4.57320800   -0.07768800
| 37> H                  -1.24837500    4.57189400   -0.00273000
| 38> H                   1.24090700    4.57323200    0.07740300
| 39> N                  -1.38783400   -0.00000400    0.00001600
| 40> C                   2.81359400    0.00001000    0.00001200
| 41> C                   3.50492200    0.26808100   -1.17600900
| 42> C                   3.50487000   -0.26806900    1.17606000
| 43> C                   4.88571300    0.27165100   -1.18089900
| 44> C                   4.88566100   -0.27164800    1.18100900
| 45> C                   5.58200100   -0.00000100    0.00007000
| 46> H                   5.43094000    0.47772700   -2.09179700
| 47> H                   5.43084800   -0.47772900    2.09193100
| 48> H                   2.95295300    0.47632700   -2.08345700
| 49> H                   2.95286100   -0.47631300    2.08348400
| 50> H                  -1.24832600   -4.57190200    0.00251200
| 51> N                   1.38978900    0.00001000   -0.00001500
| 52> C                  -2.81267800   -0.00000700    0.00003000
| 53> C                  -3.50271800   -0.16014900   -1.19561600
| 54> C                  -3.50269000    0.16013500    1.19569200
| 55> C                  -4.88377600   -0.16242500   -1.20102800
| 56> H                  -2.94982500   -0.28486500   -2.11773400
| 57> C                  -4.88374800    0.16241100    1.20113700
| 58> H                  -2.94977500    0.28485300    2.11779700
| 59> C                  -5.57941300   -0.00000800    0.00006200
| 60> H                  -5.42939900   -0.28554300   -2.12654800
| 61> H                  -5.42934900    0.28552900    2.12666900
| 62> H                   2.45825100    2.44082500    0.08382800
| 63> C                   7.00167700   -0.00000500    0.00010100
| 64> C                  -6.99939900   -0.00000900    0.00008000
| 65> N                   8.15878000   -0.00000800    0.00012600
| 66> N                  -8.15639400   -0.00000900    0.00009400
| 67> *
| 68>
| 69>
| 70>                          ****END OF INPUT****

CARTESIAN COORDINATES (ANGSTROEM)
---------------------------------
  C     -0.692048   -3.643864   -0.007874
  C     -1.380634   -2.433811    0.014495
  C     -0.704124   -1.220654    0.000317
  C      0.704537   -1.221324   -0.011512
  C      1.377574   -2.435770   -0.050471
  C      0.686265   -3.644627   -0.048394
  C      0.704527    1.221338    0.011410
  C     -0.704135    1.220652   -0.000384
  C     -1.380658    2.433801   -0.014609
  H     -2.461720    2.435007   -0.041190
  C     -0.692086    3.643864    0.007685
  C      0.686228    3.644644    0.048167
  C      1.377550    2.435795    0.050285
  H     -2.461694   -2.435030    0.041109
  H      2.458274   -2.440785   -0.084042
  H      1.240953   -4.573208   -0.077688
  H     -1.248375    4.571894   -0.002730
  H      1.240907    4.573232    0.077403
  N     -1.387834   -0.000004    0.000016
  C      2.813594    0.000010    0.000012
  C      3.504922    0.268081   -1.176009
  C      3.504870   -0.268069    1.176060
  C      4.885713    0.271651   -1.180899
  C      4.885661   -0.271648    1.181009
  C      5.582001   -0.000001    0.000070
  H      5.430940    0.477727   -2.091797
  H      5.430848   -0.477729    2.091931
  H      2.952953    0.476327   -2.083457
  H      2.952861   -0.476313    2.083484
  H     -1.248326   -4.571902    0.002512
  N      1.389789    0.000010   -0.000015
  C     -2.812678   -0.000007    0.000030
  C     -3.502718   -0.160149   -1.195616
  C     -3.502690    0.160135    1.195692
  C     -4.883776   -0.162425   -1.201028
  H     -2.949825   -0.284865   -2.117734
  C     -4.883748    0.162411    1.201137
  H     -2.949775    0.284853    2.117797
  C     -5.579413   -0.000008    0.000062
  H     -5.429399   -0.285543   -2.126548
  H     -5.429349    0.285529    2.126669
  H      2.458251    2.440825    0.083828
  C      7.001677   -0.000005    0.000101
  C     -6.999399   -0.000009    0.000080
  N      8.158780   -0.000008    0.000126
  N     -8.156394   -0.000009    0.000094

 Total Charge           Charge          ....    0
 Multiplicity           Mult            ....    1
 Number of Electrons    NEL             ....  200
 Basis Dimension        Dim             .... 1026

ORBITAL ENERGIES
----------------

  NO   OCC          E(Eh)            E(eV)
   0   2.0000     -15.122037      -411.4916
   1   2.0000     -15.121536      -411.4779
   2   2.0000     -15.101676      -410.9375
   3   2.0000     -15.101438      -410.9310
   4   2.0000     -10.886810      -296.2452
   5   2.0000     -10.886541      -296.2378
   6   2.0000     -10.886327      -296.2320
   7   2.0000     -10.886160      -296.2275
   8   2.0000     -10.882157      -296.1186
   9   2.0000     -10.882133      -296.1179
  10   2.0000     -10.881251      -296.0939
  11   2.0000     -10.881243      -296.0937
  12   2.0000     -10.876784      -295.9723
  13   2.0000     -10.876289      -295.9589
  14   2.0000     -10.854629      -295.3695
  15   2.0000     -10.854595      -295.3686
  16   2.0000     -10.854413      -295.3636
  17   2.0000     -10.854379      -295.3627
  18   2.0000     -10.842108      -295.0288
  19   2.0000     -10.842088      -295.0282
  20   2.0000     -10.841872      -295.0223
  21   2.0000     -10.841851      -295.0218
  22   2.0000     -10.824456      -294.5484
  23   2.0000     -10.824455      -294.5484
  24   2.0000     -10.824388      -294.5466
  25   2.0000     -10.824388      -294.5466
  26   2.0000     -10.821164      -294.4588
  27   2.0000     -10.821164      -294.4588
  28   2.0000     -10.820109      -294.4301
  29   2.0000     -10.820109      -294.4301
  30   2.0000      -1.203552       -32.7503
  31   2.0000      -1.159436       -31.5498
  32   2.0000      -1.118322       -30.4311
  33   2.0000      -1.117938       -30.4206
  34   2.0000      -1.068804       -29.0836
  35   2.0000      -1.059753       -28.8373
  36   2.0000      -1.053812       -28.6757
  37   2.0000      -1.018637       -27.7185
  38   2.0000      -0.964803       -26.2536
  39   2.0000      -0.947356       -25.7789
  40   2.0000      -0.940176       -25.5835
  41   2.0000      -0.939523       -25.5657
  42   2.0000      -0.932971       -25.3874
  43   2.0000      -0.928627       -25.2692
  44   2.0000      -0.896073       -24.3834
  45   2.0000      -0.873021       -23.7561
  46   2.0000      -0.812912       -22.1204
  47   2.0000      -0.797470       -21.7003
  48   2.0000      -0.784673       -21.3520
  49   2.0000      -0.773695       -21.0533
  50   2.0000      -0.772465       -21.0198
  51   2.0000      -0.741286       -20.1714
  52   2.0000      -0.739893       -20.1335
  53   2.0000      -0.695267       -18.9192
  54   2.0000      -0.686565       -18.6824
  55   2.0000      -0.686420       -18.6784
  56   2.0000      -0.686157       -18.6713
  57   2.0000      -0.654478       -17.8093
  58   2.0000      -0.646000       -17.5786
  59   2.0000      -0.613669       -16.6988
  60   2.0000      -0.607189       -16.5225
  61   2.0000      -0.605326       -16.4718
  62   2.0000      -0.580373       -15.7928
  63   2.0000      -0.577341       -15.7103
  64   2.0000      -0.570540       -15.5252
  65   2.0000      -0.562680       -15.3113
  66   2.0000      -0.549515       -14.9531
  67   2.0000      -0.548351       -14.9214
  68   2.0000      -0.545375       -14.8404
  69   2.0000      -0.545121       -14.8335
  70   2.0000      -0.540006       -14.6943
  71   2.0000      -0.537131       -14.6161
  72   2.0000      -0.534347       -14.5403
  73   2.0000      -0.519736       -14.1427
  74   2.0000      -0.512829       -13.9548
  75   2.0000      -0.503766       -13.7082
  76   2.0000      -0.498874       -13.5751
  77   2.0000      -0.491770       -13.3817
  78   2.0000      -0.491662       -13.3788
  79   2.0000      -0.480627       -13.0785
  80   2.0000      -0.475320       -12.9341
  81   2.0000      -0.468084       -12.7372
  82   2.0000      -0.467169       -12.7123
  83   2.0000      -0.455856       -12.4045
  84   2.0000      -0.450307       -12.2535
  85   2.0000      -0.438534       -11.9331
  86   2.0000      -0.437806       -11.9133
  87   2.0000      -0.436520       -11.8783
  88   2.0000      -0.433084       -11.7848
  89   2.0000      -0.430533       -11.7154
  90   2.0000      -0.428466       -11.6591
  91   2.0000      -0.403414       -10.9774
  92   2.0000      -0.336646        -9.1606
  93   2.0000      -0.331407        -9.0180
  94   2.0000      -0.325328        -8.8526
  95   2.0000      -0.324714        -8.8359
  96   2.0000      -0.318694        -8.6721
  97   2.0000      -0.315578        -8.5873
  98   2.0000      -0.282215        -7.6795
  99   2.0000      -0.216439        -5.8896
 100   0.0000       0.016331         0.4444
 101   0.0000       0.017726         0.4823
 102   0.0000       0.044419         1.2087
 103   0.0000       0.045637         1.2418
 104   0.0000       0.068288         1.8582

MULLIKEN ATOMIC CHARGES
-----------------------
   0 C :   -0.200849
   1 C :   -0.234550
   2 C :    0.111233
   3 C :    0.096767
   4 C :   -0.240979
   5 C :   -0.195995
   6 C :    0.097530
   7 C :    0.110617
   8 C :   -0.234151
   9 H :    0.170950
  10 C :   -0.201616
  11 C :   -0.195796
  12 C :   -0.241160
  13 H :    0.170832
  14 H :    0.170650
  15 H :    0.158574
  16 H :    0.158483
  17 H :    0.158570
  18 N :   -0.020926
  19 C :    0.149598
  20 C :   -0.239146
  21 C :   -0.239182
  22 C :   -0.172976
  23 C :   -0.172978
  24 C :    0.337393
  25 H :    0.181418
  26 H :    0.181327
  27 H :    0.170990
  28 H :    0.170925
  29 H :    0.158438
  30 N :   -0.020776
  31 C :    0.144334
  32 C :   -0.237069
  33 C :   -0.236459
  34 C :   -0.171096
  35 H :    0.170604
  36 C :   -0.171507
  37 H :    0.170580
  38 C :    0.335016
  39 H :    0.181857
  40 H :    0.181788
  41 H :    0.170534
  42 C :   -0.128823
  43 C :   -0.126093
  44 N :   -0.213847
  45 N :   -0.213036
Sum of atomic charges:   -0.0000000

LOEWDIN ATOMIC CHARGES
----------------------
   0 C :   -0.167234
   1 C :   -0.126968
   2 C :   -0.128987
   3 C :   -0.128373
   4 C :   -0.126607
   5 C :   -0.167608
   6 C :   -0.128372
   7 C :   -0.128986
   8 C :   -0.126969
   9 H :    0.160005
  10 C :   -0.167236
  11 C :   -0.167608
  12 C :   -0.126606
  13 H :    0.160005
  14 H :    0.159979
  15 H :    0.149571
  16 H :    0.149598
  17 H :    0.149571
  18 N :    0.269301
  19 C :   -0.146340
  20 C :   -0.080656
  21 C :   -0.080654
  22 C :   -0.057937
  23 C :   -0.057936
  24 C :   -0.147954
  25 H :    0.166153
  26 H :    0.166153
  27 H :    0.165384
  28 H :    0.165384
  29 H :    0.149598
  30 N :    0.269372
  31 C :   -0.146614
  32 C :   -0.079769
  33 C :   -0.079768
  34 C :   -0.057638
  35 H :    0.165401
  36 C :   -0.057638
  37 H :    0.165401
  38 C :   -0.147487
  39 H :    0.166243
  40 H :    0.166243
  41 H :    0.159978
  42 C :   -0.116216
  43 C :   -0.115914
  44 N :   -0.019946
  45 N :   -0.019318

  Mayer bond orders larger than 0.100000
B(  0-C ,  1-C ) :   1.3568 B(  0-C ,  5-C ) :   1.4443 B(  0-C , 29-H ) :   0.9888
B(  1-C ,  2-C ) :   1.4328 B(  1-C , 13-H ) :   0.9687 B(  2-C ,  3-C ) :   1.3720
B(  2-C , 18-N ) :   1.0716 B(  3-C ,  4-C ) :   1.4391 B(  3-C , 30-N ) :   1.0712
B(  4-C ,  5-C ) :   1.3551 B(  4-C , 14-H ) :   0.9694 B(  5-C , 15-H ) :   0.9887
B(  6-C ,  7-C ) :   1.3718 B(  6-C , 12-C ) :   1.4392 B(  6-C , 30-N ) :   1.0715
B(  7-C ,  8-C ) :   1.4333 B(  7-C , 18-N ) :   1.0716 B(  8-C ,  9-H ) :   0.9687
B(  8-C , 10-C ) :   1.3568 B( 10-C , 11-C ) :   1.4439 B( 10-C , 16-H ) :   0.9888
B( 11-C , 12-C ) :   1.3548 B( 11-C , 17-H ) :   0.9888 B( 12-C , 41-H ) :   0.9693
B( 18-N , 31-C ) :   0.7256 B( 19-C , 20-C ) :   1.4504 B( 19-C , 21-C ) :   1.4502
B( 19-C , 30-N ) :   0.7521 B( 20-C , 22-C ) :   1.4395 B( 20-C , 27-H ) :   0.9906
B( 21-C , 23-C ) :   1.4395 B( 21-C , 28-H ) :   0.9906 B( 22-C , 24-C ) :   1.3204
B( 22-C , 25-H ) :   0.9796 B( 23-C , 24-C ) :   1.3204 B( 23-C , 26-H ) :   0.9797
B( 24-C , 42-C ) :   0.9257 B( 31-C , 32-C ) :   1.4693 B( 31-C , 33-C ) :   1.4690
B( 32-C , 34-C ) :   1.4354 B( 32-C , 35-H ) :   0.9904 B( 33-C , 36-C ) :   1.4351
B( 33-C , 37-H ) :   0.9906 B( 34-C , 38-C ) :   1.3196 B( 34-C , 39-H ) :   0.9790
B( 36-C , 38-C ) :   1.3199 B( 36-C , 40-H ) :   0.9793 B( 38-C , 43-C ) :   0.9324
B( 42-C , 44-N ) :   3.0331 B( 43-C , 45-N ) :   3.0296

MP2 TOTAL ENERGY:    -1218.250129981 Eh

-----------------------------------------------------------------------------
         ABSORPTION SPECTRUM VIA TRANSITION ELECTRIC DIPOLE MOMENTS
-----------------------------------------------------------------------------
State   Energy    Wavelength  fosc         T2        TX        TY        TZ
        (cm-1)      (nm)                 (au**2)    (au)      (au)      (au)
-----------------------------------------------------------------------------
   1   19071.6    524.3   0.000057456   0.00099   0.00013   0.00332  -0.03132
   2   11185.7    894.0   0.003596283   0.10584  -0.32534   0.00001  -0.00003
   3   11225.2    890.8   0.019284558   0.56557   0.75205  -0.00010   0.00002
   4   16671.4    599.8   0.125619354   2.48062  -0.00005  -1.57468  -0.03153
   5   22241.3    449.6   0.000920022   0.01362   0.11670   0.00001  -0.00003
   6   18196.5    549.6   0.000441505   0.00799   0.00001   0.07747  -0.04456
   7   19277.4    518.7   0.043042426   0.73506   0.00007   0.85704   0.02314
   8   28642.6    349.1   0.050574337   0.58129  -0.00015   0.10378   0.75533
   9   28018.0    356.9   0.027584170   0.32411  -0.00019  -0.23687   0.51769
  10   41973.2    238.2   0.877349908   6.88139   2.62324  -0.00000   0.00008
  11   43433.0    230.2   0.002116232   0.01604  -0.12665   0.00001   0.00004
  12   36365.9    275.0   0.006946853   0.06289  -0.00000   0.01914   0.25004
  13   40761.8    245.3   0.000000812   0.00001  -0.00255   0.00021  -0.00001
  14   30631.3    326.5   0.919660591   9.88410   0.00012  -3.14388  -0.01024
  15   24747.2    404.1   0.104880031   1.39522   1.18119   0.00023  -0.00001
  16   24100.0    414.9   0.007441157   0.10165  -0.31882  -0.00008  -0.00010
  17   37727.4    265.1   0.007013271   0.06120   0.00005   0.05671  -0.24080
  18   41512.3    240.9   1.897926771  15.05144  -3.87962   0.00003   0.00003
  19   39385.9    253.9   0.011125282   0.09299  -0.30495   0.00003   0.00004
  20   37381.2    267.5   0.001002706   0.00883   0.00012  -0.00485   0.09385
  21   43500.0    229.9   0.015768603   0.11934   0.00055   0.29971   0.17178
  22   44648.6    224.0   0.497777733   3.67031  -1.91581   0.00008  -0.00040
  23   44093.1    226.8   0.632468832   4.72219  -0.00037  -0.09494   2.17099
  24   57750.3    173.2   0.000166917   0.00095   0.03085  -0.00001   0.00011
  25   58196.4    171.8   0.000119083   0.00067   0.02595   0.00001   0.00001
  26   46491.7    215.1   0.000006248   0.00004   0.00665  -0.00001   0.00004
  27   38910.7    257.0   0.000343885   0.00291   0.00004  -0.05265   0.01172
  28   43406.7    230.4   0.000955171   0.00724  -0.08511   0.00002  -0.00013
  29   34394.3    290.7   0.037875851   0.36254  -0.00005  -0.15349   0.58222
  30   34570.5    289.3   0.015435135   0.14699  -0.00003  -0.28496  -0.25648

Dispersion correction           -0.047760498
FINAL SINGLE POINT ENERGY     -1215.850280678325

DIPOLE MOMENT
-------------
                                X             Y             Z
Electronic contribution:     -0.01750       0.00001       0.00038
Nuclear contribution   :     -0.01216       0.00002      -0.00044
                        -----------------------------------------
Total Dipole Moment    :     -0.02967       0.00003      -0.00006
                        -----------------------------------------
Magnitude (a.u.)       :      0.02967
Magnitude (Debye)      :      0.07541

Rotational constants in cm-1:     0.013166     0.002691     0.002341
Rotational constants in MHz :   394.716059    80.676940    70.178145

                             ****ORCA TERMINATED NORMALLY****
TOTAL RUN TIME: 0 days 1 hours 29 minutes 48 seconds 464 msec
