                         Program Version 5.0.2 -  RELEASE  -
|  1> %maxcore 20000
|  2> %pal
|  3>  nprocs= 6
|  4> end
|  5> ! RI-SCS-PBE-QIDH   def2-TZVP def2/J def2-TZVP/C RIJCOSX CPCM TightSCF
|  6> %TDDFT
|  7>    NROOTS   30
|  8>    dcorr 4
|  9>    doscs true
| 10>    TDA      FALSE
| 11> END
| 12>
| 13> %CPCM
| 14>    SMD          TRUE
| 15>    SMDsolvent   "N,N-DIMETHYLFORMAMIDE"
| 16> END
| 17>
| 18>
| 19> * xyz 0 1
| 20> C                  -0.69204800   -3.64386400   -0.00787400
| 21> C                  -1.38063400   -2.43381100    0.01449500
| 22> C                  -0.70412400   -1.22065400    0.00031700
| 23> C                   0.70453700   -1.22132400   -0.01151200
| 24> C                   1.37757400   -2.43577000   -0.05047100
| 25> C                   0.68626500   -3.64462700   -0.04839400
| 26> C                   0.70452700    1.22133800    0.01141000
| 27> C                  -0.70413500    1.22065200   -0.00038400
| 28> C                  -1.38065800    2.43380100   -0.01460900
| 29> H                  -2.46172000    2.43500700   -0.04119000
| 30> C                  -0.69208600    3.64386400    0.00768500
| 31> C                   0.68622800    3.64464400    0.04816700
| 32> C                   1.37755000    2.43579500    0.05028500
| 33> H                  -2.46169400   -2.43503000    0.04110900
| 34> H                   2.45827400   -2.44078500   -0.08404200
| 35> H                   1.24095300   -4.57320800   -0.07768800
| 36> H                  -1.24837500    4.57189400   -0.00273000
| 37> H                   1.24090700    4.57323200    0.07740300
| 38> N                  -1.38783400   -0.00000400    0.00001600
| 39> C                   2.81359400    0.00001000    0.00001200
| 40> C                   3.50492200    0.26808100   -1.17600900
| 41> C                   3.50487000   -0.26806900    1.17606000
| 42> C                   4.88571300    0.27165100   -1.18089900
| 43> C                   4.88566100   -0.27164800    1.18100900
| 44> C                   5.58200100   -0.00000100    0.00007000
| 45> H                   5.43094000    0.47772700   -2.09179700
| 46> H                   5.43084800   -0.47772900    2.09193100
| 47> H                   2.95295300    0.47632700   -2.08345700
| 48> H                   2.95286100   -0.47631300    2.08348400
| 49> H                  -1.24832600   -4.57190200    0.00251200
| 50> N                   1.38978900    0.00001000   -0.00001500
| 51> C                  -2.81267800   -0.00000700    0.00003000
| 52> C                  -3.50271800   -0.16014900   -1.19561600
| 53> C                  -3.50269000    0.16013500    1.19569200
| 54> C                  -4.88377600   -0.16242500   -1.20102800
| 55> H                  -2.94982500   -0.28486500   -2.11773400
| 56> C                  -4.88374800    0.16241100    1.20113700
| 57> H                  -2.94977500    0.28485300    2.11779700
| 58> C                  -5.57941300   -0.00000800    0.00006200
| 59> H                  -5.42939900   -0.28554300   -2.12654800
| 60> H                  -5.42934900    0.28552900    2.12666900
| 61> H                   2.45825100    2.44082500    0.08382800
| 62> C                   7.00167700   -0.00000500    0.00010100
| 63> C                  -6.99939900   -0.00000900    0.00008000
| 64> N                   8.15878000   -0.00000800    0.00012600
| 65> N                  -8.15639400   -0.00000900    0.00009400
| 66> *
| 67>
| 68>
| 69>                          ****END OF INPUT****

CARTESIAN COORDINATES (ANGSTROEM)
---------------------------------
  C     -0.692048   -3.643864   -0.007874
  C     -1.380634   -2.433811    0.014495
  C     -0.704124   -1.220654    0.000317
  C      0.704537   -1.221324   -0.011512
  C      1.377574   -2.435770   -0.050471
  C      0.686265   -3.644627   -0.048394
  C      0.704527    1.221338    0.011410
  C     -0.704135    1.220652   -0.000384
  C     -1.380658    2.433801   -0.014609
  H     -2.461720    2.435007   -0.041190
  C     -0.692086    3.643864    0.007685
  C      0.686228    3.644644    0.048167
  C      1.377550    2.435795    0.050285
  H     -2.461694   -2.435030    0.041109
  H      2.458274   -2.440785   -0.084042
  H      1.240953   -4.573208   -0.077688
  H     -1.248375    4.571894   -0.002730
  H      1.240907    4.573232    0.077403
  N     -1.387834   -0.000004    0.000016
  C      2.813594    0.000010    0.000012
  C      3.504922    0.268081   -1.176009
  C      3.504870   -0.268069    1.176060
  C      4.885713    0.271651   -1.180899
  C      4.885661   -0.271648    1.181009
  C      5.582001   -0.000001    0.000070
  H      5.430940    0.477727   -2.091797
  H      5.430848   -0.477729    2.091931
  H      2.952953    0.476327   -2.083457
  H      2.952861   -0.476313    2.083484
  H     -1.248326   -4.571902    0.002512
  N      1.389789    0.000010   -0.000015
  C     -2.812678   -0.000007    0.000030
  C     -3.502718   -0.160149   -1.195616
  C     -3.502690    0.160135    1.195692
  C     -4.883776   -0.162425   -1.201028
  H     -2.949825   -0.284865   -2.117734
  C     -4.883748    0.162411    1.201137
  H     -2.949775    0.284853    2.117797
  C     -5.579413   -0.000008    0.000062
  H     -5.429399   -0.285543   -2.126548
  H     -5.429349    0.285529    2.126669
  H      2.458251    2.440825    0.083828
  C      7.001677   -0.000005    0.000101
  C     -6.999399   -0.000009    0.000080
  N      8.158780   -0.000008    0.000126
  N     -8.156394   -0.000009    0.000094

 Total Charge           Charge          ....    0
 Multiplicity           Mult            ....    1
 Number of Electrons    NEL             ....  200
 Basis Dimension        Dim             .... 1026

ORBITAL ENERGIES
----------------

  NO   OCC          E(Eh)            E(eV)
   0   2.0000     -15.121866      -411.4869
   1   2.0000     -15.121350      -411.4728
   2   2.0000     -15.096463      -410.7956
   3   2.0000     -15.096232      -410.7894
   4   2.0000     -10.882418      -296.1257
   5   2.0000     -10.882153      -296.1184
   6   2.0000     -10.879243      -296.0393
   7   2.0000     -10.879081      -296.0348
   8   2.0000     -10.877545      -295.9931
   9   2.0000     -10.877522      -295.9924
  10   2.0000     -10.876642      -295.9685
  11   2.0000     -10.876635      -295.9683
  12   2.0000     -10.871931      -295.8403
  13   2.0000     -10.871449      -295.8272
  14   2.0000     -10.849083      -295.2186
  15   2.0000     -10.849051      -295.2177
  16   2.0000     -10.848883      -295.2131
  17   2.0000     -10.848850      -295.2122
  18   2.0000     -10.836775      -294.8836
  19   2.0000     -10.836755      -294.8831
  20   2.0000     -10.836558      -294.8777
  21   2.0000     -10.836537      -294.8772
  22   2.0000     -10.819255      -294.4069
  23   2.0000     -10.819254      -294.4069
  24   2.0000     -10.819185      -294.4050
  25   2.0000     -10.819184      -294.4050
  26   2.0000     -10.815576      -294.3068
  27   2.0000     -10.815576      -294.3068
  28   2.0000     -10.814522      -294.2781
  29   2.0000     -10.814522      -294.2781
  30   2.0000      -1.216843       -33.1120
  31   2.0000      -1.172394       -31.9025
  32   2.0000      -1.128678       -30.7129
  33   2.0000      -1.128278       -30.7020
  34   2.0000      -1.080697       -29.4073
  35   2.0000      -1.071533       -29.1579
  36   2.0000      -1.066014       -29.0077
  37   2.0000      -1.030478       -28.0407
  38   2.0000      -0.976152       -26.5624
  39   2.0000      -0.958336       -26.0777
  40   2.0000      -0.951081       -25.8802
  41   2.0000      -0.950355       -25.8605
  42   2.0000      -0.944195       -25.6929
  43   2.0000      -0.939807       -25.5734
  44   2.0000      -0.906712       -24.6729
  45   2.0000      -0.883848       -24.0507
  46   2.0000      -0.823623       -22.4119
  47   2.0000      -0.807817       -21.9818
  48   2.0000      -0.795609       -21.6496
  49   2.0000      -0.783653       -21.3243
  50   2.0000      -0.782494       -21.2927
  51   2.0000      -0.751018       -20.4363
  52   2.0000      -0.749592       -20.3974
  53   2.0000      -0.704611       -19.1735
  54   2.0000      -0.697551       -18.9813
  55   2.0000      -0.696198       -18.9445
  56   2.0000      -0.696069       -18.9410
  57   2.0000      -0.664531       -18.0828
  58   2.0000      -0.656083       -17.8529
  59   2.0000      -0.623291       -16.9606
  60   2.0000      -0.616448       -16.7744
  61   2.0000      -0.614444       -16.7199
  62   2.0000      -0.588911       -16.0251
  63   2.0000      -0.585958       -15.9447
  64   2.0000      -0.578427       -15.7398
  65   2.0000      -0.570422       -15.5220
  66   2.0000      -0.557685       -15.1754
  67   2.0000      -0.557020       -15.1573
  68   2.0000      -0.553297       -15.0560
  69   2.0000      -0.552348       -15.0301
  70   2.0000      -0.548166       -14.9164
  71   2.0000      -0.544595       -14.8192
  72   2.0000      -0.544026       -14.8037
  73   2.0000      -0.527536       -14.3550
  74   2.0000      -0.520505       -14.1637
  75   2.0000      -0.514714       -14.0061
  76   2.0000      -0.509411       -13.8618
  77   2.0000      -0.498537       -13.5659
  78   2.0000      -0.498377       -13.5615
  79   2.0000      -0.489108       -13.3093
  80   2.0000      -0.482283       -13.1236
  81   2.0000      -0.479533       -13.0488
  82   2.0000      -0.474658       -12.9161
  83   2.0000      -0.463508       -12.6127
  84   2.0000      -0.457206       -12.4412
  85   2.0000      -0.448306       -12.1990
  86   2.0000      -0.447200       -12.1689
  87   2.0000      -0.442934       -12.0528
  88   2.0000      -0.442905       -12.0521
  89   2.0000      -0.439309       -11.9542
  90   2.0000      -0.436716       -11.8836
  91   2.0000      -0.414124       -11.2689
  92   2.0000      -0.347419        -9.4537
  93   2.0000      -0.342287        -9.3141
  94   2.0000      -0.336168        -9.1476
  95   2.0000      -0.335521        -9.1300
  96   2.0000      -0.329748        -8.9729
  97   2.0000      -0.326622        -8.8878
  98   2.0000      -0.292606        -7.9622
  99   2.0000      -0.226370        -6.1598
 100   0.0000       0.006617         0.1801
 101   0.0000       0.007990         0.2174
 102   0.0000       0.034942         0.9508
 103   0.0000       0.036690         0.9984
 104   0.0000       0.058881         1.6022

MULLIKEN ATOMIC CHARGES
-----------------------
   0 C :   -0.209423
   1 C :   -0.253297
   2 C :    0.094580
   3 C :    0.080208
   4 C :   -0.259985
   5 C :   -0.203940
   6 C :    0.080972
   7 C :    0.093966
   8 C :   -0.252906
   9 H :    0.180534
  10 C :   -0.210192
  11 C :   -0.203747
  12 C :   -0.260159
  13 H :    0.180414
  14 H :    0.180001
  15 H :    0.168671
  16 H :    0.168481
  17 H :    0.168669
  18 N :    0.054871
  19 C :    0.112532
  20 C :   -0.245713
  21 C :   -0.245741
  22 C :   -0.181738
  23 C :   -0.181758
  24 C :    0.363814
  25 H :    0.189629
  26 H :    0.189535
  27 H :    0.179619
  28 H :    0.179559
  29 H :    0.168434
  30 N :    0.053857
  31 C :    0.100978
  32 C :   -0.241012
  33 C :   -0.240425
  34 C :   -0.181751
  35 H :    0.179242
  36 C :   -0.182142
  37 H :    0.179212
  38 C :    0.363265
  39 H :    0.189946
  40 H :    0.189876
  41 H :    0.179894
  42 C :   -0.146893
  43 C :   -0.144269
  44 N :   -0.213251
  45 N :   -0.212419
Sum of atomic charges:    0.0000000

LOEWDIN ATOMIC CHARGES
----------------------
   0 C :   -0.169561
   1 C :   -0.128913
   2 C :   -0.133212
   3 C :   -0.132581
   4 C :   -0.128581
   5 C :   -0.169922
   6 C :   -0.132580
   7 C :   -0.133211
   8 C :   -0.128914
   9 H :    0.163667
  10 C :   -0.169563
  11 C :   -0.169922
  12 C :   -0.128581
  13 H :    0.163667
  14 H :    0.163634
  15 H :    0.153407
  16 H :    0.153432
  17 H :    0.153408
  18 N :    0.272059
  19 C :   -0.153690
  20 C :   -0.082754
  21 C :   -0.082752
  22 C :   -0.059686
  23 C :   -0.059686
  24 C :   -0.151898
  25 H :    0.169762
  26 H :    0.169762
  27 H :    0.169363
  28 H :    0.169362
  29 H :    0.153432
  30 N :    0.272146
  31 C :   -0.154074
  32 C :   -0.081798
  33 C :   -0.081797
  34 C :   -0.059362
  35 H :    0.169364
  36 C :   -0.059362
  37 H :    0.169364
  38 C :   -0.151401
  39 H :    0.169842
  40 H :    0.169842
  41 H :    0.163634
  42 C :   -0.117093
  43 C :   -0.116786
  44 N :   -0.016037
  45 N :   -0.015428

  Mayer bond orders larger than 0.100000
B(  0-C ,  1-C ) :   1.3535 B(  0-C ,  5-C ) :   1.4403 B(  0-C , 29-H ) :   0.9857
B(  1-C ,  2-C ) :   1.4381 B(  1-C , 13-H ) :   0.9654 B(  2-C ,  3-C ) :   1.3975
B(  2-C , 18-N ) :   1.0772 B(  3-C ,  4-C ) :   1.4445 B(  3-C , 30-N ) :   1.0772
B(  4-C ,  5-C ) :   1.3522 B(  4-C , 14-H ) :   0.9661 B(  5-C , 15-H ) :   0.9854
B(  6-C ,  7-C ) :   1.3973 B(  6-C , 12-C ) :   1.4445 B(  6-C , 30-N ) :   1.0775
B(  7-C ,  8-C ) :   1.4385 B(  7-C , 18-N ) :   1.0773 B(  8-C ,  9-H ) :   0.9654
B(  8-C , 10-C ) :   1.3535 B( 10-C , 11-C ) :   1.4400 B( 10-C , 16-H ) :   0.9857
B( 11-C , 12-C ) :   1.3519 B( 11-C , 17-H ) :   0.9855 B( 12-C , 41-H ) :   0.9660
B( 18-N , 31-C ) :   0.7474 B( 19-C , 20-C ) :   1.4594 B( 19-C , 21-C ) :   1.4592
B( 19-C , 30-N ) :   0.7718 B( 20-C , 22-C ) :   1.4382 B( 20-C , 27-H ) :   0.9868
B( 21-C , 23-C ) :   1.4381 B( 21-C , 28-H ) :   0.9869 B( 22-C , 24-C ) :   1.3181
B( 22-C , 25-H ) :   0.9777 B( 23-C , 24-C ) :   1.3181 B( 23-C , 26-H ) :   0.9778
B( 24-C , 42-C ) :   0.9303 B( 31-C , 32-C ) :   1.4815 B( 31-C , 33-C ) :   1.4811
B( 32-C , 34-C ) :   1.4346 B( 32-C , 35-H ) :   0.9862 B( 33-C , 36-C ) :   1.4342
B( 33-C , 37-H ) :   0.9864 B( 34-C , 38-C ) :   1.3166 B( 34-C , 39-H ) :   0.9773
B( 36-C , 38-C ) :   1.3169 B( 36-C , 40-H ) :   0.9776 B( 38-C , 43-C ) :   0.9374
B( 42-C , 44-N ) :   3.0074 B( 43-C , 45-N ) :   3.0041

MP2 TOTAL ENERGY:    -1218.201936928 Eh

-----------------------------------------------------------------------------
         ABSORPTION SPECTRUM VIA TRANSITION ELECTRIC DIPOLE MOMENTS
-----------------------------------------------------------------------------
State   Energy    Wavelength  fosc         T2        TX        TY        TZ
        (cm-1)      (nm)                 (au**2)    (au)      (au)      (au)
-----------------------------------------------------------------------------
   1   26640.6    375.4   0.000075656   0.00093   0.00015   0.00307  -0.03042
   2   24077.8    415.3   0.007662236   0.10476   0.32367  -0.00001   0.00003
   3   24479.4    408.5   0.041880778   0.56324  -0.75049   0.00009  -0.00001
   4   28179.4    354.9   0.211592475   2.47197  -0.00004  -1.57195  -0.03057
   5   32333.6    309.3   0.001247679   0.01270   0.11271   0.00001  -0.00003
   6   32609.1    306.7   0.000669903   0.00676   0.00002   0.07553  -0.03253
   7   33698.1    296.8   0.077364549   0.75581   0.00006   0.86908   0.02260
   8   38184.3    261.9   0.063842042   0.55042  -0.00011   0.10175   0.73489
   9   38108.5    262.4   0.038962079   0.33659   0.00009   0.21451  -0.53905
  10   43986.7    227.3   0.957300206   7.16478   2.67671   0.00001   0.00005
  11   44904.0    222.7   0.003483216   0.02554  -0.15980   0.00002   0.00004
  12   44977.7    222.3   0.000436781   0.00320   0.05654  -0.00054  -0.00002
  13   41201.9    242.7   1.234699702   9.86552  -0.00011   3.14093   0.00999
  14   44780.6    223.3   0.009183042   0.06751  -0.00002   0.01669   0.25929
  15   40160.0    249.0   0.167159510   1.37029  -1.17059  -0.00023   0.00001
  16   40110.2    249.3   0.014129769   0.11597   0.34055   0.00009   0.00007
  17   45575.1    219.4   0.009278472   0.06702   0.00000  -0.05388   0.25322
  18   48697.0    205.4   2.138813991  14.45927   3.80254  -0.00002  -0.00003
  19   47825.1    209.1   0.016916700   0.11645  -0.34125   0.00003   0.00004
  20   50349.1    198.6   0.013008355   0.08506   0.00064   0.25049   0.14937
  21   49584.4    201.7   0.005051268   0.03354  -0.00016   0.15547   0.09678
  22   51399.1    194.6   0.621418298   3.98019  -1.99504   0.00006  -0.00043
  23   51157.4    195.5   0.729342249   4.69352   0.00040   0.09523  -2.16436
  24   56837.3    175.9   0.000277963   0.00161   0.04012  -0.00001   0.00021
  25   56967.2    175.5   0.000158687   0.00092   0.03028   0.00002   0.00000
  26   52326.7    191.1   0.000044494   0.00028  -0.01673  -0.00000  -0.00003
  27   48840.5    204.7   0.050375786   0.33956   0.00002   0.15645  -0.56132
  28   49241.5    203.1   0.019287352   0.12895  -0.00001  -0.22149  -0.28265
  29   51044.2    195.9   0.014887222   0.09602  -0.00004  -0.30741  -0.03888
  30   48678.4    205.4   0.012828046   0.08676   0.00007  -0.29432   0.01142

FINAL SINGLE POINT ENERGY     -1216.296148766900

DIPOLE MOMENT
-------------
                                X             Y             Z
Electronic contribution:     -0.01809       0.00001       0.00038
Nuclear contribution   :     -0.01216       0.00002      -0.00044
                        -----------------------------------------
Total Dipole Moment    :     -0.03026       0.00003      -0.00006
                        -----------------------------------------
Magnitude (a.u.)       :      0.03026
Magnitude (Debye)      :      0.07690

Rotational constants in cm-1:     0.013166     0.002691     0.002341
Rotational constants in MHz :   394.716059    80.676940    70.178145

                             ****ORCA TERMINATED NORMALLY****
TOTAL RUN TIME: 0 days 6 hours 14 minutes 25 seconds 18 msec
