 Gaussian 09, Revision E.01,
 Gaussian 09:  ES64L-G09RevE.01 30-Nov-2015

 ----------------------------------------------------------------------
 #p m06/def2TZVP td=(NStates=50) int=ultrafine scrf=(SMD,solvent=Aceton
 itrile)
 ----------------------------------------------------------------------

 -----
 Title
 -----
 Symbolic Z-matrix:
 Charge =  0 Multiplicity = 1

                         Standard orientation:
 ---------------------------------------------------------------------
 Center     Atomic      Atomic             Coordinates (Angstroms)
 Number     Number       Type             X           Y           Z
 ---------------------------------------------------------------------
      1          6           0        1.228124   -0.652625    0.166165
      2          6           0        0.062673   -1.397052    0.010606
      3          6           0       -1.162541   -0.758165   -0.158128
      4          6           0       -1.208640    0.638136   -0.189578
      5          6           0       -0.057938    1.404916   -0.006600
      6          6           0        1.154962    0.742483    0.180636
      7          6           0       -2.454074    1.274127   -0.464185
      8          6           0        2.341884    1.485283    0.444787
      9          7           0       -3.460359    1.778845   -0.696318
     10          7           0        3.301880    2.076315    0.669202
     11          7           0        2.469949   -1.273916    0.332946
     12          6           0        2.936480   -1.871416    1.500368
     13          6           0        3.443319   -1.401170   -0.654814
     14          6           0        2.317801   -1.975585    2.734938
     15          6           0        4.223062   -2.381453    1.259516
     16          6           0        3.411933   -0.972327   -1.971300
     17          6           0        4.544799   -2.084260   -0.113107
     18          6           0        3.017963   -2.615762    3.742056
     19          1           0        1.325256   -1.572115    2.905049
     20          6           0        4.905536   -3.018344    2.288833
     21          6           0        4.524619   -1.237626   -2.750246
     22          1           0        2.550567   -0.450554   -2.375316
     23          6           0        5.648802   -2.339273   -0.917365
     24          6           0        4.296259   -3.132337    3.524351
     25          1           0        2.562613   -2.716347    4.720600
     26          1           0        5.900678   -3.416142    2.120691
     27          6           0        5.631067   -1.912058   -2.231996
     28          1           0        4.534196   -0.914955   -3.785024
     29          1           0        6.507507   -2.866723   -0.515781
     30          1           0        4.815273   -3.626881    4.337069
     31          1           0        6.484778   -2.103071   -2.871695
     32          7           0       -2.344743   -1.486499   -0.321421
     33          6           0       -3.320130   -1.666984    0.656486
     34          6           0       -2.742667   -2.150956   -1.478221
     35          6           0       -3.345366   -1.201539    1.960630
     36          6           0       -4.352229   -2.454014    0.119611
     37          6           0       -2.100629   -2.233317   -2.702456
     38          6           0       -3.985661   -2.760294   -1.239760
     39          6           0       -4.444419   -1.537792    2.731512
     40          1           0       -2.537468   -0.598932    2.362008
     41          6           0       -5.443800   -2.778676    0.915649
     42          6           0       -2.730741   -2.955521   -3.700475
     43          1           0       -1.144622   -1.750227   -2.873606
     44          6           0       -4.598038   -3.478328   -2.259759
     45          6           0       -5.482542   -2.316194    2.217809
     46          1           0       -4.497130   -1.189291    3.756572
     47          1           0       -6.248879   -3.386917    0.517305
     48          6           0       -3.963883   -3.572478   -3.484322
     49          1           0       -2.255316   -3.041297   -4.670850
     50          1           0       -5.559057   -3.953168   -2.093051
     51          1           0       -6.327219   -2.560994    2.851093
     52          1           0       -4.428518   -4.128956   -4.289887
     53          7           0       -0.119114    2.799299   -0.009709
     54          6           0        0.477099    3.643403   -0.951325
     55          6           0       -0.794456    3.587078    0.926900
     56          6           0        1.220125    3.321680   -2.075309
     57          6           0        0.178976    4.972374   -0.612138
     58          6           0       -1.503508    3.199970    2.052073
     59          6           0       -0.626012    4.936584    0.581192
     60          6           0        1.679497    4.368582   -2.854929
     61          1           0        1.434830    2.292702   -2.342714
     62          6           0        0.649197    6.006064   -1.412147
     63          6           0       -2.062857    4.200820    2.826719
     64          1           0       -1.616413    2.156114    2.323596
     65          6           0       -1.194836    5.923576    1.376145
     66          6           0        1.401456    5.696363   -2.529055
     67          1           0        2.266074    4.148381   -3.739407
     68          1           0        0.422702    7.036604   -1.160359
     69          6           0       -1.914492    5.547739    2.494382
     70          1           0       -2.626234    3.928975    3.711872
     71          1           0       -1.069468    6.970067    1.119560
     72          1           0        1.777287    6.490308   -3.163737
     73          1           0       -2.366069    6.304554    3.125012
     74         17           0        0.136722   -3.110072    0.028425
 ---------------------------------------------------------------------

 SCF Done:  E(RM06) =  -2424.38810580     A.U. after   19 cycles

 Excitation energies and oscillator strengths:

 Excited State   1:      Singlet-A      2.7418 eV  452.19 nm  f=0.0415  <S**2>=0.000
     168 -> 171       -0.10067
     170 -> 171        0.69550
 This state for optimization and/or second-order correction.
 Total Energy, E(TD-HF/TD-KS) =  -2424.28734521
 Copying the excited state density for this state as the 1-particle RhoCI density.

 Excited State   2:      Singlet-A      2.8916 eV  428.77 nm  f=0.0216  <S**2>=0.000
     169 -> 171        0.70133

 Excited State   3:      Singlet-A      2.9658 eV  418.05 nm  f=0.0010  <S**2>=0.000
     168 -> 171        0.69545
     170 -> 171        0.10139

 Excited State   4:      Singlet-A      3.1584 eV  392.55 nm  f=0.0005  <S**2>=0.000
     166 -> 171       -0.15438
     167 -> 171        0.68749

 Excited State   5:      Singlet-A      3.1624 eV  392.06 nm  f=0.0009  <S**2>=0.000
     166 -> 171        0.68379
     167 -> 171        0.15380

 Excited State   6:      Singlet-A      3.2127 eV  385.92 nm  f=0.0270  <S**2>=0.000
     165 -> 171        0.48289
     168 -> 172        0.25545
     170 -> 172        0.43718

 Excited State   7:      Singlet-A      3.2255 eV  384.38 nm  f=0.0388  <S**2>=0.000
     165 -> 171        0.50987
     168 -> 172       -0.23150
     170 -> 172       -0.42610

 Excited State   8:      Singlet-A      3.3886 eV  365.88 nm  f=0.0319  <S**2>=0.000
     168 -> 172        0.60845
     170 -> 172       -0.34852

 Excited State   9:      Singlet-A      3.4534 eV  359.02 nm  f=0.0278  <S**2>=0.000
     169 -> 172        0.70011

 Excited State  10:      Singlet-A      3.5732 eV  346.98 nm  f=0.0002  <S**2>=0.000
     165 -> 172        0.69704

 Excited State  11:      Singlet-A      3.6917 eV  335.84 nm  f=0.0004  <S**2>=0.000
     167 -> 172        0.69983

 Excited State  12:      Singlet-A      3.6956 eV  335.49 nm  f=0.0015  <S**2>=0.000
     165 -> 172        0.10153
     166 -> 172        0.69370

 Excited State  13:      Singlet-A      4.1592 eV  298.10 nm  f=0.1019  <S**2>=0.000
     166 -> 177       -0.10815
     167 -> 178        0.13521
     168 -> 173       -0.21478
     169 -> 174       -0.21894
     169 -> 175       -0.35004
     170 -> 173        0.47126

 Excited State  14:      Singlet-A      4.1684 eV  297.44 nm  f=0.0662  <S**2>=0.000
     166 -> 177       -0.11589
     168 -> 175        0.25600
     169 -> 173        0.40451
     170 -> 174       -0.34631
     170 -> 175       -0.29584

 Excited State  15:      Singlet-A      4.1840 eV  296.33 nm  f=0.0004  <S**2>=0.000
     164 -> 171        0.69557

 Excited State  16:      Singlet-A      4.1913 eV  295.81 nm  f=0.0339  <S**2>=0.000
     165 -> 176       -0.16523
     168 -> 174        0.45964
     168 -> 175       -0.17190
     169 -> 173        0.14804
     170 -> 174        0.26689
     170 -> 175       -0.32783

 Excited State  17:      Singlet-A      4.2182 eV  293.92 nm  f=0.0007  <S**2>=0.000
     162 -> 171        0.58007
     163 -> 171       -0.39172

 Excited State  18:      Singlet-A      4.2574 eV  291.22 nm  f=0.0054  <S**2>=0.000
     162 -> 171        0.39496
     163 -> 171        0.58228

 Excited State  19:      Singlet-A      4.3882 eV  282.54 nm  f=0.1031  <S**2>=0.000
     157 -> 172        0.23287
     158 -> 171       -0.10839
     160 -> 172        0.11380
     161 -> 171        0.63451

 Excited State  20:      Singlet-A      4.4416 eV  279.14 nm  f=0.0244  <S**2>=0.000
     163 -> 172       -0.10520
     165 -> 174        0.40584
     165 -> 175       -0.26263
     166 -> 174       -0.17617
     166 -> 175       -0.15741
     167 -> 173       -0.29369
     167 -> 174       -0.12692
     167 -> 175       -0.14795
     168 -> 176        0.10727

 Excited State  21:      Singlet-A      4.4432 eV  279.04 nm  f=0.0233  <S**2>=0.000
     165 -> 174        0.12020
     166 -> 173        0.45828
     166 -> 175       -0.13792
     167 -> 174        0.21639
     167 -> 175        0.34694
     170 -> 177        0.11314

 Excited State  22:      Singlet-A      4.4615 eV  277.90 nm  f=0.6241  <S**2>=0.000
     163 -> 172       -0.12891
     165 -> 174        0.34495
     165 -> 175       -0.13970
     166 -> 173       -0.12600
     166 -> 174        0.13041
     166 -> 175        0.31461
     167 -> 173        0.35414
     168 -> 176        0.10408
     169 -> 177       -0.10013

 Excited State  23:      Singlet-A      4.6292 eV  267.83 nm  f=0.0464  <S**2>=0.000
     162 -> 172        0.34399
     163 -> 172        0.57990
     165 -> 174        0.14609

 Excited State  24:      Singlet-A      4.7021 eV  263.68 nm  f=0.0001  <S**2>=0.000
     168 -> 174       -0.30062
     168 -> 175        0.24255
     169 -> 173        0.22138
     170 -> 173       -0.10355
     170 -> 174        0.52718

 Excited State  25:      Singlet-A      4.7037 eV  263.59 nm  f=0.0003  <S**2>=0.000
     168 -> 173        0.29014
     169 -> 174        0.25599
     169 -> 175        0.29936
     170 -> 173        0.48903
     170 -> 174        0.10329

 Excited State  26:      Singlet-A      4.7170 eV  262.85 nm  f=0.0000  <S**2>=0.000
     164 -> 172       -0.24083
     168 -> 174        0.23817
     169 -> 173        0.34563
     170 -> 175        0.50194

 Excited State  27:      Singlet-A      4.7213 eV  262.60 nm  f=0.0002  <S**2>=0.000
     164 -> 172        0.65763
     168 -> 174        0.11167
     169 -> 173        0.11534
     170 -> 175        0.18403

 Excited State  28:      Singlet-A      4.7526 eV  260.88 nm  f=0.0155  <S**2>=0.000
     162 -> 172        0.60441
     163 -> 172       -0.35687

 Excited State  29:      Singlet-A      4.7884 eV  258.93 nm  f=0.0001  <S**2>=0.000
     168 -> 173       -0.26799
     169 -> 174        0.60314
     169 -> 175       -0.21979

 Excited State  30:      Singlet-A      4.8095 eV  257.79 nm  f=0.0004  <S**2>=0.000
     168 -> 173        0.52312
     169 -> 175       -0.45863

 Excited State  31:      Singlet-A      4.8215 eV  257.15 nm  f=0.0001  <S**2>=0.000
     168 -> 174        0.29107
     168 -> 175        0.56162
     169 -> 173       -0.30418

 Excited State  32:      Singlet-A      4.8776 eV  254.19 nm  f=0.0407  <S**2>=0.000
     157 -> 171        0.34998
     160 -> 171        0.46616
     161 -> 172       -0.37325

 Excited State  33:      Singlet-A      4.9258 eV  251.70 nm  f=0.0001  <S**2>=0.000
     166 -> 173       -0.22250
     167 -> 173       -0.16538
     167 -> 174        0.63819

 Excited State  34:      Singlet-A      4.9283 eV  251.58 nm  f=0.0003  <S**2>=0.000
     166 -> 174        0.64694
     167 -> 173       -0.25188

 Excited State  35:      Singlet-A      4.9390 eV  251.03 nm  f=0.0009  <S**2>=0.000
     165 -> 173        0.68831
     166 -> 173       -0.12694

 Excited State  36:      Singlet-A      4.9503 eV  250.46 nm  f=0.0000  <S**2>=0.000
     165 -> 173       -0.12027
     166 -> 173       -0.31889
     167 -> 173       -0.23664
     167 -> 174       -0.10545
     167 -> 175        0.55522

 Excited State  37:      Singlet-A      4.9515 eV  250.40 nm  f=0.0001  <S**2>=0.000
     166 -> 173        0.25727
     166 -> 175        0.56130
     167 -> 173       -0.31714

 Excited State  38:      Singlet-A      4.9639 eV  249.77 nm  f=0.0065  <S**2>=0.000
     158 -> 171        0.27290
     159 -> 171        0.62956
     161 -> 171        0.10856

 Excited State  39:      Singlet-A      4.9667 eV  249.63 nm  f=0.0000  <S**2>=0.000
     165 -> 174        0.34055
     165 -> 175        0.60941

 Excited State  40:      Singlet-A      4.9996 eV  247.99 nm  f=0.0087  <S**2>=0.000
     157 -> 171       -0.39584
     160 -> 171        0.51825
     161 -> 172        0.25923

 Excited State  41:      Singlet-A      5.0227 eV  246.85 nm  f=0.0006  <S**2>=0.000
     158 -> 171        0.62135
     159 -> 171       -0.29789
     161 -> 171        0.12464

 Excited State  42:      Singlet-A      5.1496 eV  240.76 nm  f=0.0016  <S**2>=0.000
     162 -> 173       -0.17486
     163 -> 173        0.10447
     164 -> 174        0.10852
     164 -> 175        0.17388
     166 -> 181        0.19104
     167 -> 180       -0.16211
     167 -> 183       -0.10668
     168 -> 177       -0.12427
     169 -> 177        0.13526
     169 -> 178        0.27289
     170 -> 177        0.26753
     170 -> 178       -0.25585

 Excited State  43:      Singlet-A      5.1513 eV  240.69 nm  f=0.0116  <S**2>=0.000
     162 -> 175        0.14297
     163 -> 174       -0.16729
     164 -> 173       -0.14592
     165 -> 182        0.14272
     166 -> 180        0.13682
     167 -> 181       -0.12782
     168 -> 176        0.22755
     168 -> 179        0.13899
     169 -> 177        0.20118
     170 -> 176        0.34450
     170 -> 177        0.18201
     170 -> 178        0.12405

 Excited State  44:      Singlet-A      5.1832 eV  239.20 nm  f=0.4458  <S**2>=0.000
     162 -> 174       -0.15166
     163 -> 175        0.14671
     164 -> 173        0.18736
     165 -> 180       -0.13399
     165 -> 182        0.12890
     166 -> 180       -0.13125
     167 -> 181        0.18518
     168 -> 176        0.20026
     169 -> 177       -0.15880
     169 -> 178        0.12134
     170 -> 176        0.28155
     170 -> 177       -0.16499
     170 -> 178       -0.21727

 Excited State  45:      Singlet-A      5.2199 eV  237.52 nm  f=0.0046  <S**2>=0.000
     162 -> 174       -0.11409
     163 -> 174       -0.15525
     163 -> 175        0.10786
     165 -> 180       -0.12047
     165 -> 182        0.14586
     168 -> 176        0.12554
     168 -> 179        0.10666
     170 -> 176       -0.29134
     170 -> 178        0.10757
     170 -> 179        0.48792

 Excited State  46:      Singlet-A      5.2600 eV  235.71 nm  f=0.7704  <S**2>=0.000
     157 -> 171        0.38997
     158 -> 172        0.17807
     161 -> 172        0.47627
     170 -> 180       -0.15569

 Excited State  47:      Singlet-A      5.3201 eV  233.05 nm  f=0.1602  <S**2>=0.000
     165 -> 176        0.17940
     165 -> 179        0.10409
     166 -> 177       -0.22381
     166 -> 178       -0.18057
     167 -> 177        0.18642
     167 -> 178       -0.24901
     169 -> 176        0.27686
     169 -> 179       -0.23292
     169 -> 181        0.13704
     170 -> 180        0.19361

 Excited State  48:      Singlet-A      5.3332 eV  232.48 nm  f=0.0634  <S**2>=0.000
     163 -> 174        0.14594
     166 -> 177        0.29389
     166 -> 178       -0.10488
     167 -> 177       -0.10923
     167 -> 178       -0.26977
     168 -> 176        0.29523
     168 -> 179       -0.19295
     169 -> 180       -0.14173
     170 -> 181       -0.17321

 Excited State  49:      Singlet-A      5.3449 eV  231.97 nm  f=0.1156  <S**2>=0.000
     165 -> 176        0.46930
     165 -> 179        0.18886
     168 -> 174        0.13467
     168 -> 180        0.16943
     168 -> 182       -0.13065
     169 -> 179        0.14135
     170 -> 182       -0.14055

 Excited State  50:      Singlet-A      5.3514 eV  231.69 nm  f=0.0863  <S**2>=0.000
     162 -> 175       -0.19746
     163 -> 174        0.26249
     164 -> 173        0.18099
     165 -> 182       -0.13286
     166 -> 177       -0.18485
     167 -> 178        0.17395
     168 -> 176        0.22001
     170 -> 177        0.12999
     170 -> 178        0.17297
     170 -> 179        0.16316
     170 -> 181        0.14388

 The electronic state is 1-A.
 Alpha  occ. eigenvalues -- -101.74654 -14.45573 -14.45124 -14.45094 -14.41065
 Alpha  occ. eigenvalues --  -14.41060 -10.34364 -10.34291 -10.34158 -10.34137
 Alpha  occ. eigenvalues --  -10.31924 -10.31912 -10.30413 -10.30409 -10.28841
 Alpha  occ. eigenvalues --  -10.28826 -10.28735 -10.28726 -10.28692 -10.28685
 Alpha  occ. eigenvalues --  -10.24877 -10.24833 -10.24817 -10.24811 -10.24773
 Alpha  occ. eigenvalues --  -10.24767 -10.24493 -10.24489 -10.24416 -10.24413
 Alpha  occ. eigenvalues --  -10.24381 -10.24372 -10.24343 -10.24339 -10.24331
 Alpha  occ. eigenvalues --  -10.24329 -10.24314 -10.24310 -10.24223 -10.24217
 Alpha  occ. eigenvalues --  -10.24202 -10.24199 -10.24180 -10.24177 -10.23611
 Alpha  occ. eigenvalues --  -10.23607 -10.23546 -10.23541 -10.23538 -10.23533
 Alpha  occ. eigenvalues --   -9.61710  -7.32838  -7.31901  -7.31826  -1.03977
 Alpha  occ. eigenvalues --   -1.03101  -1.03046  -0.95456  -0.94419  -0.93955
 Alpha  occ. eigenvalues --   -0.90976  -0.88942  -0.88118  -0.87194  -0.87115
 Alpha  occ. eigenvalues --   -0.87104  -0.86521  -0.83862  -0.82107  -0.80159
 Alpha  occ. eigenvalues --   -0.79991  -0.78647  -0.77310  -0.77222  -0.77205
 Alpha  occ. eigenvalues --   -0.76000  -0.75255  -0.74913  -0.73816  -0.73769
 Alpha  occ. eigenvalues --   -0.73761  -0.70430  -0.69965  -0.67294  -0.65418
 Alpha  occ. eigenvalues --   -0.65216  -0.63188  -0.62888  -0.62788  -0.62701
 Alpha  occ. eigenvalues --   -0.62136  -0.60600  -0.59569  -0.59535  -0.59489
 Alpha  occ. eigenvalues --   -0.59373  -0.58496  -0.56661  -0.55542  -0.54542
 Alpha  occ. eigenvalues --   -0.53925  -0.53518  -0.53498  -0.52715  -0.52175
 Alpha  occ. eigenvalues --   -0.51673  -0.51076  -0.48479  -0.48243  -0.48219
 Alpha  occ. eigenvalues --   -0.47820  -0.47732  -0.47114  -0.47039  -0.46520
 Alpha  occ. eigenvalues --   -0.45749  -0.45447  -0.45292  -0.45274  -0.44920
 Alpha  occ. eigenvalues --   -0.44830  -0.44782  -0.44628  -0.44574  -0.44524
 Alpha  occ. eigenvalues --   -0.44512  -0.43752  -0.43356  -0.43190  -0.43177
 Alpha  occ. eigenvalues --   -0.41761  -0.41242  -0.40793  -0.40576  -0.38989
 Alpha  occ. eigenvalues --   -0.38469  -0.38249  -0.38162  -0.38071  -0.38046
 Alpha  occ. eigenvalues --   -0.38037  -0.37951  -0.37905  -0.37896  -0.37883
 Alpha  occ. eigenvalues --   -0.36887  -0.36007  -0.35845  -0.35750  -0.35587
 Alpha  occ. eigenvalues --   -0.35569  -0.35526  -0.35402  -0.35310  -0.35230
 Alpha  occ. eigenvalues --   -0.34792  -0.31082  -0.30702  -0.30562  -0.30506
 Alpha  occ. eigenvalues --   -0.29516  -0.27830  -0.27825  -0.27724  -0.23932
 Alpha  occ. eigenvalues --   -0.23873  -0.23864  -0.23532  -0.23465  -0.22957
 Alpha virt. eigenvalues --   -0.09361  -0.07628  -0.04072  -0.04062  -0.03945
 Alpha virt. eigenvalues --   -0.00821  -0.00583  -0.00575  -0.00226   0.00616
 Alpha virt. eigenvalues --    0.00935   0.01177   0.01789   0.02140   0.02344

 Mulliken charges:
               1
     1  C   -0.225153
     2  C    0.148066
     3  C   -0.215520
     4  C    0.311318
     5  C   -0.073131
     6  C    0.319805
     7  C   -0.074006
     8  C   -0.075934
     9  N   -0.148221
    10  N   -0.149100
    11  N    0.074134
    12  C    0.007423
    13  C    0.022105
    14  C   -0.172290
    15  C   -0.099095
    16  C   -0.197759
    17  C   -0.112553
    18  C   -0.102317
    19  H    0.162847
    20  C   -0.021322
    21  C   -0.105315
    22  H    0.186764
    23  C   -0.020488
    24  C   -0.137656
    25  H    0.133252
    26  H    0.129557
    27  C   -0.140982
    28  H    0.132605
    29  H    0.129733
    30  H    0.126574
    31  H    0.125860
    32  N    0.063143
    33  C    0.022593
    34  C    0.010134
    35  C   -0.200188
    36  C   -0.114559
    37  C   -0.173238
    38  C   -0.098484
    39  C   -0.103933
    40  H    0.190390
    41  C   -0.020317
    42  C   -0.103828
    43  H    0.164739
    44  C   -0.021700
    45  C   -0.141467
    46  H    0.132568
    47  H    0.129573
    48  C   -0.137671
    49  H    0.133215
    50  H    0.129569
    51  H    0.125863
    52  H    0.126584
    53  N   -0.117396
    54  C    0.032245
    55  C    0.035721
    56  C   -0.219872
    57  C   -0.110677
    58  C   -0.223573
    59  C   -0.111456
    60  C   -0.107335
    61  H    0.217472
    62  C   -0.016067
    63  C   -0.108766
    64  H    0.219073
    65  C   -0.015784
    66  C   -0.143069
    67  H    0.131723
    68  H    0.128997
    69  C   -0.143087
    70  H    0.131565
    71  H    0.128772
    72  H    0.125891
    73  H    0.125854
    74  Cl  -0.012420
 Sum of Mulliken charges =  -0.00000

 Dipole moment (field-independent basis, Debye):
    X=              0.1079    Y=             -3.3995    Z=              0.0131  Tot=              3.4012
 Quadrupole moment (field-independent basis, Debye-Ang):
   XX=           -305.6912   YY=           -286.7969   ZZ=           -263.3207
   XY=             -1.0182   XZ=            -19.2845   YZ=             -0.4470

 Normal termination of Gaussian 09 at Sun Jul  3 04:24:44 2022.
