                         Program Version 5.0.2 -  RELEASE  -
|  1> %maxcore 20000
|  2> %pal
|  3>  nprocs= 4
|  4> end
|  5> ! RI-wPBEPP86   def2-TZVP def2/J def2-TZVP/C RIJCOSX CPCM TightSCF
|  6> %TDDFT
|  7>    NROOTS   60
|  8>    dcorr 1
|  9>    TDA      FALSE
| 10> END
| 11>
| 12> %CPCM
| 13>    SMD          TRUE
| 14>    SMDsolvent   "ACETONITRILE"
| 15>  END
| 16>
| 17>
| 18> * xyz 0 1
| 19> C                  -1.18445100   -0.76873300   -0.18993100
| 20> C                   0.02649200   -1.44498300   -0.02305000
| 21> C                   1.22008300   -0.73649600    0.13327500
| 22> C                   1.19125300    0.66867600    0.14589700
| 23> C                  -0.00827200    1.36669000   -0.03695600
| 24> C                  -1.18865000    0.63605100   -0.22072100
| 25> C                   2.38180800    1.37670100    0.45029300
| 26> C                  -2.39464100    1.31355600   -0.53356600
| 27> N                   3.35098200    1.94967700    0.71396100
| 28> N                  -3.37494100    1.86285600   -0.80625800
| 29> N                  -2.38867400   -1.45614700   -0.35542200
| 30> C                  -2.74074700   -2.26563300   -1.43717600
| 31> C                  -3.48073000   -1.37297800    0.51200200
| 32> C                  -2.00578700   -2.58480600   -2.56878400
| 33> C                  -4.06137900   -2.71741500   -1.24706700
| 34> C                  -3.58968500   -0.69015200    1.71341800
| 35> C                  -4.52962100   -2.15349400   -0.00935100
| 36> C                  -2.61092600   -3.40079600   -3.51160300
| 37> H                  -1.00206200   -2.20759700   -2.71802900
| 38> C                  -4.64524200   -3.53491100   -2.21085800
| 39> C                  -4.79322400   -0.78895500    2.39390700
| 40> H                  -2.76911100   -0.10266700    2.10681400
| 41> C                  -5.72563500   -2.24036000    0.69801000
| 42> C                  -3.91250500   -3.87605300   -3.33469000
| 43> H                  -2.06155900   -3.67033100   -4.40448600
| 44> H                  -5.66016000   -3.89042300   -2.08254300
| 45> C                  -5.85001200   -1.55321300    1.89356200
| 46> H                  -4.91205900   -0.26369500    3.33289700
| 47> H                  -6.54401000   -2.83784300    0.31558800
| 48> H                  -4.35370700   -4.51113600   -4.09186900
| 49> H                  -6.77554900   -1.60940600    2.45167500
| 50> N                   2.43624800   -1.39562000    0.32978300
| 51> C                   3.53891600   -1.32681000   -0.52462700
| 52> C                   2.78959800   -2.14611900    1.45277200
| 53> C                   3.65211500   -0.69919700   -1.75563300
| 54> C                   4.59709500   -2.05800900    0.04831400
| 55> C                   2.04158000   -2.43251300    2.58443700
| 56> C                   4.12292100   -2.57488600    1.30408200
| 57> C                   4.86802500   -0.80374700   -2.41294900
| 58> H                   2.82534500   -0.15125000   -2.19008400
| 59> C                   5.80544100   -2.15179800   -0.63666800
| 60> C                   2.64870800   -3.19041300    3.57326100
| 61> H                   1.02592300   -2.07509300    2.69758100
| 62> C                   4.70838100   -3.33416200    2.31354300
| 63> C                   5.93321600   -1.51988200   -1.86190500
| 64> H                   4.98993500   -0.32194300   -3.37456600
| 65> H                   6.63006300   -2.71273400   -0.21439800
| 66> C                   3.96416400   -3.64119700    3.43971600
| 67> H                   2.08999900   -3.43335900    4.46801300
| 68> H                   5.73319800   -3.67124300    2.21834500
| 69> H                   6.86799700   -1.58233700   -2.40372500
| 70> H                   4.40689300   -4.23053600    4.23217000
| 71> N                  -0.03324400    2.76097600   -0.02488200
| 72> C                  -0.78039500    3.55286300    0.85464600
| 73> C                   0.67886200    3.60433000   -0.88420000
| 74> C                  -1.60131000    3.16383500    1.90243300
| 75> C                  -0.54120200    4.90665200    0.55271900
| 76> C                   1.51528300    3.27632300   -1.94033100
| 77> C                   0.38150600    4.93922100   -0.55009300
| 78> C                  -2.21131400    4.16603000    2.64008300
| 79> H                  -1.76022700    2.12075700    2.14555500
| 80> C                  -1.16432900    5.89360100    1.31174600
| 81> C                   2.08112200    4.32129600   -2.65341200
| 82> H                   1.71766900    2.24672000   -2.20656800
| 83> C                   0.96143300    5.96985900   -1.28453000
| 84> C                  -2.00095900    5.51532300    2.34753000
| 85> H                  -2.86117400    3.89280600    3.46147200
| 86> H                  -0.98994500    6.94009200    1.09420700
| 87> C                   1.81302800    5.65291800   -2.32861400
| 88> H                   2.74161700    4.09608600   -3.48082700
| 89> H                   0.74262500    7.00237200   -1.04187500
| 90> H                  -2.49373800    6.27176400    2.94436600
| 91> H                   2.27262700    6.44382700   -2.90695300
| 92> Cl                  0.04745500   -3.15837000   -0.00039000
| 93> *
| 94>
| 95>
| 96>                          ****END OF INPUT****

CARTESIAN COORDINATES (ANGSTROEM)
---------------------------------
  C     -1.184451   -0.768733   -0.189931
  C      0.026492   -1.444983   -0.023050
  C      1.220083   -0.736496    0.133275
  C      1.191253    0.668676    0.145897
  C     -0.008272    1.366690   -0.036956
  C     -1.188650    0.636051   -0.220721
  C      2.381808    1.376701    0.450293
  C     -2.394641    1.313556   -0.533566
  N      3.350982    1.949677    0.713961
  N     -3.374941    1.862856   -0.806258
  N     -2.388674   -1.456147   -0.355422
  C     -2.740747   -2.265633   -1.437176
  C     -3.480730   -1.372978    0.512002
  C     -2.005787   -2.584806   -2.568784
  C     -4.061379   -2.717415   -1.247067
  C     -3.589685   -0.690152    1.713418
  C     -4.529621   -2.153494   -0.009351
  C     -2.610926   -3.400796   -3.511603
  H     -1.002062   -2.207597   -2.718029
  C     -4.645242   -3.534911   -2.210858
  C     -4.793224   -0.788955    2.393907
  H     -2.769111   -0.102667    2.106814
  C     -5.725635   -2.240360    0.698010
  C     -3.912505   -3.876053   -3.334690
  H     -2.061559   -3.670331   -4.404486
  H     -5.660160   -3.890423   -2.082543
  C     -5.850012   -1.553213    1.893562
  H     -4.912059   -0.263695    3.332897
  H     -6.544010   -2.837843    0.315588
  H     -4.353707   -4.511136   -4.091869
  H     -6.775549   -1.609406    2.451675
  N      2.436248   -1.395620    0.329783
  C      3.538916   -1.326810   -0.524627
  C      2.789598   -2.146119    1.452772
  C      3.652115   -0.699197   -1.755633
  C      4.597095   -2.058009    0.048314
  C      2.041580   -2.432513    2.584437
  C      4.122921   -2.574886    1.304082
  C      4.868025   -0.803747   -2.412949
  H      2.825345   -0.151250   -2.190084
  C      5.805441   -2.151798   -0.636668
  C      2.648708   -3.190413    3.573261
  H      1.025923   -2.075093    2.697581
  C      4.708381   -3.334162    2.313543
  C      5.933216   -1.519882   -1.861905
  H      4.989935   -0.321943   -3.374566
  H      6.630063   -2.712734   -0.214398
  C      3.964164   -3.641197    3.439716
  H      2.089999   -3.433359    4.468013
  H      5.733198   -3.671243    2.218345
  H      6.867997   -1.582337   -2.403725
  H      4.406893   -4.230536    4.232170
  N     -0.033244    2.760976   -0.024882
  C     -0.780395    3.552863    0.854646
  C      0.678862    3.604330   -0.884200
  C     -1.601310    3.163835    1.902433
  C     -0.541202    4.906652    0.552719
  C      1.515283    3.276323   -1.940331
  C      0.381506    4.939221   -0.550093
  C     -2.211314    4.166030    2.640083
  H     -1.760227    2.120757    2.145555
  C     -1.164329    5.893601    1.311746
  C      2.081122    4.321296   -2.653412
  H      1.717669    2.246720   -2.206568
  C      0.961433    5.969859   -1.284530
  C     -2.000959    5.515323    2.347530
  H     -2.861174    3.892806    3.461472
  H     -0.989945    6.940092    1.094207
  C      1.813028    5.652918   -2.328614
  H      2.741617    4.096086   -3.480827
  H      0.742625    7.002372   -1.041875
  H     -2.493738    6.271764    2.944366
  H      2.272627    6.443827   -2.906953
  Cl     0.047455   -3.158370   -0.000390

 Total Charge           Charge          ....    0
 Multiplicity           Mult            ....    1
 Number of Electrons    NEL             ....  340
 Basis Dimension        Dim             .... 1700

ORBITAL ENERGIES
----------------

  NO   OCC          E(Eh)            E(eV)
   0   2.0000    -103.662138     -2820.7902
   1   2.0000     -15.202711      -413.6868
   2   2.0000     -15.199782      -413.6071
   3   2.0000     -15.199290      -413.5937
   4   2.0000     -15.163040      -412.6073
   5   2.0000     -15.162841      -412.6019
   6   2.0000     -10.984905      -298.9145
   7   2.0000     -10.983115      -298.8658
   8   2.0000     -10.982991      -298.8624
   9   2.0000     -10.975271      -298.6523
  10   2.0000     -10.951141      -297.9957
  11   2.0000     -10.950877      -297.9885
  12   2.0000     -10.939857      -297.6886
  13   2.0000     -10.939716      -297.6848
  14   2.0000     -10.922360      -297.2125
  15   2.0000     -10.922330      -297.2117
  16   2.0000     -10.921484      -297.1887
  17   2.0000     -10.921395      -297.1863
  18   2.0000     -10.921367      -297.1855
  19   2.0000     -10.921097      -297.1782
  20   2.0000     -10.879968      -296.0590
  21   2.0000     -10.879444      -296.0447
  22   2.0000     -10.879326      -296.0415
  23   2.0000     -10.879232      -296.0390
  24   2.0000     -10.878711      -296.0248
  25   2.0000     -10.878588      -296.0214
  26   2.0000     -10.874472      -295.9094
  27   2.0000     -10.874445      -295.9087
  28   2.0000     -10.874408      -295.9077
  29   2.0000     -10.874357      -295.9063
  30   2.0000     -10.874285      -295.9043
  31   2.0000     -10.874216      -295.9025
  32   2.0000     -10.874080      -295.8988
  33   2.0000     -10.874074      -295.8986
  34   2.0000     -10.873757      -295.8900
  35   2.0000     -10.873673      -295.8877
  36   2.0000     -10.873473      -295.8823
  37   2.0000     -10.873367      -295.8794
  38   2.0000     -10.872259      -295.8492
  39   2.0000     -10.872257      -295.8491
  40   2.0000     -10.872236      -295.8486
  41   2.0000     -10.872177      -295.8470
  42   2.0000     -10.871849      -295.8381
  43   2.0000     -10.871824      -295.8374
  44   2.0000     -10.864597      -295.6407
  45   2.0000     -10.864534      -295.6390
  46   2.0000     -10.864301      -295.6327
  47   2.0000     -10.864195      -295.6298
  48   2.0000     -10.864080      -295.6267
  49   2.0000     -10.864008      -295.6247
  50   2.0000     -10.227610      -278.3074
  51   2.0000      -7.799163      -212.2260
  52   2.0000      -7.794520      -212.0997
  53   2.0000      -7.794316      -212.0941
  54   2.0000      -1.281159       -34.8621
  55   2.0000      -1.270699       -34.5775
  56   2.0000      -1.270137       -34.5622
  57   2.0000      -1.185135       -32.2492
  58   2.0000      -1.179295       -32.0903
  59   2.0000      -1.166219       -31.7344
  60   2.0000      -1.125480       -30.6259
  61   2.0000      -1.111867       -30.2554
  62   2.0000      -1.098447       -29.8903
  63   2.0000      -1.094080       -29.7714
  64   2.0000      -1.093505       -29.7558
  65   2.0000      -1.092749       -29.7352
  66   2.0000      -1.082624       -29.4597
  67   2.0000      -1.049565       -28.5601
  68   2.0000      -1.028143       -27.9772
  69   2.0000      -1.011218       -27.5166
  70   2.0000      -1.008240       -27.4356
  71   2.0000      -0.991261       -26.9736
  72   2.0000      -0.979336       -26.6491
  73   2.0000      -0.978614       -26.6294
  74   2.0000      -0.978244       -26.6194
  75   2.0000      -0.960669       -26.1411
  76   2.0000      -0.953314       -25.9410
  77   2.0000      -0.943689       -25.6791
  78   2.0000      -0.938797       -25.5460
  79   2.0000      -0.938442       -25.5363
  80   2.0000      -0.938172       -25.5290
  81   2.0000      -0.890650       -24.2358
  82   2.0000      -0.881682       -23.9918
  83   2.0000      -0.851169       -23.1615
  84   2.0000      -0.832014       -22.6402
  85   2.0000      -0.831364       -22.6226
  86   2.0000      -0.806104       -21.9352
  87   2.0000      -0.802688       -21.8422
  88   2.0000      -0.799817       -21.7641
  89   2.0000      -0.799331       -21.7509
  90   2.0000      -0.788746       -21.4629
  91   2.0000      -0.773646       -21.0520
  92   2.0000      -0.764955       -20.8155
  93   2.0000      -0.764421       -20.8010
  94   2.0000      -0.763802       -20.7841
  95   2.0000      -0.755320       -20.5533
  96   2.0000      -0.736627       -20.0446
  97   2.0000      -0.724423       -19.7126
  98   2.0000      -0.707253       -19.2453
  99   2.0000      -0.695234       -18.9183
 100   2.0000      -0.692246       -18.8370
 101   2.0000      -0.686607       -18.6835
 102   2.0000      -0.685061       -18.6415
 103   2.0000      -0.678378       -18.4596
 104   2.0000      -0.674969       -18.3668
 105   2.0000      -0.666166       -18.1273
 106   2.0000      -0.656431       -17.8624
 107   2.0000      -0.627199       -17.0670
 108   2.0000      -0.624381       -16.9903
 109   2.0000      -0.622483       -16.9386
 110   2.0000      -0.618231       -16.8229
 111   2.0000      -0.614942       -16.7334
 112   2.0000      -0.612615       -16.6701
 113   2.0000      -0.612345       -16.6628
 114   2.0000      -0.609590       -16.5878
 115   2.0000      -0.596063       -16.2197
 116   2.0000      -0.594526       -16.1779
 117   2.0000      -0.591805       -16.1038
 118   2.0000      -0.590603       -16.0711
 119   2.0000      -0.586829       -15.9684
 120   2.0000      -0.585783       -15.9400
 121   2.0000      -0.583057       -15.8658
 122   2.0000      -0.582509       -15.8509
 123   2.0000      -0.581880       -15.8338
 124   2.0000      -0.579120       -15.7587
 125   2.0000      -0.577934       -15.7264
 126   2.0000      -0.569775       -15.5044
 127   2.0000      -0.567639       -15.4463
 128   2.0000      -0.566877       -15.4255
 129   2.0000      -0.566595       -15.4178
 130   2.0000      -0.559964       -15.2374
 131   2.0000      -0.558176       -15.1887
 132   2.0000      -0.535199       -14.5635
 133   2.0000      -0.531518       -14.4634
 134   2.0000      -0.509524       -13.8648
 135   2.0000      -0.508319       -13.8321
 136   2.0000      -0.507976       -13.8227
 137   2.0000      -0.507897       -13.8206
 138   2.0000      -0.507795       -13.8178
 139   2.0000      -0.507003       -13.7963
 140   2.0000      -0.506097       -13.7716
 141   2.0000      -0.503248       -13.6941
 142   2.0000      -0.499449       -13.5907
 143   2.0000      -0.489379       -13.3167
 144   2.0000      -0.489003       -13.3064
 145   2.0000      -0.485311       -13.2060
 146   2.0000      -0.480760       -13.0821
 147   2.0000      -0.479391       -13.0449
 148   2.0000      -0.478375       -13.0172
 149   2.0000      -0.478119       -13.0103
 150   2.0000      -0.476967       -12.9789
 151   2.0000      -0.476593       -12.9688
 152   2.0000      -0.474450       -12.9104
 153   2.0000      -0.472969       -12.8701
 154   2.0000      -0.465937       -12.6788
 155   2.0000      -0.461752       -12.5649
 156   2.0000      -0.403801       -10.9880
 157   2.0000      -0.402674       -10.9573
 158   2.0000      -0.399930       -10.8826
 159   2.0000      -0.390281       -10.6201
 160   2.0000      -0.379870       -10.3368
 161   2.0000      -0.365173        -9.9369
 162   2.0000      -0.364263        -9.9121
 163   2.0000      -0.362060        -9.8522
 164   2.0000      -0.313625        -8.5342
 165   2.0000      -0.313039        -8.5182
 166   2.0000      -0.312022        -8.4905
 167   2.0000      -0.311911        -8.4875
 168   2.0000      -0.311668        -8.4809
 169   2.0000      -0.306569        -8.3422
 170   0.0000      -0.013596        -0.3700
 171   0.0000       0.008191         0.2229
 172   0.0000       0.037553         1.0219
 173   0.0000       0.037660         1.0248
 174   0.0000       0.039697         1.0802

MULLIKEN ATOMIC CHARGES
-----------------------
   0 C :    0.143738
   1 C :   -0.186598
   2 C :    0.121499
   3 C :    0.212703
   4 C :    0.085129
   5 C :    0.188756
   6 C :   -0.158672
   7 C :   -0.154831
   8 N :   -0.162527
   9 N :   -0.161706
  10 N :    0.056551
  11 C :    0.118942
  12 C :    0.120020
  13 C :   -0.299123
  14 C :   -0.026355
  15 C :   -0.312504
  16 C :   -0.021921
  17 C :   -0.148175
  18 H :    0.207797
  19 C :   -0.230316
  20 C :   -0.157250
  21 H :    0.218917
  22 C :   -0.226430
  23 C :   -0.202265
  24 H :    0.188995
  25 H :    0.191164
  26 C :   -0.202218
  27 H :    0.188964
  28 H :    0.191780
  29 H :    0.185489
  30 H :    0.184917
  31 N :    0.057396
  32 C :    0.114099
  33 C :    0.118393
  34 C :   -0.313327
  35 C :   -0.015791
  36 C :   -0.298034
  37 C :   -0.026050
  38 C :   -0.150520
  39 H :    0.213685
  40 C :   -0.227842
  41 C :   -0.151131
  42 H :    0.208094
  43 C :   -0.232080
  44 C :   -0.201418
  45 H :    0.189195
  46 H :    0.191368
  47 C :   -0.200243
  48 H :    0.188935
  49 H :    0.191171
  50 H :    0.185085
  51 H :    0.185461
  52 N :    0.059344
  53 C :    0.123258
  54 C :    0.126195
  55 C :   -0.307676
  56 C :   -0.032008
  57 C :   -0.314061
  58 C :   -0.033584
  59 C :   -0.145242
  60 H :    0.204903
  61 C :   -0.221293
  62 C :   -0.140363
  63 H :    0.204875
  64 C :   -0.220316
  65 C :   -0.208589
  66 H :    0.188775
  67 H :    0.191534
  68 C :   -0.208172
  69 H :    0.188860
  70 H :    0.191193
  71 H :    0.184362
  72 H :    0.184744
  73 Cl:    0.002346
Sum of atomic charges:   -0.0000000

LOEWDIN ATOMIC CHARGES
----------------------
   0 C :   -0.087242
   1 C :   -0.350386
   2 C :   -0.087173
   3 C :   -0.064315
   4 C :   -0.042974
   5 C :   -0.065441
   6 C :   -0.115081
   7 C :   -0.115879
   8 N :    0.036610
   9 N :    0.036738
  10 N :    0.307654
  11 C :   -0.125463
  12 C :   -0.117881
  13 C :   -0.133915
  14 C :   -0.090237
  15 C :   -0.123712
  16 C :   -0.089962
  17 C :   -0.143007
  18 H :    0.163118
  19 C :   -0.100719
  20 C :   -0.141727
  21 H :    0.165179
  22 C :   -0.099469
  23 C :   -0.164114
  24 H :    0.159227
  25 H :    0.162551
  26 C :   -0.163370
  27 H :    0.159397
  28 H :    0.162629
  29 H :    0.156491
  30 H :    0.156583
  31 N :    0.306897
  32 C :   -0.118394
  33 C :   -0.125518
  34 C :   -0.124072
  35 C :   -0.090162
  36 C :   -0.133781
  37 C :   -0.090371
  38 C :   -0.141908
  39 H :    0.165317
  40 C :   -0.099663
  41 C :   -0.142969
  42 H :    0.163222
  43 C :   -0.100760
  44 C :   -0.163679
  45 H :    0.159343
  46 H :    0.162619
  47 C :   -0.164272
  48 H :    0.159211
  49 H :    0.162513
  50 H :    0.156548
  51 H :    0.156452
  52 N :    0.317054
  53 C :   -0.113861
  54 C :   -0.114500
  55 C :   -0.122651
  56 C :   -0.088834
  57 C :   -0.122937
  58 C :   -0.088854
  59 C :   -0.141176
  60 H :    0.164975
  61 C :   -0.098959
  62 C :   -0.141245
  63 H :    0.165326
  64 C :   -0.099012
  65 C :   -0.161963
  66 H :    0.159598
  67 H :    0.162792
  68 C :   -0.162070
  69 H :    0.159560
  70 H :    0.162791
  71 H :    0.156759
  72 H :    0.156734
  73 Cl:    0.509793

  Mayer bond orders larger than 0.100000
B(  0-C ,  1-C ) :   1.2814 B(  0-C ,  5-C ) :   1.3342 B(  0-C , 10-N ) :   1.0319
B(  0-C , 73-Cl) :  -0.1042 B(  1-C ,  2-C ) :   1.2819 B(  1-C , 73-Cl) :   1.3785
B(  2-C ,  3-C ) :   1.3503 B(  2-C , 31-N ) :   1.0196 B(  2-C , 73-Cl) :  -0.1076
B(  3-C ,  4-C ) :   1.3992 B(  3-C ,  6-C ) :   0.9264 B(  4-C ,  5-C ) :   1.3754
B(  4-C , 52-N ) :   1.1066 B(  5-C ,  7-C ) :   0.9309 B(  6-C ,  8-N ) :   2.9705
B(  7-C ,  9-N ) :   2.9714 B( 10-N , 11-C ) :   1.0652 B( 10-N , 12-C ) :   1.0612
B( 11-C , 13-C ) :   1.3738 B( 11-C , 14-C ) :   1.3533 B( 12-C , 15-C ) :   1.3909
B( 12-C , 16-C ) :   1.3371 B( 13-C , 17-C ) :   1.4450 B( 13-C , 18-H ) :   0.9499
B( 14-C , 16-C ) :   1.0589 B( 14-C , 19-C ) :   1.3277 B( 15-C , 20-C ) :   1.4439
B( 15-C , 21-H ) :   0.9434 B( 16-C , 22-C ) :   1.3277 B( 17-C , 23-C ) :   1.3555
B( 17-C , 24-H ) :   0.9703 B( 19-C , 23-C ) :   1.4699 B( 19-C , 25-H ) :   0.9679
B( 20-C , 26-C ) :   1.3506 B( 20-C , 27-H ) :   0.9711 B( 22-C , 26-C ) :   1.4638
B( 22-C , 28-H ) :   0.9675 B( 23-C , 29-H ) :   0.9788 B( 26-C , 30-H ) :   0.9821
B( 31-N , 32-C ) :   1.0638 B( 31-N , 33-C ) :   1.0622 B( 32-C , 34-C ) :   1.3843
B( 32-C , 35-C ) :   1.3310 B( 33-C , 36-C ) :   1.3754 B( 33-C , 37-C ) :   1.3558
B( 34-C , 38-C ) :   1.4410 B( 34-C , 39-H ) :   0.9504 B( 35-C , 37-C ) :   1.0607
B( 35-C , 40-C ) :   1.3276 B( 36-C , 41-C ) :   1.4449 B( 36-C , 42-H ) :   0.9500
B( 37-C , 43-C ) :   1.3270 B( 38-C , 44-C ) :   1.3527 B( 38-C , 45-H ) :   0.9706
B( 40-C , 44-C ) :   1.4643 B( 40-C , 46-H ) :   0.9678 B( 41-C , 47-C ) :   1.3556
B( 41-C , 48-H ) :   0.9703 B( 43-C , 47-C ) :   1.4698 B( 43-C , 49-H ) :   0.9679
B( 44-C , 50-H ) :   0.9811 B( 47-C , 51-H ) :   0.9787 B( 52-N , 53-C ) :   1.0576
B( 52-N , 54-C ) :   1.0598 B( 53-C , 55-C ) :   1.4012 B( 53-C , 56-C ) :   1.3464
B( 54-C , 57-C ) :   1.3920 B( 54-C , 58-C ) :   1.3441 B( 55-C , 59-C ) :   1.4443
B( 55-C , 60-H ) :   0.9482 B( 56-C , 58-C ) :   1.0657 B( 56-C , 61-C ) :   1.3189
B( 57-C , 62-C ) :   1.4403 B( 57-C , 63-H ) :   0.9525 B( 58-C , 64-C ) :   1.3217
B( 59-C , 65-C ) :   1.3423 B( 59-C , 66-H ) :   0.9727 B( 61-C , 65-C ) :   1.4577
B( 61-C , 67-H ) :   0.9685 B( 62-C , 68-C ) :   1.3450 B( 62-C , 69-H ) :   0.9723
B( 64-C , 68-C ) :   1.4593 B( 64-C , 70-H ) :   0.9689 B( 65-C , 71-H ) :   0.9835
B( 68-C , 72-H ) :   0.9815

MP2 TOTAL ENERGY:    -2424.143305188 Eh

-----------------------------------------------------------------------------
         ABSORPTION SPECTRUM VIA TRANSITION ELECTRIC DIPOLE MOMENTS
-----------------------------------------------------------------------------
State   Energy    Wavelength  fosc         T2        TX        TY        TZ
        (cm-1)      (nm)                 (au**2)    (au)      (au)      (au)
-----------------------------------------------------------------------------
   1   25605.3    390.5   0.193513473   2.48804  -1.54512  -0.08218  -0.30640
   2   28455.5    351.4   0.048962918   0.56647   0.03938  -0.75134   0.02018
   3   29521.4    338.7   0.262676851   2.92928  -0.05723   1.71055  -0.00431
   4   28261.9    353.8   0.014195767   0.16536  -0.39175  -0.08729   0.06540
   5   34460.2    290.2   0.166243431   1.58819  -0.97076   0.08523  -0.79909
   6   35463.7    282.0   0.157780762   1.46469   0.09271   1.20652   0.02004
   7   38777.7    257.9   0.096766898   0.82153   0.06604  -0.10316  -0.89807
   8   37779.7    264.7   0.024046376   0.20954   0.04554   0.44989  -0.07116
   9   34512.4    289.8   0.022961586   0.21903  -0.08493   0.44022   0.13424
  10   38839.7    257.5   0.731944131   6.20409  -1.34199  -0.02328   2.09824
  11   31305.5    319.4   0.013169209   0.13849  -0.01911  -0.08390  -0.36206
  12   31356.3    318.9   0.004994376   0.05244  -0.00506  -0.20416   0.10359
  13   32935.6    303.6   0.139436998   1.39376   1.15830   0.01354  -0.22787
  14   35078.8    285.1   0.041101614   0.38574   0.56367   0.05353  -0.25524
  15   32000.3    312.5   0.007036287   0.07239  -0.11848   0.23577   0.05258
  16   32558.6    307.1   0.000249685   0.00252   0.04472  -0.01696  -0.01539
  17   37186.7    268.9   0.318074959   2.81590   1.64911  -0.07621   0.30089
  18   42148.9    237.3   0.110145694   0.86031  -0.10291  -0.92180  -0.00273
  19   42030.3    237.9   0.047655759   0.37327   0.29458   0.34421  -0.40990
  20   41961.6    238.3   0.117484170   0.92173  -0.53759   0.21067   0.76703
  21   42323.3    236.3   0.167895065   1.30597   0.83124   0.04514  -0.78292
  22   37336.2    267.8   0.029280884   0.25818   0.03738  -0.49122   0.12447
  23   37426.8    267.2   0.079849766   0.70237   0.17655   0.11309   0.81143
  24   46017.4    217.3   0.684926781   4.90001  -1.04399  -1.76599  -0.83150
  25   46195.9    216.5   0.620036054   4.41865   0.80320  -1.83503   0.63731
  26   46198.8    216.5   0.272069535   1.93877   1.32081  -0.32780  -0.29456
  27   45286.2    220.8   0.173725859   1.26292   0.19011   1.09854  -0.14134
  28   47320.4    211.3   0.233995649   1.62793  -0.21091   1.25762   0.04271
  29   45494.4    219.8   2.183015206  15.79699  -1.53101  -0.02514   3.66775
  30   46895.1    213.2   0.395858006   2.77899   0.36540  -1.61323   0.20727
  31   45237.7    221.1   0.563822659   4.10315  -1.97481  -0.43406  -0.12189
  32   46317.1    215.9   0.147516919   1.04852  -0.22618   0.99530   0.08209
  33   45456.0    220.0   0.669254274   4.84703  -1.93092  -0.02162   1.05740
  34   48964.6    204.2   0.171665316   1.15419  -0.81643  -0.07499  -0.69427
  35   48503.7    206.2   0.075550622   0.51279  -0.00941   0.71579  -0.01847
  36   49450.3    202.2   0.000321826   0.00214   0.01906  -0.03240  -0.02701
  37   44051.1    227.0   0.002664848   0.01992   0.00181  -0.13992  -0.01826
  38   49955.6    200.2   0.023573448   0.15535  -0.29798   0.01537   0.25753
  39   51181.8    195.4   0.023111692   0.14866  -0.03201   0.37353   0.09005
  40   51356.2    194.7   0.038270686   0.24533  -0.15618  -0.12868   0.45208
  41   50994.5    196.1   0.046242460   0.29853  -0.04828  -0.54075   0.06158
  42   51180.4    195.4   0.309777931   1.99261   0.75324  -0.07177  -1.19168
  43   49963.9    200.1   0.247377512   1.62997   1.01936   0.00920  -0.76863
  44   51913.8    192.6   0.011718900   0.07432   0.25468  -0.00170  -0.09722
  45   54742.9    182.7   0.000894749   0.00538   0.05778   0.04235   0.01577
  46   52504.5    190.5   0.122158736   0.76596   0.82677  -0.00389   0.28703
  47   53487.0    187.0   0.086884793   0.53478  -0.00641  -0.73125   0.00048
  48   55578.3    179.9   0.002842150   0.01684   0.10715  -0.02958   0.06693
  49   47481.9    210.6   0.005576655   0.03867   0.02114   0.19549   0.00196
  50   54105.1    184.8   0.000947986   0.00577   0.01076   0.07083   0.02521
  51   51428.9    194.4   0.006131234   0.03925   0.13709  -0.00797   0.14280
  52   47641.7    209.9   0.037505522   0.25917   0.50803   0.00210   0.03271
  53   48033.8    208.2   0.006473562   0.04437  -0.17980  -0.00129   0.10972
  54   47680.4    209.7   0.002653120   0.01832   0.01790   0.13395  -0.00737
  55   49905.9    200.4   0.000463586   0.00306  -0.00056   0.04803   0.02740
  56   52336.1    191.1   0.001974456   0.01242   0.06529  -0.05390  -0.07247
  57   48807.7    204.9   0.021244619   0.14330   0.03715   0.37562   0.02868
  58   50689.0    197.3   0.006749896   0.04384  -0.16923   0.09590  -0.07748
  59   56199.1    177.9   0.003003597   0.01759  -0.04286   0.12546   0.00431
  60   51482.7    194.2   0.009672454   0.06185   0.24755   0.02373   0.00285

FINAL SINGLE POINT ENERGY     -2419.901625210810

DIPOLE MOMENT
-------------
                                X             Y             Z
Electronic contribution:      0.19788      -7.50936      -0.32711
Nuclear contribution   :     -0.20118       6.09592       0.34197
                        -----------------------------------------
Total Dipole Moment    :     -0.00330      -1.41344       0.01487
                        -----------------------------------------
Magnitude (a.u.)       :      1.41353
Magnitude (Debye)      :      3.59290

Rotational constants in cm-1:     0.002146     0.002013     0.001365
Rotational constants in MHz :    64.345159    60.335456    40.912206

                             ****ORCA TERMINATED NORMALLY****
TOTAL RUN TIME: 5 days 6 hours 3 minutes 10 seconds 700 msec
