                         Program Version 5.0.2 -  RELEASE  -
|  1> %maxcore 24000
|  2> %pal
|  3>  nprocs= 8
|  4> end
|  5> ! RI-B2PLYP D3BJ def2-TZVP def2/J def2-TZVP/C RIJCOSX CPCM TightSCF
|  6> %TDDFT DCORR 4
|  7>    NROOTS   60
|  8>   TDA      FALSE
|  9> END
| 10>
| 11>  %CPCM
| 12>    SMD          TRUE
| 13>    SMDsolvent   "ACETONITRILE"
| 14>  END
| 15>
| 16>
| 17> * xyz 0 1
| 18> C                  -1.18445100   -0.76873300   -0.18993100
| 19> C                   0.02649200   -1.44498300   -0.02305000
| 20> C                   1.22008300   -0.73649600    0.13327500
| 21> C                   1.19125300    0.66867600    0.14589700
| 22> C                  -0.00827200    1.36669000   -0.03695600
| 23> C                  -1.18865000    0.63605100   -0.22072100
| 24> C                   2.38180800    1.37670100    0.45029300
| 25> C                  -2.39464100    1.31355600   -0.53356600
| 26> N                   3.35098200    1.94967700    0.71396100
| 27> N                  -3.37494100    1.86285600   -0.80625800
| 28> N                  -2.38867400   -1.45614700   -0.35542200
| 29> C                  -2.74074700   -2.26563300   -1.43717600
| 30> C                  -3.48073000   -1.37297800    0.51200200
| 31> C                  -2.00578700   -2.58480600   -2.56878400
| 32> C                  -4.06137900   -2.71741500   -1.24706700
| 33> C                  -3.58968500   -0.69015200    1.71341800
| 34> C                  -4.52962100   -2.15349400   -0.00935100
| 35> C                  -2.61092600   -3.40079600   -3.51160300
| 36> H                  -1.00206200   -2.20759700   -2.71802900
| 37> C                  -4.64524200   -3.53491100   -2.21085800
| 38> C                  -4.79322400   -0.78895500    2.39390700
| 39> H                  -2.76911100   -0.10266700    2.10681400
| 40> C                  -5.72563500   -2.24036000    0.69801000
| 41> C                  -3.91250500   -3.87605300   -3.33469000
| 42> H                  -2.06155900   -3.67033100   -4.40448600
| 43> H                  -5.66016000   -3.89042300   -2.08254300
| 44> C                  -5.85001200   -1.55321300    1.89356200
| 45> H                  -4.91205900   -0.26369500    3.33289700
| 46> H                  -6.54401000   -2.83784300    0.31558800
| 47> H                  -4.35370700   -4.51113600   -4.09186900
| 48> H                  -6.77554900   -1.60940600    2.45167500
| 49> N                   2.43624800   -1.39562000    0.32978300
| 50> C                   3.53891600   -1.32681000   -0.52462700
| 51> C                   2.78959800   -2.14611900    1.45277200
| 52> C                   3.65211500   -0.69919700   -1.75563300
| 53> C                   4.59709500   -2.05800900    0.04831400
| 54> C                   2.04158000   -2.43251300    2.58443700
| 55> C                   4.12292100   -2.57488600    1.30408200
| 56> C                   4.86802500   -0.80374700   -2.41294900
| 57> H                   2.82534500   -0.15125000   -2.19008400
| 58> C                   5.80544100   -2.15179800   -0.63666800
| 59> C                   2.64870800   -3.19041300    3.57326100
| 60> H                   1.02592300   -2.07509300    2.69758100
| 61> C                   4.70838100   -3.33416200    2.31354300
| 62> C                   5.93321600   -1.51988200   -1.86190500
| 63> H                   4.98993500   -0.32194300   -3.37456600
| 64> H                   6.63006300   -2.71273400   -0.21439800
| 65> C                   3.96416400   -3.64119700    3.43971600
| 66> H                   2.08999900   -3.43335900    4.46801300
| 67> H                   5.73319800   -3.67124300    2.21834500
| 68> H                   6.86799700   -1.58233700   -2.40372500
| 69> H                   4.40689300   -4.23053600    4.23217000
| 70> N                  -0.03324400    2.76097600   -0.02488200
| 71> C                  -0.78039500    3.55286300    0.85464600
| 72> C                   0.67886200    3.60433000   -0.88420000
| 73> C                  -1.60131000    3.16383500    1.90243300
| 74> C                  -0.54120200    4.90665200    0.55271900
| 75> C                   1.51528300    3.27632300   -1.94033100
| 76> C                   0.38150600    4.93922100   -0.55009300
| 77> C                  -2.21131400    4.16603000    2.64008300
| 78> H                  -1.76022700    2.12075700    2.14555500
| 79> C                  -1.16432900    5.89360100    1.31174600
| 80> C                   2.08112200    4.32129600   -2.65341200
| 81> H                   1.71766900    2.24672000   -2.20656800
| 82> C                   0.96143300    5.96985900   -1.28453000
| 83> C                  -2.00095900    5.51532300    2.34753000
| 84> H                  -2.86117400    3.89280600    3.46147200
| 85> H                  -0.98994500    6.94009200    1.09420700
| 86> C                   1.81302800    5.65291800   -2.32861400
| 87> H                   2.74161700    4.09608600   -3.48082700
| 88> H                   0.74262500    7.00237200   -1.04187500
| 89> H                  -2.49373800    6.27176400    2.94436600
| 90> H                   2.27262700    6.44382700   -2.90695300
| 91> Cl                  0.04745500   -3.15837000   -0.00039000
| 92> *
| 93>
| 94>
| 95>                          ****END OF INPUT****

CARTESIAN COORDINATES (ANGSTROEM)
---------------------------------
  C     -1.184451   -0.768733   -0.189931
  C      0.026492   -1.444983   -0.023050
  C      1.220083   -0.736496    0.133275
  C      1.191253    0.668676    0.145897
  C     -0.008272    1.366690   -0.036956
  C     -1.188650    0.636051   -0.220721
  C      2.381808    1.376701    0.450293
  C     -2.394641    1.313556   -0.533566
  N      3.350982    1.949677    0.713961
  N     -3.374941    1.862856   -0.806258
  N     -2.388674   -1.456147   -0.355422
  C     -2.740747   -2.265633   -1.437176
  C     -3.480730   -1.372978    0.512002
  C     -2.005787   -2.584806   -2.568784
  C     -4.061379   -2.717415   -1.247067
  C     -3.589685   -0.690152    1.713418
  C     -4.529621   -2.153494   -0.009351
  C     -2.610926   -3.400796   -3.511603
  H     -1.002062   -2.207597   -2.718029
  C     -4.645242   -3.534911   -2.210858
  C     -4.793224   -0.788955    2.393907
  H     -2.769111   -0.102667    2.106814
  C     -5.725635   -2.240360    0.698010
  C     -3.912505   -3.876053   -3.334690
  H     -2.061559   -3.670331   -4.404486
  H     -5.660160   -3.890423   -2.082543
  C     -5.850012   -1.553213    1.893562
  H     -4.912059   -0.263695    3.332897
  H     -6.544010   -2.837843    0.315588
  H     -4.353707   -4.511136   -4.091869
  H     -6.775549   -1.609406    2.451675
  N      2.436248   -1.395620    0.329783
  C      3.538916   -1.326810   -0.524627
  C      2.789598   -2.146119    1.452772
  C      3.652115   -0.699197   -1.755633
  C      4.597095   -2.058009    0.048314
  C      2.041580   -2.432513    2.584437
  C      4.122921   -2.574886    1.304082
  C      4.868025   -0.803747   -2.412949
  H      2.825345   -0.151250   -2.190084
  C      5.805441   -2.151798   -0.636668
  C      2.648708   -3.190413    3.573261
  H      1.025923   -2.075093    2.697581
  C      4.708381   -3.334162    2.313543
  C      5.933216   -1.519882   -1.861905
  H      4.989935   -0.321943   -3.374566
  H      6.630063   -2.712734   -0.214398
  C      3.964164   -3.641197    3.439716
  H      2.089999   -3.433359    4.468013
  H      5.733198   -3.671243    2.218345
  H      6.867997   -1.582337   -2.403725
  H      4.406893   -4.230536    4.232170
  N     -0.033244    2.760976   -0.024882
  C     -0.780395    3.552863    0.854646
  C      0.678862    3.604330   -0.884200
  C     -1.601310    3.163835    1.902433
  C     -0.541202    4.906652    0.552719
  C      1.515283    3.276323   -1.940331
  C      0.381506    4.939221   -0.550093
  C     -2.211314    4.166030    2.640083
  H     -1.760227    2.120757    2.145555
  C     -1.164329    5.893601    1.311746
  C      2.081122    4.321296   -2.653412
  H      1.717669    2.246720   -2.206568
  C      0.961433    5.969859   -1.284530
  C     -2.000959    5.515323    2.347530
  H     -2.861174    3.892806    3.461472
  H     -0.989945    6.940092    1.094207
  C      1.813028    5.652918   -2.328614
  H      2.741617    4.096086   -3.480827
  H      0.742625    7.002372   -1.041875
  H     -2.493738    6.271764    2.944366
  H      2.272627    6.443827   -2.906953
  Cl     0.047455   -3.158370   -0.000390

 Total Charge           Charge          ....    0
 Multiplicity           Mult            ....    1
 Number of Electrons    NEL             ....  340
 Basis Dimension        Dim             .... 1700

ORBITAL ENERGIES
----------------

  NO   OCC          E(Eh)            E(eV)
   0   2.0000    -102.936595     -2801.0472
   1   2.0000     -14.905181      -405.5906
   2   2.0000     -14.902332      -405.5131
   3   2.0000     -14.901825      -405.4993
   4   2.0000     -14.865233      -404.5036
   5   2.0000     -14.865045      -404.4985
   6   2.0000     -10.727008      -291.8967
   7   2.0000     -10.725422      -291.8536
   8   2.0000     -10.725309      -291.8505
   9   2.0000     -10.718982      -291.6783
  10   2.0000     -10.696338      -291.0622
  11   2.0000     -10.696066      -291.0548
  12   2.0000     -10.685443      -290.7657
  13   2.0000     -10.685305      -290.7619
  14   2.0000     -10.667418      -290.2752
  15   2.0000     -10.667373      -290.2740
  16   2.0000     -10.666566      -290.2520
  17   2.0000     -10.666528      -290.2510
  18   2.0000     -10.666449      -290.2488
  19   2.0000     -10.666243      -290.2432
  20   2.0000     -10.626748      -289.1685
  21   2.0000     -10.626261      -289.1553
  22   2.0000     -10.626144      -289.1521
  23   2.0000     -10.626118      -289.1514
  24   2.0000     -10.625632      -289.1382
  25   2.0000     -10.625515      -289.1350
  26   2.0000     -10.622025      -289.0400
  27   2.0000     -10.622016      -289.0398
  28   2.0000     -10.621729      -289.0319
  29   2.0000     -10.621719      -289.0317
  30   2.0000     -10.621683      -289.0307
  31   2.0000     -10.621650      -289.0298
  32   2.0000     -10.621532      -289.0266
  33   2.0000     -10.621520      -289.0263
  34   2.0000     -10.621452      -289.0244
  35   2.0000     -10.621421      -289.0236
  36   2.0000     -10.621410      -289.0233
  37   2.0000     -10.621328      -289.0210
  38   2.0000     -10.619746      -288.9780
  39   2.0000     -10.619743      -288.9779
  40   2.0000     -10.619736      -288.9777
  41   2.0000     -10.619702      -288.9768
  42   2.0000     -10.619466      -288.9704
  43   2.0000     -10.619440      -288.9697
  44   2.0000     -10.613232      -288.8007
  45   2.0000     -10.613187      -288.7995
  46   2.0000     -10.612947      -288.7930
  47   2.0000     -10.612857      -288.7905
  48   2.0000     -10.612789      -288.7887
  49   2.0000     -10.612712      -288.7866
  50   2.0000      -9.942035      -270.5365
  51   2.0000      -7.581886      -206.3136
  52   2.0000      -7.575939      -206.1518
  53   2.0000      -7.575577      -206.1419
  54   2.0000      -1.161316       -31.6010
  55   2.0000      -1.151513       -31.3343
  56   2.0000      -1.150957       -31.3191
  57   2.0000      -1.070154       -29.1204
  58   2.0000      -1.065106       -28.9830
  59   2.0000      -1.052957       -28.6524
  60   2.0000      -1.014641       -27.6098
  61   2.0000      -0.999810       -27.2062
  62   2.0000      -0.988119       -26.8881
  63   2.0000      -0.982363       -26.7315
  64   2.0000      -0.981834       -26.7171
  65   2.0000      -0.981299       -26.7025
  66   2.0000      -0.972272       -26.4569
  67   2.0000      -0.941861       -25.6293
  68   2.0000      -0.921471       -25.0745
  69   2.0000      -0.904467       -24.6118
  70   2.0000      -0.902103       -24.5475
  71   2.0000      -0.886376       -24.1195
  72   2.0000      -0.874704       -23.8019
  73   2.0000      -0.874014       -23.7831
  74   2.0000      -0.873695       -23.7745
  75   2.0000      -0.857998       -23.3473
  76   2.0000      -0.850573       -23.1453
  77   2.0000      -0.842281       -22.9196
  78   2.0000      -0.836326       -22.7576
  79   2.0000      -0.836011       -22.7490
  80   2.0000      -0.835791       -22.7430
  81   2.0000      -0.793056       -21.5802
  82   2.0000      -0.785245       -21.3676
  83   2.0000      -0.756038       -20.5728
  84   2.0000      -0.737675       -20.0732
  85   2.0000      -0.736818       -20.0498
  86   2.0000      -0.713379       -19.4120
  87   2.0000      -0.710513       -19.3340
  88   2.0000      -0.707794       -19.2601
  89   2.0000      -0.707482       -19.2516
  90   2.0000      -0.698345       -19.0029
  91   2.0000      -0.683142       -18.5892
  92   2.0000      -0.674585       -18.3564
  93   2.0000      -0.674044       -18.3417
  94   2.0000      -0.673555       -18.3284
  95   2.0000      -0.666643       -18.1403
  96   2.0000      -0.648560       -17.6482
  97   2.0000      -0.638085       -17.3632
  98   2.0000      -0.622655       -16.9433
  99   2.0000      -0.610945       -16.6247
 100   2.0000      -0.607777       -16.5385
 101   2.0000      -0.602632       -16.3985
 102   2.0000      -0.601058       -16.3556
 103   2.0000      -0.594514       -16.1775
 104   2.0000      -0.591187       -16.0870
 105   2.0000      -0.583224       -15.8703
 106   2.0000      -0.573662       -15.6101
 107   2.0000      -0.546045       -14.8586
 108   2.0000      -0.542663       -14.7666
 109   2.0000      -0.542093       -14.7511
 110   2.0000      -0.538240       -14.6463
 111   2.0000      -0.534436       -14.5427
 112   2.0000      -0.533523       -14.5179
 113   2.0000      -0.533289       -14.5115
 114   2.0000      -0.530192       -14.4273
 115   2.0000      -0.516801       -14.0629
 116   2.0000      -0.516551       -14.0561
 117   2.0000      -0.513949       -13.9853
 118   2.0000      -0.511413       -13.9163
 119   2.0000      -0.509252       -13.8575
 120   2.0000      -0.507136       -13.7999
 121   2.0000      -0.504788       -13.7360
 122   2.0000      -0.504224       -13.7206
 123   2.0000      -0.504058       -13.7161
 124   2.0000      -0.500472       -13.6185
 125   2.0000      -0.500111       -13.6087
 126   2.0000      -0.493205       -13.4208
 127   2.0000      -0.490980       -13.3602
 128   2.0000      -0.490092       -13.3361
 129   2.0000      -0.489958       -13.3324
 130   2.0000      -0.478232       -13.0134
 131   2.0000      -0.475901       -12.9499
 132   2.0000      -0.460386       -12.5277
 133   2.0000      -0.456328       -12.4173
 134   2.0000      -0.436135       -11.8678
 135   2.0000      -0.436093       -11.8667
 136   2.0000      -0.435719       -11.8565
 137   2.0000      -0.435603       -11.8534
 138   2.0000      -0.434963       -11.8359
 139   2.0000      -0.434045       -11.8110
 140   2.0000      -0.433221       -11.7886
 141   2.0000      -0.429193       -11.6789
 142   2.0000      -0.424654       -11.5554
 143   2.0000      -0.416774       -11.3410
 144   2.0000      -0.416630       -11.3371
 145   2.0000      -0.413358       -11.2481
 146   2.0000      -0.409666       -11.1476
 147   2.0000      -0.408588       -11.1182
 148   2.0000      -0.407858       -11.0984
 149   2.0000      -0.406697       -11.0668
 150   2.0000      -0.405808       -11.0426
 151   2.0000      -0.405480       -11.0337
 152   2.0000      -0.402804       -10.9608
 153   2.0000      -0.400458       -10.8970
 154   2.0000      -0.393626       -10.7111
 155   2.0000      -0.389704       -10.6044
 156   2.0000      -0.339612        -9.2413
 157   2.0000      -0.338181        -9.2024
 158   2.0000      -0.335489        -9.1291
 159   2.0000      -0.328880        -8.9493
 160   2.0000      -0.319050        -8.6818
 161   2.0000      -0.304039        -8.2733
 162   2.0000      -0.303251        -8.2519
 163   2.0000      -0.301203        -8.1961
 164   2.0000      -0.257866        -7.0169
 165   2.0000      -0.257256        -7.0003
 166   2.0000      -0.257173        -6.9980
 167   2.0000      -0.256211        -6.9719
 168   2.0000      -0.255095        -6.9415
 169   2.0000      -0.250059        -6.8044
 170   0.0000      -0.045893        -1.2488
 171   0.0000      -0.025377        -0.6905
 172   0.0000       0.005104         0.1389
 173   0.0000       0.005210         0.1418
 174   0.0000       0.006911         0.1881

MULLIKEN ATOMIC CHARGES
-----------------------
   0 C :    0.106873
   1 C :   -0.083216
   2 C :    0.093376
   3 C :    0.210833
   4 C :    0.018799
   5 C :    0.197490
   6 C :   -0.161375
   7 C :   -0.157682
   8 N :   -0.116824
   9 N :   -0.116140
  10 N :    0.036956
  11 C :    0.136533
  12 C :    0.138659
  13 C :   -0.269893
  14 C :    0.005031
  15 C :   -0.278065
  16 C :    0.011353
  17 C :   -0.133615
  18 H :    0.173072
  19 C :   -0.233995
  20 C :   -0.143455
  21 H :    0.182348
  22 C :   -0.231417
  23 C :   -0.166520
  24 H :    0.160510
  25 H :    0.160900
  26 C :   -0.167037
  27 H :    0.160585
  28 H :    0.161890
  29 H :    0.156450
  30 H :    0.155943
  31 N :    0.037149
  32 C :    0.133803
  33 C :    0.136122
  34 C :   -0.279415
  35 C :    0.015798
  36 C :   -0.269143
  37 C :    0.005190
  38 C :   -0.136504
  39 H :    0.177584
  40 C :   -0.232176
  41 C :   -0.136331
  42 H :    0.173656
  43 C :   -0.235544
  44 C :   -0.166696
  45 H :    0.160626
  46 H :    0.161482
  47 C :   -0.165130
  48 H :    0.160431
  49 H :    0.160912
  50 H :    0.156091
  51 H :    0.156416
  52 N :    0.033143
  53 C :    0.140187
  54 C :    0.142872
  55 C :   -0.281701
  56 C :    0.002487
  57 C :   -0.285496
  58 C :    0.000459
  59 C :   -0.136410
  60 H :    0.185988
  61 C :   -0.226182
  62 C :   -0.130753
  63 H :    0.182760
  64 C :   -0.224938
  65 C :   -0.172212
  66 H :    0.160456
  67 H :    0.161703
  68 C :   -0.172182
  69 H :    0.160500
  70 H :    0.161349
  71 H :    0.155565
  72 H :    0.155870
  73 Cl:   -0.036150
Sum of atomic charges:    0.0000000

LOEWDIN ATOMIC CHARGES
----------------------
   0 C :   -0.086408
   1 C :   -0.346346
   2 C :   -0.086247
   3 C :   -0.061398
   4 C :   -0.042764
   5 C :   -0.062445
   6 C :   -0.115380
   7 C :   -0.116141
   8 N :    0.034801
   9 N :    0.034911
  10 N :    0.312782
  11 C :   -0.121725
  12 C :   -0.114295
  13 C :   -0.129056
  14 C :   -0.084787
  15 C :   -0.118430
  16 C :   -0.084532
  17 C :   -0.141220
  18 H :    0.156971
  19 C :   -0.099622
  20 C :   -0.140210
  21 H :    0.159606
  22 C :   -0.098592
  23 C :   -0.158996
  24 H :    0.152721
  25 H :    0.155995
  26 C :   -0.158359
  27 H :    0.152862
  28 H :    0.156051
  29 H :    0.150237
  30 H :    0.150304
  31 N :    0.312008
  32 C :   -0.114751
  33 C :   -0.121744
  34 C :   -0.118827
  35 C :   -0.084739
  36 C :   -0.128971
  37 C :   -0.084939
  38 C :   -0.140365
  39 H :    0.159471
  40 C :   -0.098761
  41 C :   -0.141214
  42 H :    0.157105
  43 C :   -0.099677
  44 C :   -0.158670
  45 H :    0.152818
  46 H :    0.156046
  47 C :   -0.159177
  48 H :    0.152703
  49 H :    0.155951
  50 H :    0.150278
  51 H :    0.150196
  52 N :    0.322106
  53 C :   -0.110390
  54 C :   -0.110988
  55 C :   -0.117627
  56 C :   -0.083405
  57 C :   -0.117901
  58 C :   -0.083418
  59 C :   -0.139631
  60 H :    0.159939
  61 C :   -0.097988
  62 C :   -0.139660
  63 H :    0.160043
  64 C :   -0.098012
  65 C :   -0.157006
  66 H :    0.153063
  67 H :    0.156222
  68 C :   -0.157098
  69 H :    0.153031
  70 H :    0.156230
  71 H :    0.150487
  72 H :    0.150473
  73 Cl:    0.506501

  Mayer bond orders larger than 0.100000
B(  0-C ,  1-C ) :   1.2799 B(  0-C ,  5-C ) :   1.3095 B(  0-C , 10-N ) :   1.0133
B(  1-C ,  2-C ) :   1.2791 B(  1-C , 73-Cl) :   1.2913 B(  2-C ,  3-C ) :   1.3225
B(  2-C , 31-N ) :   1.0002 B(  3-C ,  4-C ) :   1.3706 B(  3-C ,  6-C ) :   0.9980
B(  4-C ,  5-C ) :   1.3521 B(  4-C , 52-N ) :   1.0972 B(  5-C ,  7-C ) :   1.0000
B(  6-C ,  8-N ) :   2.9985 B(  7-C ,  9-N ) :   2.9995 B( 10-N , 11-C ) :   1.0643
B( 10-N , 12-C ) :   1.0589 B( 11-C , 13-C ) :   1.3666 B( 11-C , 14-C ) :   1.3233
B( 12-C , 15-C ) :   1.3788 B( 12-C , 16-C ) :   1.3037 B( 13-C , 17-C ) :   1.4316
B( 13-C , 18-H ) :   0.9670 B( 14-C , 16-C ) :   1.0539 B( 14-C , 19-C ) :   1.3152
B( 15-C , 20-C ) :   1.4281 B( 15-C , 21-H ) :   0.9643 B( 16-C , 22-C ) :   1.3135
B( 17-C , 23-C ) :   1.3544 B( 17-C , 24-H ) :   0.9764 B( 19-C , 23-C ) :   1.4663
B( 19-C , 25-H ) :   0.9833 B( 20-C , 26-C ) :   1.3500 B( 20-C , 27-H ) :   0.9779
B( 22-C , 26-C ) :   1.4614 B( 22-C , 28-H ) :   0.9829 B( 23-C , 29-H ) :   0.9846
B( 26-C , 30-H ) :   0.9875 B( 31-N , 32-C ) :   1.0620 B( 31-N , 33-C ) :   1.0619
B( 32-C , 34-C ) :   1.3739 B( 32-C , 35-C ) :   1.2999 B( 33-C , 36-C ) :   1.3685
B( 33-C , 37-C ) :   1.3244 B( 34-C , 38-C ) :   1.4260 B( 34-C , 39-H ) :   0.9703
B( 35-C , 37-C ) :   1.0552 B( 35-C , 40-C ) :   1.3135 B( 36-C , 41-C ) :   1.4319
B( 36-C , 42-H ) :   0.9665 B( 37-C , 43-C ) :   1.3144 B( 38-C , 44-C ) :   1.3518
B( 38-C , 45-H ) :   0.9775 B( 40-C , 44-C ) :   1.4614 B( 40-C , 46-H ) :   0.9830
B( 41-C , 47-C ) :   1.3545 B( 41-C , 48-H ) :   0.9764 B( 43-C , 47-C ) :   1.4663
B( 43-C , 49-H ) :   0.9835 B( 44-C , 50-H ) :   0.9866 B( 47-C , 51-H ) :   0.9846
B( 52-N , 53-C ) :   1.0552 B( 52-N , 54-C ) :   1.0576 B( 53-C , 55-C ) :   1.3931
B( 53-C , 56-C ) :   1.3135 B( 54-C , 57-C ) :   1.3854 B( 54-C , 58-C ) :   1.3130
B( 55-C , 59-C ) :   1.4335 B( 55-C , 60-H ) :   0.9564 B( 56-C , 58-C ) :   1.0586
B( 56-C , 61-C ) :   1.3058 B( 57-C , 62-C ) :   1.4296 B( 57-C , 63-H ) :   0.9618
B( 58-C , 64-C ) :   1.3084 B( 59-C , 65-C ) :   1.3442 B( 59-C , 66-H ) :   0.9791
B( 61-C , 65-C ) :   1.4564 B( 61-C , 67-H ) :   0.9839 B( 62-C , 68-C ) :   1.3463
B( 62-C , 69-H ) :   0.9786 B( 64-C , 68-C ) :   1.4574 B( 64-C , 70-H ) :   0.9842
B( 65-C , 71-H ) :   0.9890 B( 68-C , 72-H ) :   0.9875

MP2 TOTAL ENERGY:    -2424.096617999 Eh

-----------------------------------------------------------------------------
         ABSORPTION SPECTRUM VIA TRANSITION ELECTRIC DIPOLE MOMENTS
-----------------------------------------------------------------------------
State   Energy    Wavelength  fosc         T2        TX        TY        TZ
        (cm-1)      (nm)                 (au**2)    (au)      (au)      (au)
-----------------------------------------------------------------------------
   1   22275.1    448.9   0.138806860   2.05148  -1.40448  -0.05760  -0.27494
   2   23902.5    418.4   0.072946772   1.00470   0.00242  -1.00230   0.00977
   3   23945.8    417.6   0.001156282   0.01590   0.12342  -0.00054   0.02578
   4   26693.9    374.6   0.147286992   1.81647   0.03319  -1.34735   0.00042
   5   26185.3    381.9   0.000288191   0.00362   0.04336   0.00405  -0.04155
   6   26233.4    381.2   0.000009716   0.00012  -0.00047   0.00948   0.00565
   7   26592.6    376.0   0.001045311   0.01294  -0.00133  -0.11336   0.00937
   8   28276.2    353.7   0.143891852   1.67529  -1.24993  -0.05312  -0.33188
   9   27765.2    360.2   0.027972708   0.33167  -0.06793   0.57132  -0.02550
  10   29852.7    335.0   0.004996497   0.05510   0.20524   0.00366   0.11385
  11   33111.1    302.0   0.081390728   0.80924   0.03524  -0.89879  -0.01317
  12   32965.6    303.3   0.064592024   0.64505  -0.79506  -0.01083   0.11321
  13   33029.5    302.8   0.003238818   0.03228   0.15775   0.07207  -0.04693
  14   36139.4    276.7   0.114197559   1.04028   0.04323   0.78106   0.65450
  15   36284.1    275.6   0.124813609   1.13246  -0.02702   0.50501  -0.93632
  16   36940.5    270.7   0.620720900   5.53183   1.18364   0.02046  -2.03234
  17   31689.6    315.6   0.009512166   0.09882  -0.15470  -0.17262   0.21234
  18   31680.9    315.6   0.059923436   0.62269  -0.42348   0.07360   0.66177
  19   34892.6    286.6   0.193757233   1.82810   1.34665  -0.00404  -0.12097
  20   40371.9    247.7   0.081188741   0.66205   0.03634  -0.79708  -0.15937
  21   35133.5    284.6   0.053491853   0.50123  -0.00938  -0.12549   0.69671
  22   35068.2    285.2   0.033687397   0.31625  -0.00400   0.56135  -0.03353
  23   35565.3    281.2   0.017110669   0.15839   0.00715   0.39669  -0.03117
  24   41987.6    238.2   0.021272410   0.16679  -0.03346  -0.35283   0.20293
  25   42041.4    237.9   0.093016706   0.72838   0.05745  -0.11131  -0.84421
  26   41920.3    238.5   0.146516514   1.15064   0.46645   0.00465  -0.96594
  27   39338.3    254.2   0.302132580   2.52847   1.22950   0.07186  -1.00580
  28   42404.3    235.8   1.034264848   8.02966  -0.05092  -2.83309  -0.02637
  29   43135.2    231.8   0.956578574   7.30070   2.38150  -0.04459   1.27561
  30   42555.2    235.0   0.127457518   0.98603   0.16886  -0.38690   0.89879
  31   42887.8    233.2   0.090476710   0.69451  -0.06094  -0.64752  -0.52108
  32   42413.5    235.8   0.071714295   0.55664  -0.05444   0.74401  -0.01124
  33   42937.1    232.9   0.023243482   0.17821   0.03002  -0.33964  -0.24891
  34   43034.7    232.4   0.453684052   3.47064   0.40663   0.04360  -1.81752
  35   41665.9    240.0   0.056086836   0.44316  -0.18165   0.01471   0.64027
  36   40211.3    248.7   0.000954598   0.00782   0.03187  -0.07655  -0.03065
  37   42821.4    233.5   1.587635772  12.20577  -2.51685   0.00646   2.42305
  38   40453.8    247.2   0.013889441   0.11303   0.19410  -0.18585  -0.20203
  39   39989.2    250.1   0.007536961   0.06205  -0.06601  -0.00642   0.24010
  40   41027.1    243.7   0.273962655   2.19835   0.03641   1.48195   0.02887
  41   40200.3    248.8   0.107576214   0.88097  -0.17535  -0.02375   0.92177
  42   40453.2    247.2   0.012952344   0.10541  -0.21938   0.00096   0.23933
  43   40718.4    245.6   0.001601121   0.01295  -0.07572  -0.04415   0.07254
  44   43620.3    229.3   0.027277382   0.20587  -0.44970   0.02729  -0.05378
  45   42854.4    233.3   0.009566797   0.07349   0.26958   0.01511   0.02427
  46   42637.3    234.5   0.012662614   0.09777   0.31239  -0.01326  -0.00247
  47   42788.2    233.7   0.000019455   0.00015  -0.00770   0.00943  -0.00123
  48   42927.4    233.0   0.000098638   0.00076  -0.01552   0.02241   0.00364
  49   43025.8    232.4   0.004437245   0.03395  -0.11035   0.14633  -0.01899
  50   43147.2    231.8   0.015011618   0.11454   0.32245   0.10041   0.02195
  51   44135.2    226.6   0.072358601   0.53973   0.73458   0.01106   0.00179
  52   47060.8    212.5   0.055622152   0.38910  -0.02134   0.62334  -0.00946
  53   48492.7    206.2   0.005433092   0.03688  -0.02649   0.18639   0.03799
  54   44287.0    225.8   0.030148498   0.22411   0.25326   0.02649  -0.39909
  55   42355.6    236.1   0.007248871   0.05634   0.01445  -0.23611  -0.01964
  56   43073.1    232.2   0.011445704   0.08748  -0.29412   0.00624  -0.03054
  57   46941.8    213.0   0.003092116   0.02169  -0.00473   0.14652  -0.01398
  58   49178.9    203.3   0.066071527   0.44229  -0.19573   0.02242   0.63520
  59   48958.5    204.3   0.058827465   0.39557  -0.02397  -0.62843   0.00877
  60   49561.8    201.8   0.499469491   3.31771   1.21678   0.00047  -1.35542

Dispersion correction           -0.108088867
FINAL SINGLE POINT ENERGY     -2421.479917505254

DIPOLE MOMENT
-------------
                                X             Y             Z
Electronic contribution:      0.19725      -7.52401      -0.32932
Nuclear contribution   :     -0.20118       6.09592       0.34197
                        -----------------------------------------
Total Dipole Moment    :     -0.00392      -1.42809       0.01266
                        -----------------------------------------
Magnitude (a.u.)       :      1.42815
Magnitude (Debye)      :      3.63008

Rotational constants in cm-1:     0.002146     0.002013     0.001365
Rotational constants in MHz :    64.345159    60.335456    40.912206

                             ****ORCA TERMINATED NORMALLY****
TOTAL RUN TIME: 0 days 22 hours 2 minutes 5 seconds 367 msec
