 Gaussian 09, Revision E.01,
 Gaussian 09:  ES64L-G09RevE.01 30-Nov-2015

 ----------------------------------------------------------------------
 #p m06l/def2TZVP td=(NStates=50) int=ultrafine scrf=(SMD,solvent=Aceto
 nitrile)
 ----------------------------------------------------------------------

 -----
 Title
 -----
 Symbolic Z-matrix:
 Charge =  0 Multiplicity = 1

                         Standard orientation:
 ---------------------------------------------------------------------
 Center     Atomic      Atomic             Coordinates (Angstroms)
 Number     Number       Type             X           Y           Z
 ---------------------------------------------------------------------
      1          6           0       -1.184451   -0.768733   -0.189931
      2          6           0        0.026492   -1.444983   -0.023050
      3          6           0        1.220083   -0.736496    0.133275
      4          6           0        1.191253    0.668676    0.145897
      5          6           0       -0.008272    1.366690   -0.036956
      6          6           0       -1.188650    0.636051   -0.220721
      7          6           0        2.381808    1.376701    0.450293
      8          6           0       -2.394641    1.313556   -0.533566
      9          7           0        3.350982    1.949677    0.713961
     10          7           0       -3.374941    1.862856   -0.806258
     11          7           0       -2.388674   -1.456147   -0.355422
     12          6           0       -2.740747   -2.265633   -1.437176
     13          6           0       -3.480730   -1.372978    0.512002
     14          6           0       -2.005787   -2.584806   -2.568784
     15          6           0       -4.061379   -2.717415   -1.247067
     16          6           0       -3.589685   -0.690152    1.713418
     17          6           0       -4.529621   -2.153494   -0.009351
     18          6           0       -2.610926   -3.400796   -3.511603
     19          1           0       -1.002062   -2.207597   -2.718029
     20          6           0       -4.645242   -3.534911   -2.210858
     21          6           0       -4.793224   -0.788955    2.393907
     22          1           0       -2.769111   -0.102667    2.106814
     23          6           0       -5.725635   -2.240359    0.698010
     24          6           0       -3.912505   -3.876053   -3.334690
     25          1           0       -2.061559   -3.670331   -4.404486
     26          1           0       -5.660160   -3.890422   -2.082543
     27          6           0       -5.850012   -1.553212    1.893562
     28          1           0       -4.912059   -0.263695    3.332897
     29          1           0       -6.544010   -2.837842    0.315588
     30          1           0       -4.353707   -4.511136   -4.091869
     31          1           0       -6.775549   -1.609405    2.451675
     32          7           0        2.436248   -1.395620    0.329783
     33          6           0        3.538916   -1.326810   -0.524627
     34          6           0        2.789598   -2.146119    1.452772
     35          6           0        3.652115   -0.699197   -1.755633
     36          6           0        4.597095   -2.058010    0.048314
     37          6           0        2.041580   -2.432513    2.584437
     38          6           0        4.122921   -2.574886    1.304082
     39          6           0        4.868025   -0.803748   -2.412949
     40          1           0        2.825345   -0.151250   -2.190084
     41          6           0        5.805441   -2.151799   -0.636668
     42          6           0        2.648708   -3.190413    3.573261
     43          1           0        1.025923   -2.075093    2.697581
     44          6           0        4.708381   -3.334163    2.313543
     45          6           0        5.933216   -1.519883   -1.861905
     46          1           0        4.989935   -0.321944   -3.374566
     47          1           0        6.630063   -2.712735   -0.214398
     48          6           0        3.964164   -3.641197    3.439716
     49          1           0        2.089999   -3.433359    4.468013
     50          1           0        5.733198   -3.671244    2.218345
     51          1           0        6.867997   -1.582338   -2.403725
     52          1           0        4.406893   -4.230537    4.232170
     53          7           0       -0.033244    2.760976   -0.024882
     54          6           0       -0.780395    3.552863    0.854646
     55          6           0        0.678862    3.604330   -0.884200
     56          6           0       -1.601310    3.163835    1.902433
     57          6           0       -0.541202    4.906652    0.552719
     58          6           0        1.515283    3.276323   -1.940331
     59          6           0        0.381506    4.939221   -0.550093
     60          6           0       -2.211314    4.166030    2.640083
     61          1           0       -1.760227    2.120757    2.145555
     62          6           0       -1.164328    5.893601    1.311746
     63          6           0        2.081122    4.321296   -2.653412
     64          1           0        1.717669    2.246720   -2.206568
     65          6           0        0.961434    5.969859   -1.284530
     66          6           0       -2.000958    5.515323    2.347530
     67          1           0       -2.861174    3.892806    3.461472
     68          1           0       -0.989944    6.940092    1.094207
     69          6           0        1.813029    5.652918   -2.328614
     70          1           0        2.741617    4.096086   -3.480827
     71          1           0        0.742626    7.002372   -1.041875
     72          1           0       -2.493737    6.271764    2.944366
     73          1           0        2.272628    6.443827   -2.906953
     74         17           0        0.047455   -3.158370   -0.000390
 ---------------------------------------------------------------------

 SCF Done:  E(RM06L) =  -2425.62047166     A.U. after   17 cycles

 Excitation energies and oscillator strengths:

 Excited State   1:      Singlet-A      2.3113 eV  536.44 nm  f=0.0937  <S**2>=0.000
     170 -> 171        0.70324
 This state for optimization and/or second-order correction.
 Total Energy, E(TD-HF/TD-KS) =  -2425.53553434
 Copying the excited state density for this state as the 1-particle RhoCI density.

 Excited State   2:      Singlet-A      2.4237 eV  511.55 nm  f=0.0188  <S**2>=0.000
     168 -> 171        0.65981
     169 -> 171        0.25111

 Excited State   3:      Singlet-A      2.4694 eV  502.08 nm  f=0.0602  <S**2>=0.000
     168 -> 171       -0.24962
     169 -> 171        0.65529

 Excited State   4:      Singlet-A      2.5580 eV  484.69 nm  f=0.0001  <S**2>=0.000
     167 -> 171        0.70555

 Excited State   5:      Singlet-A      2.5620 eV  483.93 nm  f=0.0003  <S**2>=0.000
     166 -> 171        0.70221

 Excited State   6:      Singlet-A      2.5734 eV  481.79 nm  f=0.0002  <S**2>=0.000
     165 -> 171        0.70219

 Excited State   7:      Singlet-A      2.8011 eV  442.63 nm  f=0.0007  <S**2>=0.000
     168 -> 172       -0.20309
     170 -> 172        0.66867

 Excited State   8:      Singlet-A      2.9072 eV  426.47 nm  f=0.0836  <S**2>=0.000
     168 -> 172       -0.14285
     169 -> 172        0.68759

 Excited State   9:      Singlet-A      2.9402 eV  421.68 nm  f=0.1295  <S**2>=0.000
     168 -> 172        0.66038
     169 -> 172        0.12976
     170 -> 172        0.20889

 Excited State  10:      Singlet-A      3.0334 eV  408.73 nm  f=0.0005  <S**2>=0.000
     167 -> 172        0.70348

 Excited State  11:      Singlet-A      3.0374 eV  408.19 nm  f=0.0019  <S**2>=0.000
     166 -> 172        0.70051

 Excited State  12:      Singlet-A      3.0562 eV  405.68 nm  f=0.0002  <S**2>=0.000
     165 -> 172        0.70252

 Excited State  13:      Singlet-A      3.4533 eV  359.03 nm  f=0.0036  <S**2>=0.000
     164 -> 171        0.70411

 Excited State  14:      Singlet-A      3.4983 eV  354.41 nm  f=0.0065  <S**2>=0.000
     163 -> 171        0.70497

 Excited State  15:      Singlet-A      3.5168 eV  352.55 nm  f=0.0005  <S**2>=0.000
     162 -> 171        0.70435

 Excited State  16:      Singlet-A      3.6859 eV  336.37 nm  f=0.0066  <S**2>=0.000
     168 -> 173       -0.18248
     168 -> 174        0.13484
     170 -> 173        0.64751
     170 -> 174       -0.10986

 Excited State  17:      Singlet-A      3.6904 eV  335.97 nm  f=0.0066  <S**2>=0.000
     168 -> 173        0.12831
     169 -> 175       -0.19065
     170 -> 173        0.11222
     170 -> 174        0.64775

 Excited State  18:      Singlet-A      3.7162 eV  333.63 nm  f=0.0011  <S**2>=0.000
     168 -> 173        0.10140
     169 -> 174       -0.25128
     170 -> 175        0.63990

 Excited State  19:      Singlet-A      3.7860 eV  327.48 nm  f=0.0002  <S**2>=0.000
     168 -> 174        0.19132
     169 -> 173        0.63043
     169 -> 174       -0.22479

 Excited State  20:      Singlet-A      3.8027 eV  326.05 nm  f=0.0018  <S**2>=0.000
     168 -> 173        0.27731
     168 -> 174        0.46384
     169 -> 174        0.25619
     169 -> 175        0.37266

 Excited State  21:      Singlet-A      3.8166 eV  324.86 nm  f=0.0037  <S**2>=0.000
     168 -> 174       -0.27449
     168 -> 175        0.54649
     169 -> 173        0.16525
     169 -> 174        0.29647

 Excited State  22:      Singlet-A      3.9259 eV  315.81 nm  f=0.0000  <S**2>=0.000
     164 -> 172        0.70284

 Excited State  23:      Singlet-A      3.9427 eV  314.47 nm  f=0.0029  <S**2>=0.000
     166 -> 174        0.13868
     167 -> 173        0.62944
     167 -> 174       -0.17092
     168 -> 173       -0.17740

 Excited State  24:      Singlet-A      3.9503 eV  313.86 nm  f=0.0008  <S**2>=0.000
     165 -> 173       -0.19922
     166 -> 173        0.54626
     166 -> 174       -0.32645
     167 -> 173        0.17559

 Excited State  25:      Singlet-A      3.9602 eV  313.07 nm  f=0.0002  <S**2>=0.000
     165 -> 173        0.23364
     165 -> 174        0.52357
     166 -> 173        0.17341
     166 -> 174        0.23485
     167 -> 174        0.15464
     167 -> 175        0.13259
     169 -> 174        0.12608

 Excited State  26:      Singlet-A      3.9648 eV  312.71 nm  f=0.0008  <S**2>=0.000
     165 -> 174       -0.19953
     166 -> 174        0.16566
     166 -> 175        0.17278
     167 -> 173        0.13286
     167 -> 174        0.41513
     167 -> 175        0.42863
     168 -> 173        0.10402

 Excited State  27:      Singlet-A      3.9688 eV  312.39 nm  f=0.0010  <S**2>=0.000
     165 -> 173        0.10347
     165 -> 174        0.15791
     166 -> 173       -0.19403
     166 -> 174       -0.35440
     166 -> 175        0.45155
     167 -> 174        0.19770
     167 -> 175       -0.16095
     168 -> 173       -0.11254

 Excited State  28:      Singlet-A      3.9761 eV  311.82 nm  f=0.0025  <S**2>=0.000
     162 -> 172       -0.16527
     163 -> 172        0.68028

 Excited State  29:      Singlet-A      3.9794 eV  311.56 nm  f=0.0538  <S**2>=0.000
     166 -> 173       -0.11743
     167 -> 173        0.15780
     167 -> 175       -0.10168
     168 -> 173        0.45000
     168 -> 174       -0.21609
     168 -> 175       -0.23512
     169 -> 173        0.15703
     169 -> 175       -0.12035
     170 -> 173        0.19149
     170 -> 174       -0.11421

 Excited State  30:      Singlet-A      3.9831 eV  311.28 nm  f=0.0311  <S**2>=0.000
     165 -> 175        0.37437
     166 -> 175        0.12671
     168 -> 174       -0.22687
     168 -> 175       -0.10429
     169 -> 174       -0.12708
     169 -> 175        0.42289
     170 -> 174        0.15347

 Excited State  31:      Singlet-A      3.9907 eV  310.69 nm  f=0.0022  <S**2>=0.000
     162 -> 172        0.67446
     163 -> 172        0.15901

 Excited State  32:      Singlet-A      3.9920 eV  310.58 nm  f=0.0045  <S**2>=0.000
     165 -> 174       -0.22478
     168 -> 173       -0.21286
     168 -> 175       -0.29423
     169 -> 173        0.13506
     169 -> 174        0.39634
     170 -> 175        0.24369

 Excited State  33:      Singlet-A      4.0019 eV  309.81 nm  f=0.0199  <S**2>=0.000
     165 -> 173        0.13204
     165 -> 175        0.53100
     166 -> 175        0.12533
     168 -> 174        0.15527
     168 -> 175        0.10631
     169 -> 175       -0.30046
     170 -> 174       -0.12552

 Excited State  34:      Singlet-A      4.0655 eV  304.96 nm  f=0.1085  <S**2>=0.000
     157 -> 172        0.10947
     158 -> 171        0.22708
     160 -> 172        0.13522
     161 -> 171        0.63344

 Excited State  35:      Singlet-A      4.2078 eV  294.65 nm  f=0.0038  <S**2>=0.000
     158 -> 171        0.11249
     159 -> 171        0.68677

 Excited State  36:      Singlet-A      4.2169 eV  294.01 nm  f=0.0218  <S**2>=0.000
     157 -> 171       -0.35971
     160 -> 171        0.59047

 Excited State  37:      Singlet-A      4.3199 eV  287.01 nm  f=0.0128  <S**2>=0.000
     157 -> 172       -0.12708
     158 -> 171        0.63630
     160 -> 172       -0.17232
     161 -> 171       -0.17817

 Excited State  38:      Singlet-A      4.3519 eV  284.90 nm  f=0.0684  <S**2>=0.000
     165 -> 173        0.43328
     165 -> 174       -0.20440
     165 -> 175       -0.14153
     166 -> 173        0.15375
     168 -> 176       -0.14513
     170 -> 176       -0.39621
     170 -> 177       -0.11004

 Excited State  39:      Singlet-A      4.3696 eV  283.74 nm  f=0.0968  <S**2>=0.000
     166 -> 174       -0.20589
     167 -> 174       -0.33828
     167 -> 175        0.43027
     169 -> 177        0.10745
     169 -> 178       -0.11191
     170 -> 176        0.12027
     170 -> 178        0.21582

 Excited State  40:      Singlet-A      4.3707 eV  283.67 nm  f=0.1633  <S**2>=0.000
     165 -> 175       -0.12627
     166 -> 173        0.22372
     166 -> 174        0.26877
     166 -> 175        0.38707
     167 -> 173       -0.10113
     167 -> 174       -0.18367
     170 -> 176        0.19428
     170 -> 177       -0.20272
     170 -> 178       -0.10275

 Excited State  41:      Singlet-A      4.4411 eV  279.18 nm  f=0.1583  <S**2>=0.000
     165 -> 173        0.25630
     165 -> 174       -0.10995
     166 -> 175       -0.12737
     168 -> 176       -0.20919
     168 -> 177       -0.13134
     170 -> 176        0.51591
     170 -> 179       -0.17151

 Excited State  42:      Singlet-A      4.5271 eV  273.87 nm  f=0.0014  <S**2>=0.000
     168 -> 176       -0.12835
     169 -> 176        0.67842
     170 -> 178        0.13654

 Excited State  43:      Singlet-A      4.5427 eV  272.93 nm  f=0.0273  <S**2>=0.000
     168 -> 176        0.49486
     168 -> 177       -0.10138
     169 -> 178        0.10128
     170 -> 177       -0.43052
     170 -> 179       -0.17692

 Excited State  44:      Singlet-A      4.5879 eV  270.24 nm  f=0.0003  <S**2>=0.000
     158 -> 172       -0.13097
     161 -> 172       -0.22684
     168 -> 178        0.13990
     169 -> 177       -0.29273
     170 -> 177        0.10002
     170 -> 178        0.50657

 Excited State  45:      Singlet-A      4.5928 eV  269.95 nm  f=0.0167  <S**2>=0.000
     157 -> 171       -0.14040
     158 -> 172        0.31760
     159 -> 172       -0.21612
     161 -> 172        0.48720
     169 -> 177       -0.13579
     170 -> 178        0.21660

 Excited State  46:      Singlet-A      4.6004 eV  269.50 nm  f=0.0083  <S**2>=0.000
     168 -> 176        0.28421
     168 -> 179       -0.17129
     169 -> 178       -0.32855
     170 -> 177        0.37992
     170 -> 178       -0.14524
     170 -> 179       -0.27750

 Excited State  47:      Singlet-A      4.6321 eV  267.67 nm  f=0.0177  <S**2>=0.000
     168 -> 176        0.15342
     168 -> 177       -0.40245
     168 -> 179       -0.14916
     169 -> 177       -0.12114
     170 -> 179        0.50054

 Excited State  48:      Singlet-A      4.6759 eV  265.16 nm  f=0.0007  <S**2>=0.000
     168 -> 178        0.49413
     168 -> 179       -0.11963
     169 -> 177        0.44526
     169 -> 178        0.12504

 Excited State  49:      Singlet-A      4.6842 eV  264.69 nm  f=0.0278  <S**2>=0.000
     157 -> 172       -0.35948
     159 -> 172       -0.13702
     160 -> 172        0.55549

 Excited State  50:      Singlet-A      4.6875 eV  264.50 nm  f=0.0097  <S**2>=0.000
     158 -> 172        0.21272
     159 -> 172        0.59401
     160 -> 172        0.11379
     165 -> 176       -0.18965
     166 -> 176       -0.16502

 The electronic state is 1-A.
 Alpha  occ. eigenvalues -- -101.20437 -14.24346 -14.24106 -14.24051 -14.18864
 Alpha  occ. eigenvalues --  -14.18845 -10.15001 -10.14934 -10.14910 -10.14869
 Alpha  occ. eigenvalues --  -10.12442 -10.12414 -10.10854 -10.10840 -10.09635
 Alpha  occ. eigenvalues --  -10.09634 -10.09550 -10.09550 -10.09549 -10.09523
 Alpha  occ. eigenvalues --  -10.05874 -10.05844 -10.05825 -10.05808 -10.05795
 Alpha  occ. eigenvalues --  -10.05777 -10.05519 -10.05516 -10.05470 -10.05456
 Alpha  occ. eigenvalues --  -10.05442 -10.05429 -10.05269 -10.05266 -10.05261
 Alpha  occ. eigenvalues --  -10.05253 -10.05230 -10.05227 -10.05163 -10.05161
 Alpha  occ. eigenvalues --  -10.05160 -10.05146 -10.05119 -10.05115 -10.04623
 Alpha  occ. eigenvalues --  -10.04618 -10.04594 -10.04578 -10.04575 -10.04565
 Alpha  occ. eigenvalues --   -9.43401  -7.14317  -7.13301  -7.13210  -0.98723
 Alpha  occ. eigenvalues --   -0.97914  -0.97858  -0.89864  -0.88815  -0.88304
 Alpha  occ. eigenvalues --   -0.85353  -0.83731  -0.82880  -0.81991  -0.81935
 Alpha  occ. eigenvalues --   -0.81906  -0.81323  -0.78654  -0.76852  -0.75200
 Alpha  occ. eigenvalues --   -0.75042  -0.73719  -0.72490  -0.72420  -0.72393
 Alpha  occ. eigenvalues --   -0.71169  -0.70487  -0.69925  -0.69074  -0.69037
 Alpha  occ. eigenvalues --   -0.69019  -0.65538  -0.64921  -0.62180  -0.60503
 Alpha  occ. eigenvalues --   -0.60373  -0.58380  -0.58109  -0.57887  -0.57864
 Alpha  occ. eigenvalues --   -0.57303  -0.55741  -0.54774  -0.54744  -0.54719
 Alpha  occ. eigenvalues --   -0.54410  -0.52597  -0.51715  -0.50510  -0.49425
 Alpha  occ. eigenvalues --   -0.49051  -0.48589  -0.48446  -0.47811  -0.47404
 Alpha  occ. eigenvalues --   -0.46852  -0.46015  -0.43697  -0.43333  -0.43244
 Alpha  occ. eigenvalues --   -0.42841  -0.42739  -0.42304  -0.42282  -0.42026
 Alpha  occ. eigenvalues --   -0.40936  -0.40861  -0.40567  -0.40506  -0.40106
 Alpha  occ. eigenvalues --   -0.40074  -0.39752  -0.39687  -0.39565  -0.39511
 Alpha  occ. eigenvalues --   -0.39502  -0.38892  -0.38599  -0.38404  -0.38376
 Alpha  occ. eigenvalues --   -0.36800  -0.36520  -0.35521  -0.35276  -0.34368
 Alpha  occ. eigenvalues --   -0.34004  -0.33721  -0.33533  -0.33451  -0.33443
 Alpha  occ. eigenvalues --   -0.33365  -0.33309  -0.33237  -0.32977  -0.32899
 Alpha  occ. eigenvalues --   -0.32392  -0.31759  -0.31427  -0.31182  -0.31026
 Alpha  occ. eigenvalues --   -0.30976  -0.30927  -0.30752  -0.30715  -0.30566
 Alpha  occ. eigenvalues --   -0.30493  -0.27232  -0.26967  -0.26726  -0.26503
 Alpha  occ. eigenvalues --   -0.25632  -0.24208  -0.24153  -0.23956  -0.20755
 Alpha  occ. eigenvalues --   -0.20706  -0.20691  -0.20140  -0.20097  -0.19627
 Alpha virt. eigenvalues --   -0.11304  -0.09557  -0.06194  -0.06182  -0.06063
 Alpha virt. eigenvalues --   -0.03460  -0.02991  -0.02909  -0.02700  -0.02079
 Alpha virt. eigenvalues --   -0.01170  -0.01131  -0.00615  -0.00378  -0.00285

 Mulliken charges:
               1
     1  C    0.204728
     2  C   -0.107679
     3  C    0.179038
     4  C    0.356217
     5  C    0.090696
     6  C    0.334315
     7  C    0.101170
     8  C    0.099465
     9  N   -0.461296
    10  N   -0.460372
    11  N   -0.146521
    12  C    0.114851
    13  C    0.138018
    14  C   -0.216538
    15  C   -0.121022
    16  C   -0.271844
    17  C   -0.118511
    18  C   -0.035116
    19  H    0.118863
    20  C    0.013739
    21  C   -0.055781
    22  H    0.171910
    23  C    0.013399
    24  C   -0.115695
    25  H    0.097037
    26  H    0.094092
    27  C   -0.114228
    28  H    0.096858
    29  H    0.093916
    30  H    0.090582
    31  H    0.089914
    32  N   -0.137610
    33  C    0.136455
    34  C    0.108889
    35  C   -0.264085
    36  C   -0.116354
    37  C   -0.211902
    38  C   -0.123193
    39  C   -0.041663
    40  H    0.149539
    41  C    0.013465
    42  C   -0.038198
    43  H    0.119270
    44  C    0.013185
    45  C   -0.116273
    46  H    0.096750
    47  H    0.094267
    48  C   -0.115638
    49  H    0.096896
    50  H    0.094022
    51  H    0.090121
    52  H    0.090509
    53  N   -0.199837
    54  C    0.089505
    55  C    0.098082
    56  C   -0.268387
    57  C   -0.108567
    58  C   -0.263793
    59  C   -0.112831
    60  C   -0.071711
    61  H    0.225731
    62  C    0.012945
    63  C   -0.059001
    64  H    0.207286
    65  C    0.016181
    66  C   -0.113105
    67  H    0.095643
    68  H    0.092745
    69  C   -0.116469
    70  H    0.095985
    71  H    0.093012
    72  H    0.089416
    73  H    0.089480
    74  Cl  -0.104965
 Sum of Mulliken charges =  -0.00000

 Dipole moment (field-independent basis, Debye):
    X=             -0.0229    Y=             -3.6222    Z=              0.0208  Tot=              3.6224
 Quadrupole moment (field-independent basis, Debye-Ang):
   XX=           -300.1827   YY=           -284.4301   ZZ=           -269.2194
   XY=             -0.1521   XZ=            -20.3336   YZ=              0.3010

 Normal termination of Gaussian 09 at Sat Jul  2 13:36:44 2022.
