 Gaussian 09, Revision E.01,
 Gaussian 09:  ES64L-G09RevE.01 30-Nov-2015

 ----------------------------------------------------------------------
 #p cam-b3lyp/def2TZVP td=(NStates=50) int=ultrafine scrf=(SMD,solvent=
 Acetonitrile) EmpiricalDispersion=GD3BJ
 ----------------------------------------------------------------------

 -----
 Title
 -----
 Symbolic Z-matrix:
 Charge =  0 Multiplicity = 1

                         Standard orientation:
 ---------------------------------------------------------------------
 Center     Atomic      Atomic             Coordinates (Angstroms)
 Number     Number       Type             X           Y           Z
 ---------------------------------------------------------------------
      1          6           0        1.293716   -0.508321    0.154838
      2          6           0        0.213301   -1.372541    0.018574
      3          6           0       -1.073391   -0.870595   -0.148099
      4          6           0       -1.265712    0.510196   -0.188848
      5          6           0       -0.203230    1.393352   -0.026426
      6          6           0        1.072653    0.868418    0.150069
      7          6           0       -2.574603    1.022183   -0.445695
      8          6           0        2.174851    1.748704    0.375232
      9          7           0       -3.620346    1.433228   -0.661290
     10          7           0        3.055221    2.454812    0.563397
     11          7           0        2.595338   -0.995934    0.327151
     12          6           0        3.120182   -1.509852    1.509891
     13          6           0        3.571354   -1.059458   -0.664646
     14          6           0        2.516375   -1.639095    2.749906
     15          6           0        4.447804   -1.902003    1.277858
     16          6           0        3.493419   -0.676769   -1.993744
     17          6           0        4.735878   -1.615153   -0.111730
     18          6           0        3.275186   -2.181486    3.770895
     19          1           0        1.493009   -1.328829    2.914547
     20          6           0        5.190337   -2.442326    2.320841
     21          6           0        4.622776   -0.854410   -2.772033
     22          1           0        2.586963   -0.256119   -2.407935
     23          6           0        5.857164   -1.784437   -0.914857
     24          6           0        4.597224   -2.579781    3.561875
     25          1           0        2.833452   -2.298215    4.751855
     26          1           0        6.216125   -2.749338    2.162344
     27          6           0        5.793155   -1.400484   -2.241337
     28          1           0        4.596137   -0.564106   -3.814161
     29          1           0        6.764570   -2.210924   -0.507026
     30          1           0        5.161789   -2.999654    4.383707
     31          1           0        6.658097   -1.525252   -2.879145
     32          7           0       -2.171448   -1.724557   -0.299553
     33          6           0       -3.135513   -1.982258    0.673409
     34          6           0       -2.476675   -2.460175   -1.442240
     35          6           0       -3.231104   -1.485311    1.962869
     36          6           0       -4.067857   -2.891268    0.149613
     37          6           0       -1.809685   -2.505944   -2.655399
     38          6           0       -3.647759   -3.195322   -1.202355
     39          6           0       -4.298658   -1.914490    2.730307
     40          1           0       -2.502610   -0.788678    2.355394
     41          6           0       -5.130609   -3.308927    0.941317
     42          6           0       -2.339539   -3.320312   -3.639537
     43          1           0       -0.911731   -1.928109   -2.829150
     44          6           0       -4.161652   -4.005018   -2.208037
     45          6           0       -5.239713   -2.815296    2.227986
     46          1           0       -4.403962   -1.543694    3.741449
     47          1           0       -5.859451   -4.009974    0.555472
     48          6           0       -3.501417   -4.063488   -3.421079
     49          1           0       -1.842379   -3.380291   -4.598847
     50          1           0       -5.064873   -4.578220   -2.043060
     51          1           0       -6.062045   -3.130583    2.856309
     52          1           0       -3.888897   -4.689285   -4.213977
     53          7           0       -0.415651    2.775284   -0.036514
     54          6           0        0.004106    3.660899   -1.030518
     55          6           0       -1.095017    3.494938    0.947733
     56          6           0        0.692005    3.399410   -2.204124
     57          6           0       -0.408615    4.955214   -0.679485
     58          6           0       -1.669141    3.041148    2.123820
     59          6           0       -1.109317    4.849302    0.582881
     60          6           0        0.975821    4.474205   -3.026844
     61          1           0        0.997451    2.397088   -2.471734
     62          6           0       -0.113411    6.018754   -1.523380
     63          6           0       -2.278452    3.980043    2.936096
     64          1           0       -1.643543    1.996162    2.401071
     65          6           0       -1.725869    5.774250    1.416455
     66          6           0        0.580790    5.770702   -2.692520
     67          1           0        1.514726    4.303273   -3.949499
     68          1           0       -0.424873    7.023480   -1.268365
     69          6           0       -2.309916    5.331727    2.588440
     70          1           0       -2.738841    3.657365    3.860645
     71          1           0       -1.745866    6.823429    1.151245
     72          1           0        0.819388    6.588103   -3.359882
     73          1           0       -2.795040    6.039107    3.247758
     74         17           0        0.469010   -3.067067    0.063577
 ---------------------------------------------------------------------

 SCF Done:  E(RCAM-B3LYP) =  -2424.93718767     A.U. after   17 cycles

 Excitation energies and oscillator strengths:

 Excited State   1:      Singlet-A      3.4021 eV  364.43 nm  f=0.0596  <S**2>=0.000
     168 -> 171       -0.13705
     170 -> 171        0.67571
 This state for optimization and/or second-order correction.
 Total Energy, E(TD-HF/TD-KS) =  -2424.81216157
 Copying the excited state density for this state as the 1-particle RhoCI density.

 Excited State   2:      Singlet-A      3.5834 eV  346.00 nm  f=0.0344  <S**2>=0.000
     168 -> 171       -0.12680
     169 -> 171        0.67700

 Excited State   3:      Singlet-A      3.7263 eV  332.72 nm  f=0.0018  <S**2>=0.000
     168 -> 171        0.66554
     169 -> 171        0.12556
     170 -> 171        0.13777

 Excited State   4:      Singlet-A      3.8009 eV  326.20 nm  f=0.0829  <S**2>=0.000
     168 -> 172        0.43046
     170 -> 172        0.52905

 Excited State   5:      Singlet-A      4.1386 eV  299.58 nm  f=0.0004  <S**2>=0.000
     166 -> 171       -0.45594
     167 -> 171        0.52334

 Excited State   6:      Singlet-A      4.1458 eV  299.06 nm  f=0.0002  <S**2>=0.000
     165 -> 171        0.12199
     166 -> 171        0.51055
     167 -> 171        0.45959

 Excited State   7:      Singlet-A      4.1916 eV  295.79 nm  f=0.0153  <S**2>=0.000
     168 -> 172        0.52193
     170 -> 172       -0.44484

 Excited State   8:      Singlet-A      4.2547 eV  291.40 nm  f=0.0013  <S**2>=0.000
     165 -> 171        0.68722
     166 -> 171       -0.13406

 Excited State   9:      Singlet-A      4.2671 eV  290.56 nm  f=0.0542  <S**2>=0.000
     168 -> 172       -0.12731
     169 -> 172        0.66374

 Excited State  10:      Singlet-A      4.4766 eV  276.96 nm  f=0.0957  <S**2>=0.000
     167 -> 178       -0.16701
     168 -> 173       -0.12513
     168 -> 174       -0.13977
     169 -> 174       -0.27953
     169 -> 175       -0.36044
     170 -> 174        0.38463
     170 -> 175        0.12832

 Excited State  11:      Singlet-A      4.4841 eV  276.50 nm  f=0.0872  <S**2>=0.000
     165 -> 172        0.19361
     166 -> 177        0.12890
     168 -> 174       -0.20062
     168 -> 175        0.30097
     169 -> 173        0.22859
     169 -> 174        0.22274
     170 -> 173        0.35162
     170 -> 175       -0.16177

 Excited State  12:      Singlet-A      4.4893 eV  276.18 nm  f=0.0050  <S**2>=0.000
     165 -> 172        0.64161
     166 -> 172       -0.15301

 Excited State  13:      Singlet-A      4.4979 eV  275.65 nm  f=0.0220  <S**2>=0.000
     165 -> 176       -0.18075
     168 -> 173        0.43203
     168 -> 174       -0.12812
     169 -> 174       -0.22818
     170 -> 173        0.16604
     170 -> 174       -0.12148
     170 -> 175        0.33261

 Excited State  14:      Singlet-A      4.7641 eV  260.25 nm  f=0.0205  <S**2>=0.000
     166 -> 172       -0.30295
     166 -> 173        0.19190
     166 -> 174        0.20595
     166 -> 175       -0.14793
     167 -> 172        0.43655
     167 -> 174        0.17401
     167 -> 175        0.20898

 Excited State  15:      Singlet-A      4.7710 eV  259.87 nm  f=0.1366  <S**2>=0.000
     161 -> 171       -0.12314
     165 -> 172        0.11311
     165 -> 173        0.10870
     165 -> 175        0.12913
     166 -> 172        0.37586
     166 -> 173       -0.18735
     166 -> 175        0.17850
     167 -> 172        0.29619
     167 -> 174        0.27259
     167 -> 175        0.14119

 Excited State  16:      Singlet-A      4.7925 eV  258.70 nm  f=0.0645  <S**2>=0.000
     157 -> 172        0.13527
     160 -> 172        0.14347
     161 -> 171        0.41854
     165 -> 173       -0.18551
     165 -> 175       -0.13300
     166 -> 172        0.32119
     167 -> 172        0.20345
     167 -> 174       -0.10085

 Excited State  17:      Singlet-A      4.8035 eV  258.11 nm  f=0.1629  <S**2>=0.000
     160 -> 172        0.10142
     161 -> 171        0.32822
     165 -> 173        0.41817
     165 -> 174       -0.18547
     165 -> 175        0.23644
     167 -> 172       -0.12662

 Excited State  18:      Singlet-A      4.8082 eV  257.86 nm  f=0.0495  <S**2>=0.000
     165 -> 174       -0.10942
     166 -> 172       -0.21991
     166 -> 173       -0.19296
     166 -> 174       -0.19120
     166 -> 175        0.10375
     167 -> 172        0.37543
     167 -> 174       -0.26881
     167 -> 175       -0.28907

 Excited State  19:      Singlet-A      4.8273 eV  256.84 nm  f=0.5424  <S**2>=0.000
     161 -> 171        0.23147
     165 -> 173       -0.19840
     166 -> 172       -0.28393
     166 -> 173       -0.20161
     166 -> 174       -0.15621
     166 -> 175        0.28636
     167 -> 172       -0.10061
     167 -> 174        0.25801
     167 -> 175        0.12377

 Excited State  20:      Singlet-A      5.2863 eV  234.54 nm  f=0.0195  <S**2>=0.000
     164 -> 171        0.67954

 Excited State  21:      Singlet-A      5.3231 eV  232.92 nm  f=0.0002  <S**2>=0.000
     157 -> 171        0.12282
     160 -> 171        0.13550
     161 -> 172       -0.12945
     162 -> 171        0.63871
     163 -> 171       -0.11956

 Excited State  22:      Singlet-A      5.3456 eV  231.94 nm  f=0.0768  <S**2>=0.000
     157 -> 171        0.34436
     160 -> 171        0.41259
     161 -> 172       -0.34304
     162 -> 171       -0.22897

 Excited State  23:      Singlet-A      5.4095 eV  229.20 nm  f=0.0215  <S**2>=0.000
     162 -> 171        0.11520
     163 -> 171        0.68675

 Excited State  24:      Singlet-A      5.4576 eV  227.18 nm  f=0.0135  <S**2>=0.000
     162 -> 174        0.21524
     164 -> 175       -0.20041
     166 -> 181       -0.13408
     167 -> 180        0.12674
     167 -> 181       -0.16089
     167 -> 182        0.11436
     168 -> 177       -0.16026
     169 -> 176        0.11721
     169 -> 178        0.30972
     170 -> 177        0.28137
     170 -> 178       -0.12056

 Excited State  25:      Singlet-A      5.4652 eV  226.86 nm  f=0.0475  <S**2>=0.000
     162 -> 175       -0.17468
     163 -> 173       -0.15774
     164 -> 173        0.11180
     164 -> 174        0.16400
     165 -> 182       -0.12871
     166 -> 180       -0.15916
     166 -> 181       -0.10973
     167 -> 181        0.12379
     168 -> 176        0.12316
     168 -> 177       -0.15077
     168 -> 178       -0.18027
     169 -> 177        0.23880
     170 -> 176        0.25773
     170 -> 178        0.13949

 Excited State  26:      Singlet-A      5.4925 eV  225.73 nm  f=0.2808  <S**2>=0.000
     162 -> 175        0.10281
     163 -> 173       -0.22309
     163 -> 174        0.10444
     163 -> 175       -0.14886
     164 -> 174       -0.13162
     165 -> 180        0.19547
     165 -> 182       -0.17249
     166 -> 182        0.10147
     167 -> 181       -0.11327
     168 -> 176        0.29668
     168 -> 187       -0.10627
     169 -> 177       -0.15872
     170 -> 176        0.14374
     170 -> 178       -0.19352

 Excited State  27:      Singlet-A      5.6540 eV  219.29 nm  f=0.1217  <S**2>=0.000
     162 -> 172        0.10031
     163 -> 172        0.65241

 Excited State  28:      Singlet-A      5.7506 eV  215.60 nm  f=1.2084  <S**2>=0.000
     157 -> 171        0.17686
     160 -> 171        0.27797
     161 -> 172        0.48291
     164 -> 172       -0.18582
     165 -> 176       -0.18322

 Excited State  29:      Singlet-A      5.7967 eV  213.89 nm  f=0.0612  <S**2>=0.000
     166 -> 177       -0.22756
     167 -> 176        0.10473
     167 -> 177       -0.15644
     167 -> 178        0.30856
     168 -> 181        0.11176
     169 -> 180       -0.15684
     169 -> 182       -0.13046
     170 -> 174        0.19505
     170 -> 176        0.12389
     170 -> 179        0.10028
     170 -> 181       -0.19718

 Excited State  30:      Singlet-A      5.8014 eV  213.71 nm  f=0.3607  <S**2>=0.000
     157 -> 172        0.11080
     160 -> 172        0.12490
     162 -> 174        0.10181
     164 -> 175       -0.10292
     165 -> 176       -0.19925
     165 -> 178        0.11574
     166 -> 176        0.16933
     166 -> 177        0.26241
     166 -> 178        0.13834
     168 -> 182       -0.14484
     169 -> 178       -0.10929
     169 -> 181        0.11373
     170 -> 173       -0.18330
     170 -> 177       -0.14635
     170 -> 180        0.16580

 Excited State  31:      Singlet-A      5.8051 eV  213.58 nm  f=0.9219  <S**2>=0.000
     157 -> 172        0.28722
     160 -> 172        0.32786
     161 -> 171       -0.20024
     163 -> 173        0.12583
     165 -> 176        0.11062
     166 -> 177        0.11369
     167 -> 177        0.12049
     167 -> 178       -0.20749
     168 -> 176        0.10809
     170 -> 176        0.11981

 Excited State  32:      Singlet-A      5.8194 eV  213.05 nm  f=0.0370  <S**2>=0.000
     162 -> 174       -0.17966
     164 -> 172        0.18640
     164 -> 175        0.17198
     166 -> 177        0.11675
     166 -> 178        0.10414
     167 -> 177       -0.11368
     167 -> 178        0.10519
     168 -> 177       -0.15899
     169 -> 178        0.24847
     169 -> 181        0.12298
     170 -> 177        0.22001
     170 -> 180        0.13747

 Excited State  33:      Singlet-A      5.8277 eV  212.75 nm  f=0.4395  <S**2>=0.000
     157 -> 172       -0.13602
     160 -> 172       -0.16499
     162 -> 175        0.16102
     163 -> 172       -0.10802
     163 -> 173        0.14483
     164 -> 174       -0.15868
     165 -> 176       -0.10468
     167 -> 174       -0.10127
     168 -> 176        0.11181
     168 -> 178       -0.16640
     169 -> 177        0.19514
     170 -> 176        0.19033
     170 -> 178        0.14757
     170 -> 181        0.10597

 Excited State  34:      Singlet-A      5.8336 eV  212.54 nm  f=0.0507  <S**2>=0.000
     164 -> 172       -0.11401
     165 -> 176        0.35657
     166 -> 177        0.18208
     166 -> 178        0.16756
     167 -> 177       -0.15879
     167 -> 178        0.14445
     168 -> 180       -0.20117
     169 -> 181        0.12831
     170 -> 175        0.17600
     170 -> 182        0.17526

 Excited State  35:      Singlet-A      5.8765 eV  210.98 nm  f=2.3821  <S**2>=0.000
     157 -> 172       -0.12016
     160 -> 172       -0.13202
     162 -> 172       -0.17063
     162 -> 175       -0.11586
     163 -> 173        0.17764
     163 -> 175        0.12991
     164 -> 174        0.14654
     165 -> 173       -0.12937
     168 -> 176        0.27905
     169 -> 177       -0.20259
     170 -> 176        0.10746
     170 -> 178       -0.25190

 Excited State  36:      Singlet-A      5.9403 eV  208.72 nm  f=0.1769  <S**2>=0.000
     161 -> 172        0.18729
     164 -> 172        0.61664

 Excited State  37:      Singlet-A      5.9718 eV  207.62 nm  f=0.0648  <S**2>=0.000
     162 -> 172        0.65828

 Excited State  38:      Singlet-A      6.0210 eV  205.92 nm  f=0.0585  <S**2>=0.000
     168 -> 173        0.17485
     168 -> 174        0.25191
     169 -> 173       -0.15460
     169 -> 174        0.15798
     169 -> 175        0.24417
     170 -> 173        0.20746
     170 -> 174        0.45749

 Excited State  39:      Singlet-A      6.0322 eV  205.54 nm  f=0.0069  <S**2>=0.000
     168 -> 173       -0.11277
     168 -> 174        0.13839
     168 -> 175       -0.25608
     169 -> 173       -0.15279
     169 -> 174       -0.25833
     170 -> 173        0.44028
     170 -> 174       -0.19088
     170 -> 175       -0.21638

 Excited State  40:      Singlet-A      6.0522 eV  204.86 nm  f=0.0032  <S**2>=0.000
     168 -> 173       -0.36320
     168 -> 174        0.12230
     169 -> 174        0.20062
     170 -> 173        0.19046
     170 -> 175        0.49623

 Excited State  41:      Singlet-A      6.1209 eV  202.56 nm  f=0.0187  <S**2>=0.000
     156 -> 171       -0.10003
     158 -> 171       -0.20493
     159 -> 171        0.47032
     168 -> 174        0.13259
     169 -> 173        0.34240
     169 -> 174       -0.12561
     169 -> 175        0.13991
     170 -> 179       -0.13019

 Excited State  42:      Singlet-A      6.1238 eV  202.46 nm  f=0.0022  <S**2>=0.000
     158 -> 171       -0.14366
     159 -> 171        0.39723
     168 -> 174       -0.12932
     169 -> 173       -0.39378
     169 -> 174        0.15686
     169 -> 175       -0.16539
     170 -> 179        0.22063

 Excited State  43:      Singlet-A      6.1502 eV  201.59 nm  f=0.0377  <S**2>=0.000
     168 -> 173        0.11402
     168 -> 174        0.30980
     169 -> 173        0.25615
     169 -> 175       -0.14864
     170 -> 179        0.42939

 Excited State  44:      Singlet-A      6.1748 eV  200.79 nm  f=0.0136  <S**2>=0.000
     168 -> 173       -0.25054
     168 -> 174       -0.16985
     168 -> 175        0.18854
     169 -> 174       -0.26735
     169 -> 175        0.41668
     170 -> 179        0.23526

 Excited State  45:      Singlet-A      6.1772 eV  200.71 nm  f=0.0349  <S**2>=0.000
     157 -> 171        0.47170
     160 -> 171       -0.42962
     168 -> 174        0.12558
     169 -> 175       -0.11375

 Excited State  46:      Singlet-A      6.1827 eV  200.53 nm  f=0.0024  <S**2>=0.000
     157 -> 171       -0.13705
     168 -> 174        0.34282
     168 -> 175        0.49204
     169 -> 173       -0.16311
     169 -> 174       -0.19629
     169 -> 175       -0.12320

 Excited State  47:      Singlet-A      6.2264 eV  199.13 nm  f=0.0399  <S**2>=0.000
     158 -> 171        0.42940
     159 -> 171        0.20402
     161 -> 171        0.14299
     166 -> 177        0.11361
     167 -> 178       -0.11271
     168 -> 179       -0.11050
     169 -> 180       -0.13509
     170 -> 179       -0.19141
     170 -> 181       -0.21254

 Excited State  48:      Singlet-A      6.2507 eV  198.35 nm  f=0.0433  <S**2>=0.000
     157 -> 171        0.20732
     159 -> 175       -0.10383
     161 -> 172        0.17205
     165 -> 176        0.13034
     166 -> 177       -0.11362
     166 -> 178       -0.10063
     167 -> 177        0.13920
     167 -> 178       -0.13152
     168 -> 175        0.16062
     168 -> 182       -0.19592
     169 -> 179       -0.19000
     169 -> 181        0.19146
     170 -> 180        0.26707

 Excited State  49:      Singlet-A      6.2720 eV  197.68 nm  f=0.0074  <S**2>=0.000
     158 -> 173       -0.10850
     161 -> 172        0.11851
     163 -> 176        0.11480
     165 -> 176        0.24648
     165 -> 187        0.13073
     166 -> 178        0.10303
     168 -> 180        0.26679
     168 -> 182       -0.15367
     169 -> 179        0.21892
     169 -> 181       -0.10141
     170 -> 182       -0.25113

 Excited State  50:      Singlet-A      6.2807 eV  197.40 nm  f=0.0069  <S**2>=0.000
     157 -> 172        0.12015
     158 -> 171        0.43749
     159 -> 171        0.20102
     160 -> 172        0.12810
     166 -> 177       -0.13868
     167 -> 178        0.12993
     168 -> 179        0.13871
     169 -> 180        0.14456
     169 -> 182        0.10225
     170 -> 181        0.20353

 The electronic state is 1-A.
 Alpha  occ. eigenvalues -- -101.62572 -14.45286 -14.45039 -14.44957 -14.41420
 Alpha  occ. eigenvalues --  -14.41407 -10.35180 -10.35167 -10.35048 -10.35006
 Alpha  occ. eigenvalues --  -10.33043 -10.33024 -10.31457 -10.31449 -10.29513
 Alpha  occ. eigenvalues --  -10.29493 -10.29449 -10.29420 -10.29394 -10.29374
 Alpha  occ. eigenvalues --  -10.25611 -10.25574 -10.25569 -10.25543 -10.25532
 Alpha  occ. eigenvalues --  -10.25505 -10.25151 -10.25147 -10.25114 -10.25094
 Alpha  occ. eigenvalues --  -10.25092 -10.25074 -10.25070 -10.25065 -10.25058
 Alpha  occ. eigenvalues --  -10.25052 -10.25047 -10.25038 -10.24900 -10.24893
 Alpha  occ. eigenvalues --  -10.24886 -10.24877 -10.24872 -10.24864 -10.24253
 Alpha  occ. eigenvalues --  -10.24249 -10.24221 -10.24219 -10.24204 -10.24198
 Alpha  occ. eigenvalues --   -9.55891  -7.32200  -7.31282  -7.31207  -1.11108
 Alpha  occ. eigenvalues --   -1.10092  -1.10019  -1.02910  -1.02234  -1.01438
 Alpha  occ. eigenvalues --   -0.97971  -0.96115  -0.95030  -0.94419  -0.94366
 Alpha  occ. eigenvalues --   -0.94339  -0.93574  -0.90963  -0.89018  -0.87065
 Alpha  occ. eigenvalues --   -0.86909  -0.85505  -0.84325  -0.84263  -0.84230
 Alpha  occ. eigenvalues --   -0.82904  -0.82051  -0.81561  -0.80726  -0.80695
 Alpha  occ. eigenvalues --   -0.80674  -0.77090  -0.76533  -0.73793  -0.71837
 Alpha  occ. eigenvalues --   -0.71678  -0.69584  -0.69364  -0.69297  -0.69180
 Alpha  occ. eigenvalues --   -0.68395  -0.66870  -0.65982  -0.65937  -0.65879
 Alpha  occ. eigenvalues --   -0.65646  -0.64759  -0.62896  -0.61608  -0.60569
 Alpha  occ. eigenvalues --   -0.60062  -0.59640  -0.59617  -0.58707  -0.58220
 Alpha  occ. eigenvalues --   -0.57597  -0.56880  -0.54194  -0.54161  -0.53884
 Alpha  occ. eigenvalues --   -0.53562  -0.53507  -0.52945  -0.52911  -0.52485
 Alpha  occ. eigenvalues --   -0.51572  -0.51228  -0.51113  -0.51064  -0.50694
 Alpha  occ. eigenvalues --   -0.50597  -0.50517  -0.50205  -0.50178  -0.50118
 Alpha  occ. eigenvalues --   -0.50095  -0.49419  -0.48967  -0.48795  -0.48773
 Alpha  occ. eigenvalues --   -0.47290  -0.47031  -0.46847  -0.46672  -0.44444
 Alpha  occ. eigenvalues --   -0.44019  -0.43913  -0.43564  -0.43513  -0.43475
 Alpha  occ. eigenvalues --   -0.43453  -0.43396  -0.43312  -0.43289  -0.43229
 Alpha  occ. eigenvalues --   -0.41972  -0.41204  -0.41174  -0.40977  -0.40855
 Alpha  occ. eigenvalues --   -0.40831  -0.40707  -0.40611  -0.40467  -0.40406
 Alpha  occ. eigenvalues --   -0.39828  -0.35568  -0.35372  -0.35250  -0.35041
 Alpha  occ. eigenvalues --   -0.33913  -0.32278  -0.32267  -0.32145  -0.27820
 Alpha  occ. eigenvalues --   -0.27782  -0.27760  -0.27278  -0.27224  -0.26640
 Alpha virt. eigenvalues --   -0.05523  -0.03665  -0.00263  -0.00255  -0.00095
 Alpha virt. eigenvalues --    0.03422   0.03549   0.03585   0.04344   0.04963
 Alpha virt. eigenvalues --    0.05230   0.05546   0.06249   0.06523   0.06902

 Mulliken charges:
               1
     1  C   -0.045488
     2  C    0.083102
     3  C   -0.016662
     4  C    0.194328
     5  C   -0.029143
     6  C    0.217615
     7  C   -0.194187
     8  C   -0.203892
     9  N    0.029793
    10  N    0.029318
    11  N    0.016281
    12  C    0.109460
    13  C    0.107643
    14  C   -0.259637
    15  C    0.009283
    16  C   -0.259983
    17  C    0.008431
    18  C   -0.151410
    19  H    0.179027
    20  C   -0.227890
    21  C   -0.150884
    22  H    0.186751
    23  C   -0.228760
    24  C   -0.172657
    25  H    0.167019
    26  H    0.166584
    27  C   -0.174231
    28  H    0.166379
    29  H    0.166826
    30  H    0.163301
    31  H    0.163105
    32  N    0.012924
    33  C    0.106178
    34  C    0.108966
    35  C   -0.262069
    36  C    0.006775
    37  C   -0.257248
    38  C    0.002635
    39  C   -0.150820
    40  H    0.191182
    41  C   -0.226506
    42  C   -0.151058
    43  H    0.182894
    44  C   -0.225949
    45  C   -0.175404
    46  H    0.166550
    47  H    0.166864
    48  C   -0.173921
    49  H    0.167023
    50  H    0.166710
    51  H    0.163095
    52  H    0.163395
    53  N    0.001093
    54  C    0.109455
    55  C    0.108497
    56  C   -0.269882
    57  C   -0.000933
    58  C   -0.270010
    59  C   -0.001099
    60  C   -0.142600
    61  H    0.190412
    62  C   -0.221679
    63  C   -0.144150
    64  H    0.192253
    65  C   -0.220554
    66  C   -0.178335
    67  H    0.166948
    68  H    0.166958
    69  C   -0.178410
    70  H    0.166837
    71  H    0.166990
    72  H    0.163351
    73  H    0.163277
    74  Cl  -0.000061
 Sum of Mulliken charges =  -0.00000

 Dipole moment (field-independent basis, Debye):
    X=              0.4386    Y=             -3.6033    Z=              0.0641  Tot=              3.6305
 Quadrupole moment (field-independent basis, Debye-Ang):
   XX=           -309.6466   YY=           -292.4350   ZZ=           -263.8101
   XY=             -3.2456   XZ=            -18.7793   YZ=             -1.4067

 Normal termination of Gaussian 09 at Sat Jul  2 15:19:27 2022.
