 Gaussian 09, Revision E.01,
 Gaussian 09:  ES64L-G09RevE.01 30-Nov-2015

 ----------------------------------------------------------------------
 #p m062x/def2TZVP td=(NStates=50) int=ultrafine scrf=(SMD,solvent=Acet
 onitrile)
 ----------------------------------------------------------------------

 -----
 Title
 -----
 Symbolic Z-matrix:
 Charge =  0 Multiplicity = 1

                         Standard orientation:
 ---------------------------------------------------------------------
 Center     Atomic      Atomic             Coordinates (Angstroms)
 Number     Number       Type             X           Y           Z
 ---------------------------------------------------------------------
      1          6           0       -1.199867   -0.739910   -0.176123
      2          6           0       -0.002995   -1.438824   -0.010985
      3          6           0        1.197916   -0.747943    0.160290
      4          6           0        1.186053    0.652143    0.183034
      5          6           0        0.005047    1.372668   -0.003089
      6          6           0       -1.179941    0.659908   -0.192864
      7          6           0        2.400432    1.348589    0.485135
      8          6           0       -2.391319    1.364932   -0.486483
      9          7           0        3.371388    1.903949    0.737682
     10          7           0       -3.359706    1.928148   -0.731303
     11          7           0       -2.414814   -1.409316   -0.355064
     12          6           0       -2.777905   -2.173083   -1.465405
     13          6           0       -3.495759   -1.357595    0.527345
     14          6           0       -2.044193   -2.459570   -2.609779
     15          6           0       -4.096479   -2.626396   -1.286346
     16          6           0       -3.589744   -0.718604    1.757223
     17          6           0       -4.554210   -2.107139   -0.013506
     18          6           0       -2.659396   -3.237366   -3.577796
     19          1           0       -1.036007   -2.088071   -2.745708
     20          6           0       -4.693083   -3.406690   -2.274288
     21          6           0       -4.788633   -0.838561    2.442237
     22          1           0       -2.762072   -0.152015    2.166752
     23          6           0       -5.747717   -2.216277    0.696498
     24          6           0       -3.966725   -3.710573   -3.413473
     25          1           0       -2.115249   -3.481119   -4.481394
     26          1           0       -5.708528   -3.762998   -2.151995
     27          6           0       -5.857155   -1.577140    1.920439
     28          1           0       -4.897642   -0.350627    3.402478
     29          1           0       -6.573250   -2.791385    0.295422
     30          1           0       -4.414090   -4.315778   -4.191226
     31          1           0       -6.778202   -1.649299    2.484139
     32          7           0        2.406786   -1.426421    0.345806
     33          6           0        3.497727   -1.381490   -0.524880
     34          6           0        2.751919   -2.195711    1.458266
     35          6           0        3.612030   -0.739845   -1.751643
     36          6           0        4.543510   -2.142232    0.025403
     37          6           0        2.003715   -2.477855    2.594227
     38          6           0        4.068054   -2.660368    1.292021
     39          6           0        4.817177   -0.869947   -2.423783
     40          1           0        2.795253   -0.163568   -2.169061
     41          6           0        5.743536   -2.261477   -0.671657
     42          6           0        2.601487   -3.263597    3.566674
     43          1           0        0.997703   -2.097249    2.720488
     44          6           0        4.647178   -3.448269    2.284195
     45          6           0        5.872630   -1.620623   -1.892684
     46          1           0        4.941557   -0.380395   -3.381315
     47          1           0        6.558619   -2.846027   -0.262958
     48          6           0        3.906150   -3.748224    3.414928
     49          1           0        2.045668   -3.504769    4.463859
     50          1           0        5.660682   -3.813282    2.171866
     51          1           0        6.798914   -1.700518   -2.446642
     52          1           0        4.340073   -4.359233    4.195737
     53          7           0        0.009071    2.768894    0.000071
     54          6           0       -0.701218    3.587822    0.885063
     55          6           0        0.725780    3.582161   -0.884333
     56          6           0       -1.520864    3.230489    1.948871
     57          6           0       -0.435676    4.929863    0.564747
     58          6           0        1.541081    3.216244   -1.948096
     59          6           0        0.472605    4.926180   -0.563664
     60          6           0       -2.091866    4.258236    2.682540
     61          1           0       -1.708088    2.194898    2.204913
     62          6           0       -1.019460    5.945388    1.318443
     63          6           0        2.122077    4.238102   -2.682046
     64          1           0        1.716131    2.177941   -2.201976
     65          6           0        1.066456    5.935812   -1.317309
     66          6           0       -1.849334    5.601112    2.372022
     67          1           0       -2.738208    4.012767    3.515570
     68          1           0       -0.822115    6.983955    1.083024
     69          6           0        1.892883    5.583323   -2.370897
     70          1           0        2.765790    3.986561   -3.515255
     71          1           0        0.879639    6.976366   -1.082076
     72          1           0       -2.313195    6.376486    2.967763
     73          1           0        2.364496    6.354200   -2.966358
     74         17           0       -0.009317   -3.151152   -0.016896
 ---------------------------------------------------------------------

 SCF Done:  E(RM062X) =  -2425.12005875     A.U. after   20 cycles

 Excitation energies and oscillator strengths:

 Excited State   1:      Singlet-A      3.3608 eV  368.91 nm  f=0.1503  <S**2>=0.000
     168 -> 171       -0.15637
     170 -> 171        0.67165
 This state for optimization and/or second-order correction.
 Total Energy, E(TD-HF/TD-KS) =  -2424.99655209
 Copying the excited state density for this state as the 1-particle RhoCI density.

 Excited State   2:      Singlet-A      3.5370 eV  350.54 nm  f=0.0882  <S**2>=0.000
     169 -> 171        0.68890

 Excited State   3:      Singlet-A      3.6979 eV  335.28 nm  f=0.0012  <S**2>=0.000
     168 -> 171        0.67136
     170 -> 171        0.15202

 Excited State   4:      Singlet-A      3.7838 eV  327.67 nm  f=0.1528  <S**2>=0.000
     168 -> 172        0.41970
     170 -> 172        0.54757

 Excited State   5:      Singlet-A      4.0711 eV  304.55 nm  f=0.0003  <S**2>=0.000
     167 -> 171        0.69573

 Excited State   6:      Singlet-A      4.0793 eV  303.93 nm  f=0.0001  <S**2>=0.000
     165 -> 171       -0.21064
     166 -> 171        0.66467

 Excited State   7:      Singlet-A      4.1893 eV  295.95 nm  f=0.0218  <S**2>=0.000
     168 -> 172        0.54350
     170 -> 172       -0.42376

 Excited State   8:      Singlet-A      4.1960 eV  295.48 nm  f=0.1397  <S**2>=0.000
     169 -> 172        0.66848

 Excited State   9:      Singlet-A      4.2101 eV  294.49 nm  f=0.0018  <S**2>=0.000
     165 -> 171        0.66928
     166 -> 171        0.21070

 Excited State  10:      Singlet-A      4.4437 eV  279.01 nm  f=0.0023  <S**2>=0.000
     165 -> 172        0.64773
     166 -> 172        0.24721

 Excited State  11:      Singlet-A      4.5130 eV  274.73 nm  f=0.0918  <S**2>=0.000
     165 -> 176       -0.12533
     168 -> 173        0.29323
     168 -> 175       -0.30230
     169 -> 174        0.25108
     170 -> 173        0.41881

 Excited State  12:      Singlet-A      4.5141 eV  274.66 nm  f=0.0755  <S**2>=0.000
     166 -> 178        0.12180
     167 -> 177        0.10680
     168 -> 174       -0.27030
     169 -> 173        0.18543
     169 -> 175        0.38842
     170 -> 174        0.38954

 Excited State  13:      Singlet-A      4.5247 eV  274.02 nm  f=0.0008  <S**2>=0.000
     165 -> 176        0.12919
     166 -> 177       -0.11709
     167 -> 178       -0.12398
     168 -> 173       -0.35058
     169 -> 174        0.36392
     170 -> 175        0.38414

 Excited State  14:      Singlet-A      4.7087 eV  263.31 nm  f=0.0191  <S**2>=0.000
     166 -> 174        0.11941
     167 -> 172        0.67152

 Excited State  15:      Singlet-A      4.7175 eV  262.82 nm  f=0.0483  <S**2>=0.000
     165 -> 172       -0.24748
     166 -> 172        0.62848
     167 -> 174        0.12076

 Excited State  16:      Singlet-A      4.8385 eV  256.25 nm  f=0.0659  <S**2>=0.000
     161 -> 171       -0.14920
     164 -> 171        0.13178
     165 -> 173       -0.29636
     165 -> 175        0.25499
     166 -> 172       -0.13201
     166 -> 173       -0.25908
     166 -> 175       -0.21880
     167 -> 174        0.33238

 Excited State  17:      Singlet-A      4.8508 eV  255.60 nm  f=0.0676  <S**2>=0.000
     165 -> 174       -0.15418
     166 -> 174        0.42331
     167 -> 172       -0.16685
     167 -> 173       -0.19157
     167 -> 175       -0.40516

 Excited State  18:      Singlet-A      4.8597 eV  255.13 nm  f=0.4632  <S**2>=0.000
     161 -> 171       -0.24638
     164 -> 171        0.16267
     165 -> 173        0.45977
     165 -> 175       -0.13223
     166 -> 175       -0.24005
     167 -> 174        0.19957

 Excited State  19:      Singlet-A      4.9047 eV  252.79 nm  f=0.4170  <S**2>=0.000
     157 -> 172       -0.11239
     158 -> 171       -0.11517
     160 -> 172       -0.16061
     161 -> 171        0.48342
     164 -> 171       -0.16444
     165 -> 173        0.14143
     166 -> 175       -0.21235
     167 -> 174        0.23281
     169 -> 172        0.13841

 Excited State  20:      Singlet-A      5.1988 eV  238.49 nm  f=0.0666  <S**2>=0.000
     161 -> 171        0.23001
     164 -> 171        0.63780

 Excited State  21:      Singlet-A      5.2495 eV  236.18 nm  f=0.0268  <S**2>=0.000
     162 -> 171        0.52660
     163 -> 171        0.44216

 Excited State  22:      Singlet-A      5.3296 eV  232.63 nm  f=0.0001  <S**2>=0.000
     160 -> 171       -0.10582
     162 -> 171       -0.43963
     163 -> 171        0.51916

 Excited State  23:      Singlet-A      5.4495 eV  227.51 nm  f=0.1003  <S**2>=0.000
     157 -> 171        0.25806
     160 -> 171        0.51632
     161 -> 172        0.29203
     163 -> 171        0.12055
     164 -> 172       -0.15005

 Excited State  24:      Singlet-A      5.5146 eV  224.83 nm  f=0.0112  <S**2>=0.000
     162 -> 174        0.18332
     163 -> 174        0.10220
     164 -> 172        0.14362
     164 -> 175       -0.18456
     166 -> 181       -0.16125
     167 -> 179       -0.14016
     168 -> 177        0.12004
     168 -> 178       -0.18001
     169 -> 176       -0.19605
     169 -> 177       -0.27365
     170 -> 177       -0.14899
     170 -> 178        0.27425

 Excited State  25:      Singlet-A      5.5189 eV  224.65 nm  f=0.0405  <S**2>=0.000
     162 -> 175       -0.16002
     163 -> 173       -0.17366
     164 -> 174        0.17325
     165 -> 182       -0.12318
     166 -> 179       -0.13303
     167 -> 181       -0.14025
     168 -> 176        0.12385
     168 -> 177       -0.22328
     168 -> 178       -0.13356
     169 -> 178       -0.26387
     170 -> 176        0.34101

 Excited State  26:      Singlet-A      5.5389 eV  223.84 nm  f=0.1498  <S**2>=0.000
     162 -> 173       -0.15356
     163 -> 172        0.31140
     163 -> 173        0.16765
     163 -> 175       -0.12876
     164 -> 174        0.13229
     165 -> 179        0.13839
     165 -> 182        0.14385
     166 -> 182        0.10085
     167 -> 181       -0.11221
     168 -> 176       -0.26844
     169 -> 178       -0.16844
     170 -> 177        0.21153
     170 -> 178        0.10401

 Excited State  27:      Singlet-A      5.6006 eV  221.38 nm  f=0.4107  <S**2>=0.000
     162 -> 172       -0.29521
     163 -> 172        0.49777
     168 -> 176        0.20676
     170 -> 176        0.13729
     170 -> 177       -0.12438

 Excited State  28:      Singlet-A      5.7086 eV  217.19 nm  f=0.9571  <S**2>=0.000
     160 -> 171        0.27462
     161 -> 172       -0.35360
     164 -> 172        0.42021
     165 -> 176        0.13813
     165 -> 177       -0.10451
     170 -> 173        0.10102

 Excited State  29:      Singlet-A      5.7593 eV  215.28 nm  f=0.1851  <S**2>=0.000
     166 -> 177        0.10219
     166 -> 178       -0.17702
     167 -> 176       -0.11697
     167 -> 177       -0.15558
     168 -> 174        0.19363
     169 -> 175       -0.13933
     170 -> 174        0.51728

 Excited State  30:      Singlet-A      5.7815 eV  214.45 nm  f=0.0145  <S**2>=0.000
     161 -> 172        0.23251
     162 -> 174        0.15351
     164 -> 172        0.10084
     164 -> 175       -0.15273
     166 -> 181       -0.10289
     167 -> 178        0.11951
     168 -> 175        0.11119
     169 -> 174       -0.12117
     169 -> 177        0.10906
     170 -> 173        0.30159
     170 -> 175        0.21678
     170 -> 178       -0.13831

 Excited State  31:      Singlet-A      5.7837 eV  214.37 nm  f=0.0201  <S**2>=0.000
     161 -> 172       -0.15921
     162 -> 174       -0.11552
     164 -> 172       -0.29055
     164 -> 175        0.11208
     165 -> 176        0.17585
     165 -> 177       -0.11425
     166 -> 176        0.12528
     167 -> 178        0.10386
     168 -> 175        0.11360
     168 -> 178       -0.11418
     169 -> 177       -0.16095
     170 -> 173        0.30162
     170 -> 175        0.15548
     170 -> 178        0.12939

 Excited State  32:      Singlet-A      5.7970 eV  213.88 nm  f=0.3387  <S**2>=0.000
     162 -> 172        0.20693
     162 -> 175       -0.18407
     163 -> 172        0.22597
     163 -> 173       -0.20763
     164 -> 174        0.19900
     165 -> 182       -0.11819
     166 -> 179       -0.10300
     167 -> 174       -0.10919
     168 -> 177        0.16869
     169 -> 178        0.19764
     170 -> 174        0.10266
     170 -> 176       -0.20615

 Excited State  33:      Singlet-A      5.8062 eV  213.54 nm  f=0.8881  <S**2>=0.000
     157 -> 172        0.19641
     160 -> 172        0.33566
     161 -> 171        0.16262
     162 -> 172        0.11176
     162 -> 173       -0.12599
     163 -> 173        0.15227
     163 -> 175       -0.12334
     166 -> 178        0.13430
     167 -> 176        0.10849
     167 -> 177        0.12026
     168 -> 174        0.13912
     168 -> 176        0.12891
     169 -> 173       -0.10346
     170 -> 177       -0.13457

 Excited State  34:      Singlet-A      5.8082 eV  213.47 nm  f=0.0489  <S**2>=0.000
     165 -> 176       -0.25507
     165 -> 177        0.10328
     168 -> 173        0.18056
     169 -> 174       -0.14919
     170 -> 173       -0.15968
     170 -> 175        0.47870

 Excited State  35:      Singlet-A      5.8510 eV  211.90 nm  f=0.5577  <S**2>=0.000
     162 -> 172        0.11129
     166 -> 177        0.13282
     166 -> 178       -0.21791
     167 -> 176       -0.13883
     167 -> 177       -0.20105
     167 -> 178       -0.11185
     168 -> 174       -0.19066
     168 -> 176        0.11184
     168 -> 181        0.11004
     169 -> 173        0.22175
     169 -> 175        0.17576
     169 -> 179        0.16929
     170 -> 174       -0.15786
     170 -> 177       -0.12110
     170 -> 181       -0.15452

 Excited State  36:      Singlet-A      5.8545 eV  211.78 nm  f=0.0160  <S**2>=0.000
     166 -> 176        0.16427
     166 -> 177        0.22828
     167 -> 177       -0.11093
     167 -> 178        0.29016
     168 -> 175       -0.16836
     169 -> 174        0.31990
     169 -> 181       -0.17905
     170 -> 173       -0.17779
     170 -> 179        0.17066

 Excited State  37:      Singlet-A      5.8753 eV  211.03 nm  f=0.9768  <S**2>=0.000
     157 -> 172        0.19249
     160 -> 172        0.32419
     161 -> 171        0.17757
     162 -> 172       -0.26547
     163 -> 173       -0.17658
     165 -> 173        0.10118
     168 -> 176       -0.18418
     169 -> 179        0.12331
     170 -> 176       -0.10841
     170 -> 177        0.11884
     170 -> 181       -0.14520

 Excited State  38:      Singlet-A      5.8836 eV  210.73 nm  f=0.1735  <S**2>=0.000
     164 -> 172       -0.15433
     165 -> 176        0.26985
     165 -> 177       -0.11732
     168 -> 173        0.42260
     168 -> 179        0.10399
     170 -> 173       -0.23330
     170 -> 175        0.16130
     170 -> 182        0.11452

 Excited State  39:      Singlet-A      5.8888 eV  210.54 nm  f=0.0059  <S**2>=0.000
     162 -> 172        0.14567
     168 -> 174        0.14697
     169 -> 173        0.58221
     169 -> 175       -0.27948

 Excited State  40:      Singlet-A      5.9092 eV  209.81 nm  f=0.2652  <S**2>=0.000
     160 -> 171       -0.11267
     161 -> 172        0.34173
     162 -> 174       -0.13021
     164 -> 172        0.35997
     164 -> 175        0.15134
     165 -> 176        0.14689
     168 -> 173        0.10131
     168 -> 182        0.13968
     169 -> 177       -0.10404
     170 -> 182        0.11588

 Excited State  41:      Singlet-A      5.9231 eV  209.32 nm  f=0.3781  <S**2>=0.000
     160 -> 172        0.11499
     162 -> 172        0.46920
     162 -> 175        0.12692
     163 -> 172        0.23515
     164 -> 174       -0.16535
     169 -> 173       -0.15613
     169 -> 178       -0.12807
     170 -> 177        0.11404

 Excited State  42:      Singlet-A      5.9691 eV  207.71 nm  f=0.0180  <S**2>=0.000
     168 -> 174        0.53025
     169 -> 175        0.43804

 Excited State  43:      Singlet-A      5.9798 eV  207.34 nm  f=0.0000  <S**2>=0.000
     168 -> 173        0.19209
     168 -> 175        0.55779
     169 -> 174        0.36818

 Excited State  44:      Singlet-A      6.0577 eV  204.67 nm  f=0.0350  <S**2>=0.000
     154 -> 171        0.11487
     158 -> 171        0.28320
     159 -> 171        0.59092
     160 -> 172       -0.10651

 Excited State  45:      Singlet-A      6.1479 eV  201.67 nm  f=0.0010  <S**2>=0.000
     166 -> 174        0.14057
     167 -> 173        0.66115
     167 -> 175       -0.17039

 Excited State  46:      Singlet-A      6.1514 eV  201.56 nm  f=0.0342  <S**2>=0.000
     165 -> 173       -0.18348
     166 -> 173        0.47229
     166 -> 175       -0.11181
     167 -> 174        0.10301
     170 -> 180       -0.36211

 Excited State  47:      Singlet-A      6.1548 eV  201.44 nm  f=0.0658  <S**2>=0.000
     157 -> 171        0.54204
     160 -> 171       -0.29211
     165 -> 174        0.15842
     166 -> 173        0.12170
     170 -> 180        0.13648

 Excited State  48:      Singlet-A      6.1551 eV  201.43 nm  f=0.0554  <S**2>=0.000
     157 -> 171       -0.15994
     161 -> 180       -0.10474
     165 -> 173       -0.12946
     166 -> 173        0.38976
     170 -> 179        0.11732
     170 -> 180        0.40105

 Excited State  49:      Singlet-A      6.1630 eV  201.18 nm  f=0.0058  <S**2>=0.000
     157 -> 171       -0.16324
     165 -> 174        0.62087
     166 -> 174        0.25673

 Excited State  50:      Singlet-A      6.1799 eV  200.62 nm  f=0.0731  <S**2>=0.000
     158 -> 171        0.51949
     159 -> 171       -0.27859
     161 -> 171        0.12802
     169 -> 179       -0.12499
     170 -> 181        0.13311

 The electronic state is 1-A.
 Alpha  occ. eigenvalues -- -102.67542 -14.81914 -14.81598 -14.81591 -14.77918
 Alpha  occ. eigenvalues --  -14.77915 -10.65027 -10.64892 -10.64877 -10.64627
 Alpha  occ. eigenvalues --  -10.62470 -10.62459 -10.60702 -10.60699 -10.59319
 Alpha  occ. eigenvalues --  -10.59296 -10.59217 -10.59207 -10.59178 -10.59172
 Alpha  occ. eigenvalues --  -10.55319 -10.55263 -10.55260 -10.55257 -10.55204
 Alpha  occ. eigenvalues --  -10.55201 -10.54912 -10.54907 -10.54848 -10.54847
 Alpha  occ. eigenvalues --  -10.54809 -10.54808 -10.54703 -10.54701 -10.54697
 Alpha  occ. eigenvalues --  -10.54693 -10.54664 -10.54663 -10.54521 -10.54515
 Alpha  occ. eigenvalues --  -10.54511 -10.54509 -10.54471 -10.54471 -10.53882
 Alpha  occ. eigenvalues --  -10.53880 -10.53844 -10.53844 -10.53827 -10.53826
 Alpha  occ. eigenvalues --   -9.83794  -7.56014  -7.55477  -7.55440  -1.14059
 Alpha  occ. eigenvalues --   -1.13080  -1.13023  -1.05255  -1.04784  -1.03600
 Alpha  occ. eigenvalues --   -0.99766  -0.98111  -0.96988  -0.96386  -0.96322
 Alpha  occ. eigenvalues --   -0.96275  -0.95438  -0.92499  -0.90603  -0.88719
 Alpha  occ. eigenvalues --   -0.88454  -0.87056  -0.85953  -0.85879  -0.85847
 Alpha  occ. eigenvalues --   -0.84262  -0.83550  -0.82774  -0.82170  -0.82127
 Alpha  occ. eigenvalues --   -0.82107  -0.78069  -0.77374  -0.74664  -0.72608
 Alpha  occ. eigenvalues --   -0.72507  -0.70313  -0.70277  -0.70007  -0.69930
 Alpha  occ. eigenvalues --   -0.68862  -0.67420  -0.66682  -0.66633  -0.66569
 Alpha  occ. eigenvalues --   -0.66015  -0.64550  -0.63367  -0.61780  -0.60819
 Alpha  occ. eigenvalues --   -0.60398  -0.59896  -0.59804  -0.58929  -0.58557
 Alpha  occ. eigenvalues --   -0.57794  -0.56912  -0.54545  -0.54163  -0.53802
 Alpha  occ. eigenvalues --   -0.53629  -0.53437  -0.53118  -0.53050  -0.52843
 Alpha  occ. eigenvalues --   -0.51863  -0.51474  -0.51421  -0.51228  -0.50728
 Alpha  occ. eigenvalues --   -0.50682  -0.50361  -0.50172  -0.49824  -0.49756
 Alpha  occ. eigenvalues --   -0.49750  -0.49342  -0.48888  -0.48680  -0.48646
 Alpha  occ. eigenvalues --   -0.47703  -0.47401  -0.47214  -0.46671  -0.44731
 Alpha  occ. eigenvalues --   -0.44264  -0.43878  -0.43348  -0.43197  -0.43175
 Alpha  occ. eigenvalues --   -0.43138  -0.42999  -0.42986  -0.42964  -0.42891
 Alpha  occ. eigenvalues --   -0.42207  -0.41521  -0.41133  -0.40822  -0.40499
 Alpha  occ. eigenvalues --   -0.40454  -0.40265  -0.40231  -0.40119  -0.39988
 Alpha  occ. eigenvalues --   -0.39914  -0.35582  -0.35376  -0.35118  -0.34646
 Alpha  occ. eigenvalues --   -0.33564  -0.32142  -0.32077  -0.31864  -0.27745
 Alpha  occ. eigenvalues --   -0.27682  -0.27675  -0.27165  -0.27063  -0.26523
 Alpha virt. eigenvalues --   -0.06771  -0.04917  -0.01621  -0.01613  -0.01439
 Alpha virt. eigenvalues --    0.01957   0.02156   0.02158   0.03398   0.03414
 Alpha virt. eigenvalues --    0.04035   0.04336   0.04932   0.05554   0.05722

 Mulliken charges:
               1
     1  C    0.099325
     2  C   -0.056767
     3  C    0.098688
     4  C    0.175537
     5  C    0.100641
     6  C    0.178560
     7  C   -0.271889
     8  C   -0.273867
     9  N    0.013960
    10  N    0.014137
    11  N   -0.036864
    12  C    0.052366
    13  C    0.033713
    14  C   -0.250362
    15  C    0.090516
    16  C   -0.265174
    17  C    0.111342
    18  C   -0.172924
    19  H    0.215048
    20  C   -0.296184
    21  C   -0.179116
    22  H    0.229637
    23  C   -0.294225
    24  C   -0.189003
    25  H    0.185769
    26  H    0.183718
    27  C   -0.187577
    28  H    0.185372
    29  H    0.183435
    30  H    0.183290
    31  H    0.183142
    32  N   -0.037324
    33  C    0.033470
    34  C    0.050948
    35  C   -0.265343
    36  C    0.111545
    37  C   -0.249531
    38  C    0.090459
    39  C   -0.178665
    40  H    0.229831
    41  C   -0.294090
    42  C   -0.173207
    43  H    0.215810
    44  C   -0.296257
    45  C   -0.187884
    46  H    0.185380
    47  H    0.183445
    48  C   -0.188941
    49  H    0.185757
    50  H    0.183691
    51  H    0.183137
    52  H    0.183273
    53  N   -0.062723
    54  C    0.042481
    55  C    0.043899
    56  C   -0.264411
    57  C    0.100447
    58  C   -0.264834
    59  C    0.098864
    60  C   -0.176157
    61  H    0.233037
    62  C   -0.292082
    63  C   -0.177328
    64  H    0.234507
    65  C   -0.291823
    66  C   -0.188964
    67  H    0.184757
    68  H    0.183644
    69  C   -0.188699
    70  H    0.184768
    71  H    0.183573
    72  H    0.183194
    73  H    0.183191
    74  Cl   0.040914
 Sum of Mulliken charges =  -0.00000

 Dipole moment (field-independent basis, Debye):
    X=             -0.0053    Y=             -3.4877    Z=             -0.0163  Tot=              3.4877
 Quadrupole moment (field-independent basis, Debye-Ang):
   XX=           -297.1161   YY=           -283.9094   ZZ=           -266.4458
   XY=              0.1188   XZ=            -23.4647   YZ=              0.0007

 Normal termination of Gaussian 09 at Sun Jul  3 06:02:35 2022.
