 Gaussian 09, Revision E.01,
 Gaussian 09:  ES64L-G09RevE.01 30-Nov-2015

 ----------------------------------------------------------------------
 #p B97D3/def2TZVP td=(NStates=50) int=ultrafine scrf=(SMD,solvent=Acet
 onitrile)
 ----------------------------------------------------------------------

 -----
 Title
 -----
 Symbolic Z-matrix:
 Charge =  0 Multiplicity = 1

                         Standard orientation:
 ---------------------------------------------------------------------
 Center     Atomic      Atomic             Coordinates (Angstroms)
 Number     Number       Type             X           Y           Z
 ---------------------------------------------------------------------
      1          6           0        1.220024   -0.731191    0.175036
      2          6           0        0.025230   -1.451673    0.013062
      3          6           0       -1.193595   -0.774708   -0.162190
      4          6           0       -1.203539    0.636616   -0.198362
      5          6           0       -0.023408    1.376761   -0.001493
      6          6           0        1.182000    0.679753    0.197714
      7          6           0       -2.414616    1.310394   -0.523017
      8          6           0        2.371388    1.396646    0.509078
      9          7           0       -3.397879    1.858796   -0.806012
     10          7           0        3.337355    1.979734    0.782146
     11          7           0        2.450002   -1.380210    0.349741
     12          6           0        2.849270   -2.105391    1.483551
     13          6           0        3.513081   -1.342272   -0.568341
     14          6           0        2.147512   -2.359991    2.659458
     15          6           0        4.183338   -2.550759    1.281841
     16          6           0        3.568984   -0.746227   -1.825978
     17          6           0        4.603429   -2.068414   -0.019823
     18          6           0        2.799893   -3.101614    3.645899
     19          1           0        1.135673   -1.994735    2.806478
     20          6           0        4.814372   -3.290942    2.288648
     21          6           0        4.760519   -0.875376   -2.541854
     22          1           0        2.723002   -0.201448   -2.234286
     23          6           0        5.784449   -2.186939   -0.761952
     24          6           0        4.114623   -3.565645    3.463262
     25          1           0        2.278542   -3.320553    4.574175
     26          1           0        5.835284   -3.639585    2.155639
     27          6           0        5.855467   -1.584978   -2.018008
     28          1           0        4.838837   -0.417524   -3.524539
     29          1           0        6.630652   -2.740110   -0.362564
     30          1           0        4.592072   -4.140282    4.252625
     31          1           0        6.767685   -1.666505   -2.603215
     32          7           0       -2.398141   -1.468091   -0.338815
     33          6           0       -3.476061   -1.449103    0.562781
     34          6           0       -2.754771   -2.230046   -1.463032
     35          6           0       -3.572959   -0.828551    1.805871
     36          6           0       -4.531054   -2.225697    0.014484
     37          6           0       -2.027957   -2.481215   -2.624362
     38          6           0       -4.074697   -2.719153   -1.270700
     39          6           0       -4.769754   -0.985938    2.507196
     40          1           0       -2.754036   -0.243647    2.213257
     41          6           0       -5.718086   -2.371918    0.741883
     42          6           0       -2.639286   -3.264916   -3.604577
     43          1           0       -1.028335   -2.081913   -2.765853
     44          6           0       -4.664501   -3.500910   -2.270940
     45          6           0       -5.829964   -1.746555    1.983464
     46          1           0       -4.879793   -0.509790    3.478073
     47          1           0       -6.537127   -2.964470    0.342455
     48          6           0       -3.938811   -3.772794   -3.430371
     49          1           0       -2.097328   -3.482486   -4.521313
     50          1           0       -5.674298   -3.882960   -2.145080
     51          1           0       -6.747487   -1.848869    2.556975
     52          1           0       -4.384539   -4.378983   -4.214660
     53          7           0       -0.048177    2.775015   -0.004189
     54          6           0        0.637893    3.606121   -0.910409
     55          6           0       -0.768843    3.580482    0.897933
     56          6           0        1.444226    3.260082   -1.992756
     57          6           0        0.349394    4.957131   -0.582409
     58          6           0       -1.557339    3.204470    1.983213
     59          6           0       -0.539469    4.940841    0.563069
     60          6           0        1.988371    4.302210   -2.745391
     61          1           0        1.647150    2.224657   -2.247325
     62          6           0        0.904883    5.982879   -1.356038
     63          6           0       -2.146144    4.225237    2.731436
     64          1           0       -1.712306    2.161978    2.242501
     65          6           0       -1.138980    5.944960    1.332135
     66          6           0        1.726626    5.647063   -2.431174
     67          1           0        2.626421    4.063503   -3.592299
     68          1           0        0.693328    7.022806   -1.121130
     69          6           0       -1.944415    5.578724    2.409735
     70          1           0       -2.771843    3.962980    3.580564
     71          1           0       -0.973567    6.992031    1.092003
     72          1           0        2.167180    6.432958   -3.039035
     73          1           0       -2.418622    6.347574    3.014051
     74         17           0        0.055354   -3.173886    0.029233
 ---------------------------------------------------------------------

 SCF Done:  E(RB97D3) =  -2424.61149297     A.U. after   15 cycles

 Excitation energies and oscillator strengths:

 Excited State   1:      Singlet-A      1.9893 eV  623.27 nm  f=0.0739  <S**2>=0.000
     170 -> 171        0.70409
 This state for optimization and/or second-order correction.
 Total Energy, E(TD-HF/TD-KS) =  -2424.53838867
 Copying the excited state density for this state as the 1-particle RhoCI density.

 Excited State   2:      Singlet-A      2.1085 eV  588.01 nm  f=0.0116  <S**2>=0.000
     168 -> 171        0.69611
     169 -> 171       -0.11801

 Excited State   3:      Singlet-A      2.1483 eV  577.13 nm  f=0.0464  <S**2>=0.000
     168 -> 171        0.11741
     169 -> 171        0.69135

 Excited State   4:      Singlet-A      2.2480 eV  551.54 nm  f=0.0003  <S**2>=0.000
     167 -> 171        0.70014

 Excited State   5:      Singlet-A      2.2502 eV  550.98 nm  f=0.0004  <S**2>=0.000
     165 -> 171       -0.10221
     166 -> 171        0.69309

 Excited State   6:      Singlet-A      2.2603 eV  548.53 nm  f=0.0001  <S**2>=0.000
     165 -> 171        0.69710
     166 -> 171        0.10585

 Excited State   7:      Singlet-A      2.4536 eV  505.31 nm  f=0.0003  <S**2>=0.000
     168 -> 172        0.19962
     170 -> 172        0.67224

 Excited State   8:      Singlet-A      2.5690 eV  482.61 nm  f=0.0579  <S**2>=0.000
     169 -> 172        0.69917

 Excited State   9:      Singlet-A      2.6124 eV  474.61 nm  f=0.1073  <S**2>=0.000
     168 -> 172        0.67178
     170 -> 172       -0.19771

 Excited State  10:      Singlet-A      2.7026 eV  458.76 nm  f=0.0006  <S**2>=0.000
     167 -> 172        0.69779

 Excited State  11:      Singlet-A      2.7050 eV  458.36 nm  f=0.0017  <S**2>=0.000
     166 -> 172        0.69356
     167 -> 172       -0.10039

 Excited State  12:      Singlet-A      2.7257 eV  454.87 nm  f=0.0002  <S**2>=0.000
     165 -> 172        0.70008

 Excited State  13:      Singlet-A      3.1016 eV  399.74 nm  f=0.0030  <S**2>=0.000
     164 -> 171        0.70514

 Excited State  14:      Singlet-A      3.1359 eV  395.38 nm  f=0.0080  <S**2>=0.000
     163 -> 171        0.70095

 Excited State  15:      Singlet-A      3.1507 eV  393.51 nm  f=0.0005  <S**2>=0.000
     162 -> 171        0.70041

 Excited State  16:      Singlet-A      3.3846 eV  366.32 nm  f=0.0050  <S**2>=0.000
     168 -> 173        0.22752
     170 -> 173        0.65470

 Excited State  17:      Singlet-A      3.3954 eV  365.16 nm  f=0.0053  <S**2>=0.000
     168 -> 174       -0.14803
     169 -> 175       -0.21819
     170 -> 174        0.64453

 Excited State  18:      Singlet-A      3.4160 eV  362.96 nm  f=0.0007  <S**2>=0.000
     168 -> 173       -0.10449
     169 -> 174       -0.28595
     170 -> 175        0.62838

 Excited State  19:      Singlet-A      3.4908 eV  355.18 nm  f=0.0001  <S**2>=0.000
     168 -> 174       -0.18010
     169 -> 173        0.66991
     169 -> 175       -0.10875

 Excited State  20:      Singlet-A      3.5072 eV  353.52 nm  f=0.0009  <S**2>=0.000
     168 -> 174        0.57239
     169 -> 174       -0.13446
     169 -> 175       -0.36969

 Excited State  21:      Singlet-A      3.5186 eV  352.37 nm  f=0.0025  <S**2>=0.000
     168 -> 173        0.19320
     168 -> 174       -0.13648
     168 -> 175        0.56279
     169 -> 174       -0.34591

 Excited State  22:      Singlet-A      3.5534 eV  348.92 nm  f=0.0002  <S**2>=0.000
     164 -> 172        0.70502

 Excited State  23:      Singlet-A      3.5954 eV  344.84 nm  f=0.0064  <S**2>=0.000
     162 -> 172       -0.38639
     163 -> 172        0.59044

 Excited State  24:      Singlet-A      3.6072 eV  343.72 nm  f=0.0004  <S**2>=0.000
     162 -> 172        0.59039
     163 -> 172        0.38332

 Excited State  25:      Singlet-A      3.6561 eV  339.11 nm  f=0.0007  <S**2>=0.000
     166 -> 174        0.15085
     167 -> 173        0.66948
     168 -> 173        0.11200

 Excited State  26:      Singlet-A      3.6612 eV  338.64 nm  f=0.0001  <S**2>=0.000
     165 -> 173        0.19733
     166 -> 173        0.62478
     166 -> 174       -0.16522
     167 -> 173        0.10453
     167 -> 174        0.17282

 Excited State  27:      Singlet-A      3.6723 eV  337.62 nm  f=0.0003  <S**2>=0.000
     165 -> 174        0.54015
     166 -> 174       -0.32069
     167 -> 174       -0.18345
     167 -> 175       -0.21253

 Excited State  28:      Singlet-A      3.6765 eV  337.24 nm  f=0.0003  <S**2>=0.000
     165 -> 174        0.30754
     166 -> 175        0.23466
     167 -> 174        0.40904
     167 -> 175        0.39898

 Excited State  29:      Singlet-A      3.6795 eV  336.96 nm  f=0.0002  <S**2>=0.000
     165 -> 174       -0.25333
     166 -> 173       -0.11333
     166 -> 174       -0.35471
     166 -> 175        0.45579
     167 -> 174        0.17054
     167 -> 175       -0.21529

 Excited State  30:      Singlet-A      3.6966 eV  335.40 nm  f=0.0014  <S**2>=0.000
     161 -> 171        0.10171
     165 -> 173        0.19828
     165 -> 175        0.59597
     166 -> 175       -0.13619
     169 -> 175       -0.18485

 Excited State  31:      Singlet-A      3.7132 eV  333.90 nm  f=0.0073  <S**2>=0.000
     158 -> 171        0.30144
     159 -> 171       -0.14800
     161 -> 171        0.49147
     165 -> 175       -0.21179
     168 -> 174       -0.11734
     169 -> 175       -0.22009

 Excited State  32:      Singlet-A      3.7281 eV  332.56 nm  f=0.0326  <S**2>=0.000
     160 -> 171        0.19004
     168 -> 173       -0.18095
     168 -> 175        0.36904
     169 -> 174        0.41094
     170 -> 173        0.16843
     170 -> 175        0.19086

 Excited State  33:      Singlet-A      3.7309 eV  332.32 nm  f=0.0201  <S**2>=0.000
     160 -> 171        0.11619
     165 -> 174        0.10228
     167 -> 173       -0.11110
     168 -> 173        0.55053
     169 -> 174        0.21910
     170 -> 173       -0.16411
     170 -> 175        0.19015

 Excited State  34:      Singlet-A      3.7426 eV  331.28 nm  f=0.1069  <S**2>=0.000
     158 -> 171        0.15650
     159 -> 171        0.13164
     161 -> 171        0.32338
     165 -> 175        0.13525
     168 -> 174        0.23692
     169 -> 173        0.12385
     169 -> 175        0.42232
     170 -> 174        0.21588

 Excited State  35:      Singlet-A      3.8090 eV  325.50 nm  f=0.0100  <S**2>=0.000
     158 -> 171        0.12694
     159 -> 171        0.66688
     169 -> 175       -0.13261

 Excited State  36:      Singlet-A      3.8206 eV  324.52 nm  f=0.0182  <S**2>=0.000
     157 -> 171       -0.25249
     160 -> 171        0.60869
     169 -> 174       -0.16874
     170 -> 175       -0.10416

 Excited State  37:      Singlet-A      3.9352 eV  315.06 nm  f=0.0101  <S**2>=0.000
     170 -> 176        0.69413

 Excited State  38:      Singlet-A      3.9720 eV  312.15 nm  f=0.0277  <S**2>=0.000
     157 -> 172       -0.17618
     158 -> 171        0.57565
     160 -> 172       -0.16560
     161 -> 171       -0.28843

 Excited State  39:      Singlet-A      4.0641 eV  305.07 nm  f=0.0001  <S**2>=0.000
     169 -> 176        0.69496

 Excited State  40:      Singlet-A      4.0691 eV  304.70 nm  f=0.0013  <S**2>=0.000
     165 -> 173       -0.18965
     168 -> 176        0.65963

 Excited State  41:      Singlet-A      4.1267 eV  300.45 nm  f=0.0658  <S**2>=0.000
     165 -> 175        0.10859
     166 -> 174       -0.14843
     166 -> 175        0.12146
     167 -> 174       -0.33445
     167 -> 175        0.35021
     167 -> 176        0.16027
     170 -> 177       -0.23448
     170 -> 178        0.23623

 Excited State  42:      Singlet-A      4.1273 eV  300.40 nm  f=0.0607  <S**2>=0.000
     165 -> 174        0.10348
     165 -> 175        0.11759
     166 -> 173        0.16089
     166 -> 174        0.32930
     166 -> 175        0.30219
     166 -> 176       -0.15666
     167 -> 174       -0.12526
     167 -> 175       -0.16927
     170 -> 177       -0.26066
     170 -> 178       -0.21423

 Excited State  43:      Singlet-A      4.1581 eV  298.18 nm  f=0.2173  <S**2>=0.000
     165 -> 173        0.45257
     165 -> 175       -0.11254
     166 -> 175        0.16790
     167 -> 174       -0.11801
     167 -> 176        0.10367
     168 -> 176        0.15027
     168 -> 177       -0.13809
     170 -> 177        0.18550
     170 -> 179        0.30569

 Excited State  44:      Singlet-A      4.2040 eV  294.92 nm  f=0.0126  <S**2>=0.000
     158 -> 172        0.40408
     159 -> 172       -0.28419
     161 -> 172        0.48708

 Excited State  45:      Singlet-A      4.2320 eV  292.97 nm  f=0.0081  <S**2>=0.000
     165 -> 173       -0.10115
     166 -> 176       -0.17581
     167 -> 176        0.53323
     168 -> 179        0.11622
     169 -> 178       -0.13488
     170 -> 177        0.32691
     170 -> 179       -0.15516

 Excited State  46:      Singlet-A      4.2338 eV  292.84 nm  f=0.0001  <S**2>=0.000
     165 -> 176        0.10542
     166 -> 176        0.52129
     167 -> 176        0.21844
     169 -> 177        0.12675
     170 -> 178       -0.36773

 Excited State  47:      Singlet-A      4.2501 eV  291.72 nm  f=0.0027  <S**2>=0.000
     159 -> 172        0.30253
     165 -> 176        0.48335
     166 -> 176       -0.25801
     169 -> 177        0.11550
     170 -> 177       -0.15222
     170 -> 178       -0.12739

 Excited State  48:      Singlet-A      4.2517 eV  291.61 nm  f=0.0035  <S**2>=0.000
     159 -> 172        0.13929
     160 -> 172       -0.11800
     165 -> 173       -0.13172
     165 -> 176        0.24458
     167 -> 174       -0.10564
     167 -> 176       -0.27517
     168 -> 177        0.14547
     168 -> 179        0.20889
     169 -> 178       -0.19696
     170 -> 177        0.34285
     170 -> 179        0.17454

 Excited State  49:      Singlet-A      4.2608 eV  290.99 nm  f=0.0044  <S**2>=0.000
     159 -> 172        0.10185
     165 -> 176        0.25270
     166 -> 174        0.13025
     166 -> 176        0.27754
     167 -> 175       -0.13704
     167 -> 176        0.10329
     168 -> 178       -0.13652
     169 -> 177       -0.30139
     169 -> 179        0.14929
     170 -> 178        0.36810

 Excited State  50:      Singlet-A      4.2632 eV  290.82 nm  f=0.0206  <S**2>=0.000
     157 -> 172       -0.28403
     160 -> 172        0.61647

 The electronic state is 1-A.
 Alpha  occ. eigenvalues -- -100.64866 -14.06451 -14.06192 -14.06160 -14.01418
 Alpha  occ. eigenvalues --  -14.01415 -10.00317 -10.00252 -10.00179 -10.00164
 Alpha  occ. eigenvalues --   -9.98011  -9.97998  -9.96344  -9.96341  -9.95097
 Alpha  occ. eigenvalues --   -9.95082  -9.95003  -9.94993  -9.94982  -9.94974
 Alpha  occ. eigenvalues --   -9.91495  -9.91472  -9.91449  -9.91439  -9.91426
 Alpha  occ. eigenvalues --   -9.91416  -9.90949  -9.90944  -9.90895  -9.90890
 Alpha  occ. eigenvalues --   -9.90883  -9.90873  -9.90755  -9.90753  -9.90746
 Alpha  occ. eigenvalues --   -9.90740  -9.90732  -9.90727  -9.90622  -9.90619
 Alpha  occ. eigenvalues --   -9.90611  -9.90605  -9.90596  -9.90590  -9.90130
 Alpha  occ. eigenvalues --   -9.90127  -9.90094  -9.90090  -9.90084  -9.90081
 Alpha  occ. eigenvalues --   -9.24569  -7.08209  -7.07120  -7.07008  -0.93970
 Alpha  occ. eigenvalues --   -0.93152  -0.93104  -0.85883  -0.85306  -0.84609
 Alpha  occ. eigenvalues --   -0.81548  -0.79774  -0.78884  -0.77986  -0.77931
 Alpha  occ. eigenvalues --   -0.77908  -0.77358  -0.75086  -0.73341  -0.71523
 Alpha  occ. eigenvalues --   -0.71454  -0.70200  -0.69089  -0.69019  -0.69000
 Alpha  occ. eigenvalues --   -0.67943  -0.67164  -0.66761  -0.65776  -0.65742
 Alpha  occ. eigenvalues --   -0.65729  -0.62768  -0.62337  -0.59785  -0.57971
 Alpha  occ. eigenvalues --   -0.57784  -0.56082  -0.55957  -0.55757  -0.55745
 Alpha  occ. eigenvalues --   -0.55152  -0.53510  -0.52544  -0.52538  -0.52506
 Alpha  occ. eigenvalues --   -0.52319  -0.51029  -0.50029  -0.48924  -0.47939
 Alpha  occ. eigenvalues --   -0.47519  -0.47146  -0.47047  -0.46200  -0.45814
 Alpha  occ. eigenvalues --   -0.45343  -0.44549  -0.42393  -0.41854  -0.41802
 Alpha  occ. eigenvalues --   -0.41458  -0.41412  -0.40981  -0.40975  -0.40694
 Alpha  occ. eigenvalues --   -0.39551  -0.39490  -0.39310  -0.39094  -0.38946
 Alpha  occ. eigenvalues --   -0.38797  -0.38491  -0.38374  -0.38339  -0.38306
 Alpha  occ. eigenvalues --   -0.38297  -0.37741  -0.37457  -0.37292  -0.37269
 Alpha  occ. eigenvalues --   -0.35683  -0.35266  -0.34446  -0.34249  -0.33122
 Alpha  occ. eigenvalues --   -0.32745  -0.32663  -0.32647  -0.32616  -0.32603
 Alpha  occ. eigenvalues --   -0.32485  -0.32406  -0.32358  -0.31933  -0.31887
 Alpha  occ. eigenvalues --   -0.31278  -0.30584  -0.30410  -0.30311  -0.30265
 Alpha  occ. eigenvalues --   -0.30236  -0.30183  -0.30014  -0.29932  -0.29690
 Alpha  occ. eigenvalues --   -0.29343  -0.26482  -0.26104  -0.25877  -0.25765
 Alpha  occ. eigenvalues --   -0.25024  -0.23474  -0.23440  -0.23284  -0.20228
 Alpha  occ. eigenvalues --   -0.20183  -0.20172  -0.19591  -0.19551  -0.19060
 Alpha virt. eigenvalues --   -0.11933  -0.10256  -0.06732  -0.06719  -0.06616
 Alpha virt. eigenvalues --   -0.04634  -0.03691  -0.03616  -0.03508  -0.03044
 Alpha virt. eigenvalues --   -0.02184  -0.02140  -0.01873  -0.01797  -0.01421

 Mulliken charges:
               1
     1  C    0.025673
     2  C   -0.027742
     3  C    0.028909
     4  C    0.244376
     5  C   -0.088543
     6  C    0.247861
     7  C   -0.202365
     8  C   -0.203453
     9  N   -0.042896
    10  N   -0.042850
    11  N    0.148816
    12  C    0.095575
    13  C    0.093727
    14  C   -0.246641
    15  C    0.049731
    16  C   -0.242784
    17  C    0.063874
    18  C   -0.120195
    19  H    0.135973
    20  C   -0.251954
    21  C   -0.130438
    22  H    0.144833
    23  C   -0.253871
    24  C   -0.128525
    25  H    0.137197
    26  H    0.129891
    27  C   -0.128062
    28  H    0.135745
    29  H    0.130367
    30  H    0.132554
    31  H    0.132194
    32  N    0.149085
    33  C    0.095610
    34  C    0.093978
    35  C   -0.242337
    36  C    0.061844
    37  C   -0.245289
    38  C    0.049646
    39  C   -0.131504
    40  H    0.145851
    41  C   -0.253095
    42  C   -0.120610
    43  H    0.137146
    44  C   -0.251480
    45  C   -0.128278
    46  H    0.135710
    47  H    0.130483
    48  C   -0.128519
    49  H    0.137238
    50  H    0.129931
    51  H    0.132176
    52  H    0.132534
    53  N    0.149387
    54  C    0.103625
    55  C    0.103728
    56  C   -0.253780
    57  C    0.051161
    58  C   -0.251677
    59  C    0.050677
    60  C   -0.122619
    61  H    0.149234
    62  C   -0.246837
    63  C   -0.124483
    64  H    0.149646
    65  C   -0.246967
    66  C   -0.133291
    67  H    0.135957
    68  H    0.130549
    69  C   -0.132702
    70  H    0.135780
    71  H    0.130555
    72  H    0.132041
    73  H    0.132077
    74  Cl  -0.039156
 Sum of Mulliken charges =  -0.00000

 Dipole moment (field-independent basis, Debye):
    X=              0.0128    Y=             -3.6728    Z=              0.0212  Tot=              3.6729
 Quadrupole moment (field-independent basis, Debye-Ang):
   XX=           -301.8296   YY=           -286.8169   ZZ=           -267.8870
   XY=             -0.4163   XZ=            -22.1853   YZ=             -0.0786

 Normal termination of Gaussian 09 at Fri Jul  1 23:02:09 2022.
