                         Program Version 5.0.2 -  RELEASE  -
|  1> %maxcore 20000
|  2> %pal
|  3>  nprocs= 4
|  4> end
|  5> ! RI-B2GP-PLYP   def2-TZVP def2/J def2-TZVP/C RIJCOSX CPCM TightSCF
|  6> %TDDFT
|  7>    NROOTS   60
|  8>    dcorr 4
|  9>    TDA      FALSE
| 10> END
| 11> %CPCM
| 12>    SMD          TRUE
| 13>    SMDsolvent   "ACETONITRILE"
| 14>  END
| 15>
| 16>
| 17> * xyz 0 1
| 18> C                  -1.18445100   -0.76873300   -0.18993100
| 19> C                   0.02649200   -1.44498300   -0.02305000
| 20> C                   1.22008300   -0.73649600    0.13327500
| 21> C                   1.19125300    0.66867600    0.14589700
| 22> C                  -0.00827200    1.36669000   -0.03695600
| 23> C                  -1.18865000    0.63605100   -0.22072100
| 24> C                   2.38180800    1.37670100    0.45029300
| 25> C                  -2.39464100    1.31355600   -0.53356600
| 26> N                   3.35098200    1.94967700    0.71396100
| 27> N                  -3.37494100    1.86285600   -0.80625800
| 28> N                  -2.38867400   -1.45614700   -0.35542200
| 29> C                  -2.74074700   -2.26563300   -1.43717600
| 30> C                  -3.48073000   -1.37297800    0.51200200
| 31> C                  -2.00578700   -2.58480600   -2.56878400
| 32> C                  -4.06137900   -2.71741500   -1.24706700
| 33> C                  -3.58968500   -0.69015200    1.71341800
| 34> C                  -4.52962100   -2.15349400   -0.00935100
| 35> C                  -2.61092600   -3.40079600   -3.51160300
| 36> H                  -1.00206200   -2.20759700   -2.71802900
| 37> C                  -4.64524200   -3.53491100   -2.21085800
| 38> C                  -4.79322400   -0.78895500    2.39390700
| 39> H                  -2.76911100   -0.10266700    2.10681400
| 40> C                  -5.72563500   -2.24036000    0.69801000
| 41> C                  -3.91250500   -3.87605300   -3.33469000
| 42> H                  -2.06155900   -3.67033100   -4.40448600
| 43> H                  -5.66016000   -3.89042300   -2.08254300
| 44> C                  -5.85001200   -1.55321300    1.89356200
| 45> H                  -4.91205900   -0.26369500    3.33289700
| 46> H                  -6.54401000   -2.83784300    0.31558800
| 47> H                  -4.35370700   -4.51113600   -4.09186900
| 48> H                  -6.77554900   -1.60940600    2.45167500
| 49> N                   2.43624800   -1.39562000    0.32978300
| 50> C                   3.53891600   -1.32681000   -0.52462700
| 51> C                   2.78959800   -2.14611900    1.45277200
| 52> C                   3.65211500   -0.69919700   -1.75563300
| 53> C                   4.59709500   -2.05800900    0.04831400
| 54> C                   2.04158000   -2.43251300    2.58443700
| 55> C                   4.12292100   -2.57488600    1.30408200
| 56> C                   4.86802500   -0.80374700   -2.41294900
| 57> H                   2.82534500   -0.15125000   -2.19008400
| 58> C                   5.80544100   -2.15179800   -0.63666800
| 59> C                   2.64870800   -3.19041300    3.57326100
| 60> H                   1.02592300   -2.07509300    2.69758100
| 61> C                   4.70838100   -3.33416200    2.31354300
| 62> C                   5.93321600   -1.51988200   -1.86190500
| 63> H                   4.98993500   -0.32194300   -3.37456600
| 64> H                   6.63006300   -2.71273400   -0.21439800
| 65> C                   3.96416400   -3.64119700    3.43971600
| 66> H                   2.08999900   -3.43335900    4.46801300
| 67> H                   5.73319800   -3.67124300    2.21834500
| 68> H                   6.86799700   -1.58233700   -2.40372500
| 69> H                   4.40689300   -4.23053600    4.23217000
| 70> N                  -0.03324400    2.76097600   -0.02488200
| 71> C                  -0.78039500    3.55286300    0.85464600
| 72> C                   0.67886200    3.60433000   -0.88420000
| 73> C                  -1.60131000    3.16383500    1.90243300
| 74> C                  -0.54120200    4.90665200    0.55271900
| 75> C                   1.51528300    3.27632300   -1.94033100
| 76> C                   0.38150600    4.93922100   -0.55009300
| 77> C                  -2.21131400    4.16603000    2.64008300
| 78> H                  -1.76022700    2.12075700    2.14555500
| 79> C                  -1.16432900    5.89360100    1.31174600
| 80> C                   2.08112200    4.32129600   -2.65341200
| 81> H                   1.71766900    2.24672000   -2.20656800
| 82> C                   0.96143300    5.96985900   -1.28453000
| 83> C                  -2.00095900    5.51532300    2.34753000
| 84> H                  -2.86117400    3.89280600    3.46147200
| 85> H                  -0.98994500    6.94009200    1.09420700
| 86> C                   1.81302800    5.65291800   -2.32861400
| 87> H                   2.74161700    4.09608600   -3.48082700
| 88> H                   0.74262500    7.00237200   -1.04187500
| 89> H                  -2.49373800    6.27176400    2.94436600
| 90> H                   2.27262700    6.44382700   -2.90695300
| 91> Cl                  0.04745500   -3.15837000   -0.00039000
| 92> *
| 93>
| 94>
| 95>                          ****END OF INPUT****

CARTESIAN COORDINATES (ANGSTROEM)
---------------------------------
  C     -1.184451   -0.768733   -0.189931
  C      0.026492   -1.444983   -0.023050
  C      1.220083   -0.736496    0.133275
  C      1.191253    0.668676    0.145897
  C     -0.008272    1.366690   -0.036956
  C     -1.188650    0.636051   -0.220721
  C      2.381808    1.376701    0.450293
  C     -2.394641    1.313556   -0.533566
  N      3.350982    1.949677    0.713961
  N     -3.374941    1.862856   -0.806258
  N     -2.388674   -1.456147   -0.355422
  C     -2.740747   -2.265633   -1.437176
  C     -3.480730   -1.372978    0.512002
  C     -2.005787   -2.584806   -2.568784
  C     -4.061379   -2.717415   -1.247067
  C     -3.589685   -0.690152    1.713418
  C     -4.529621   -2.153494   -0.009351
  C     -2.610926   -3.400796   -3.511603
  H     -1.002062   -2.207597   -2.718029
  C     -4.645242   -3.534911   -2.210858
  C     -4.793224   -0.788955    2.393907
  H     -2.769111   -0.102667    2.106814
  C     -5.725635   -2.240360    0.698010
  C     -3.912505   -3.876053   -3.334690
  H     -2.061559   -3.670331   -4.404486
  H     -5.660160   -3.890423   -2.082543
  C     -5.850012   -1.553213    1.893562
  H     -4.912059   -0.263695    3.332897
  H     -6.544010   -2.837843    0.315588
  H     -4.353707   -4.511136   -4.091869
  H     -6.775549   -1.609406    2.451675
  N      2.436248   -1.395620    0.329783
  C      3.538916   -1.326810   -0.524627
  C      2.789598   -2.146119    1.452772
  C      3.652115   -0.699197   -1.755633
  C      4.597095   -2.058009    0.048314
  C      2.041580   -2.432513    2.584437
  C      4.122921   -2.574886    1.304082
  C      4.868025   -0.803747   -2.412949
  H      2.825345   -0.151250   -2.190084
  C      5.805441   -2.151798   -0.636668
  C      2.648708   -3.190413    3.573261
  H      1.025923   -2.075093    2.697581
  C      4.708381   -3.334162    2.313543
  C      5.933216   -1.519882   -1.861905
  H      4.989935   -0.321943   -3.374566
  H      6.630063   -2.712734   -0.214398
  C      3.964164   -3.641197    3.439716
  H      2.089999   -3.433359    4.468013
  H      5.733198   -3.671243    2.218345
  H      6.867997   -1.582337   -2.403725
  H      4.406893   -4.230536    4.232170
  N     -0.033244    2.760976   -0.024882
  C     -0.780395    3.552863    0.854646
  C      0.678862    3.604330   -0.884200
  C     -1.601310    3.163835    1.902433
  C     -0.541202    4.906652    0.552719
  C      1.515283    3.276323   -1.940331
  C      0.381506    4.939221   -0.550093
  C     -2.211314    4.166030    2.640083
  H     -1.760227    2.120757    2.145555
  C     -1.164329    5.893601    1.311746
  C      2.081122    4.321296   -2.653412
  H      1.717669    2.246720   -2.206568
  C      0.961433    5.969859   -1.284530
  C     -2.000959    5.515323    2.347530
  H     -2.861174    3.892806    3.461472
  H     -0.989945    6.940092    1.094207
  C      1.813028    5.652918   -2.328614
  H      2.741617    4.096086   -3.480827
  H      0.742625    7.002372   -1.041875
  H     -2.493738    6.271764    2.944366
  H      2.272627    6.443827   -2.906953
  Cl     0.047455   -3.158370   -0.000390

 Total Charge           Charge          ....    0
 Multiplicity           Mult            ....    1
 Number of Electrons    NEL             ....  340
 Basis Dimension        Dim             .... 1700

ORBITAL ENERGIES
----------------

  NO   OCC          E(Eh)            E(eV)
   0   2.0000    -103.431533     -2814.5151
   1   2.0000     -15.093108      -410.7044
   2   2.0000     -15.090163      -410.6242
   3   2.0000     -15.089662      -410.6106
   4   2.0000     -15.054894      -409.6645
   5   2.0000     -15.054701      -409.6592
   6   2.0000     -10.889940      -296.3303
   7   2.0000     -10.888255      -296.2845
   8   2.0000     -10.888134      -296.2812
   9   2.0000     -10.880185      -296.0649
  10   2.0000     -10.857083      -295.4362
  11   2.0000     -10.856809      -295.4288
  12   2.0000     -10.847038      -295.1629
  13   2.0000     -10.846899      -295.1591
  14   2.0000     -10.828913      -294.6697
  15   2.0000     -10.828868      -294.6685
  16   2.0000     -10.828063      -294.6466
  17   2.0000     -10.828013      -294.6452
  18   2.0000     -10.827932      -294.6430
  19   2.0000     -10.827730      -294.6375
  20   2.0000     -10.787158      -293.5335
  21   2.0000     -10.786657      -293.5199
  22   2.0000     -10.786546      -293.5168
  23   2.0000     -10.786452      -293.5143
  24   2.0000     -10.785954      -293.5007
  25   2.0000     -10.785842      -293.4977
  26   2.0000     -10.782591      -293.4092
  27   2.0000     -10.782566      -293.4085
  28   2.0000     -10.782552      -293.4081
  29   2.0000     -10.782496      -293.4066
  30   2.0000     -10.782381      -293.4035
  31   2.0000     -10.782370      -293.4032
  32   2.0000     -10.782261      -293.4002
  33   2.0000     -10.782255      -293.4001
  34   2.0000     -10.781905      -293.3905
  35   2.0000     -10.781893      -293.3902
  36   2.0000     -10.781794      -293.3875
  37   2.0000     -10.781682      -293.3845
  38   2.0000     -10.780496      -293.3522
  39   2.0000     -10.780491      -293.3521
  40   2.0000     -10.780490      -293.3520
  41   2.0000     -10.780455      -293.3511
  42   2.0000     -10.780197      -293.3441
  43   2.0000     -10.780171      -293.3434
  44   2.0000     -10.773471      -293.1611
  45   2.0000     -10.773422      -293.1597
  46   2.0000     -10.773181      -293.1532
  47   2.0000     -10.773093      -293.1508
  48   2.0000     -10.773006      -293.1484
  49   2.0000     -10.772934      -293.1464
  50   2.0000     -10.110639      -275.1245
  51   2.0000      -7.706695      -209.7098
  52   2.0000      -7.701771      -209.5758
  53   2.0000      -7.701534      -209.5694
  54   2.0000      -1.212707       -32.9994
  55   2.0000      -1.202536       -32.7227
  56   2.0000      -1.201980       -32.7075
  57   2.0000      -1.119373       -30.4597
  58   2.0000      -1.114539       -30.3281
  59   2.0000      -1.100832       -29.9552
  60   2.0000      -1.060746       -28.8644
  61   2.0000      -1.046665       -28.4812
  62   2.0000      -1.034161       -28.1410
  63   2.0000      -1.029240       -28.0070
  64   2.0000      -1.028706       -27.9925
  65   2.0000      -1.028073       -27.9753
  66   2.0000      -1.018263       -27.7083
  67   2.0000      -0.986170       -26.8351
  68   2.0000      -0.965096       -26.2616
  69   2.0000      -0.948469       -25.8091
  70   2.0000      -0.945778       -25.7359
  71   2.0000      -0.929394       -25.2901
  72   2.0000      -0.917655       -24.9707
  73   2.0000      -0.916975       -24.9522
  74   2.0000      -0.916646       -24.9432
  75   2.0000      -0.899733       -24.4830
  76   2.0000      -0.892462       -24.2851
  77   2.0000      -0.883228       -24.0339
  78   2.0000      -0.878169       -23.8962
  79   2.0000      -0.877848       -23.8874
  80   2.0000      -0.877600       -23.8807
  81   2.0000      -0.831334       -22.6217
  82   2.0000      -0.822627       -22.3848
  83   2.0000      -0.792636       -21.5687
  84   2.0000      -0.774433       -21.0734
  85   2.0000      -0.773765       -21.0552
  86   2.0000      -0.748903       -20.3787
  87   2.0000      -0.745457       -20.2849
  88   2.0000      -0.742819       -20.2131
  89   2.0000      -0.742432       -20.2026
  90   2.0000      -0.732480       -19.9318
  91   2.0000      -0.717529       -19.5250
  92   2.0000      -0.709234       -19.2992
  93   2.0000      -0.708688       -19.2844
  94   2.0000      -0.708172       -19.2703
  95   2.0000      -0.699701       -19.0398
  96   2.0000      -0.680346       -18.5132
  97   2.0000      -0.669597       -18.2207
  98   2.0000      -0.653309       -17.7774
  99   2.0000      -0.641143       -17.4464
 100   2.0000      -0.638404       -17.3719
 101   2.0000      -0.633030       -17.2256
 102   2.0000      -0.631365       -17.1803
 103   2.0000      -0.625040       -17.0082
 104   2.0000      -0.621879       -16.9222
 105   2.0000      -0.613312       -16.6891
 106   2.0000      -0.603418       -16.4198
 107   2.0000      -0.575021       -15.6471
 108   2.0000      -0.571088       -15.5401
 109   2.0000      -0.570701       -15.5296
 110   2.0000      -0.566596       -15.4178
 111   2.0000      -0.562072       -15.2948
 112   2.0000      -0.561785       -15.2869
 113   2.0000      -0.561088       -15.2680
 114   2.0000      -0.558503       -15.1976
 115   2.0000      -0.544733       -14.8229
 116   2.0000      -0.544404       -14.8140
 117   2.0000      -0.541841       -14.7443
 118   2.0000      -0.539157       -14.6712
 119   2.0000      -0.537117       -14.6157
 120   2.0000      -0.534381       -14.5413
 121   2.0000      -0.532691       -14.4953
 122   2.0000      -0.532108       -14.4794
 123   2.0000      -0.531923       -14.4744
 124   2.0000      -0.527050       -14.3418
 125   2.0000      -0.526640       -14.3306
 126   2.0000      -0.520594       -14.1661
 127   2.0000      -0.518209       -14.1012
 128   2.0000      -0.517227       -14.0745
 129   2.0000      -0.515829       -14.0364
 130   2.0000      -0.508425       -13.8349
 131   2.0000      -0.506524       -13.7832
 132   2.0000      -0.483756       -13.1637
 133   2.0000      -0.480120       -13.0647
 134   2.0000      -0.461729       -12.5643
 135   2.0000      -0.461698       -12.5634
 136   2.0000      -0.461355       -12.5541
 137   2.0000      -0.461066       -12.5462
 138   2.0000      -0.460150       -12.5213
 139   2.0000      -0.459301       -12.4982
 140   2.0000      -0.456551       -12.4234
 141   2.0000      -0.452294       -12.3076
 142   2.0000      -0.447231       -12.1698
 143   2.0000      -0.439163       -11.9502
 144   2.0000      -0.438958       -11.9447
 145   2.0000      -0.437145       -11.8953
 146   2.0000      -0.434208       -11.8154
 147   2.0000      -0.433092       -11.7850
 148   2.0000      -0.432511       -11.7692
 149   2.0000      -0.430960       -11.7270
 150   2.0000      -0.429787       -11.6951
 151   2.0000      -0.429286       -11.6815
 152   2.0000      -0.425766       -11.5857
 153   2.0000      -0.423654       -11.5282
 154   2.0000      -0.416288       -11.3278
 155   2.0000      -0.411665       -11.2020
 156   2.0000      -0.356643        -9.7047
 157   2.0000      -0.355383        -9.6705
 158   2.0000      -0.352719        -9.5980
 159   2.0000      -0.344923        -9.3858
 160   2.0000      -0.334902        -9.1132
 161   2.0000      -0.319616        -8.6972
 162   2.0000      -0.318798        -8.6749
 163   2.0000      -0.316779        -8.6200
 164   2.0000      -0.270758        -7.3677
 165   2.0000      -0.270665        -7.3652
 166   2.0000      -0.269866        -7.3434
 167   2.0000      -0.269757        -7.3405
 168   2.0000      -0.269143        -7.3238
 169   2.0000      -0.264206        -7.1894
 170   0.0000      -0.029165        -0.7936
 171   0.0000      -0.007943        -0.2161
 172   0.0000       0.021122         0.5748
 173   0.0000       0.021236         0.5779
 174   0.0000       0.023054         0.6273

MULLIKEN ATOMIC CHARGES
-----------------------
   0 C :    0.113183
   1 C :   -0.104459
   2 C :    0.099205
   3 C :    0.234353
   4 C :    0.024155
   5 C :    0.221420
   6 C :   -0.159422
   7 C :   -0.156244
   8 N :   -0.147650
   9 N :   -0.147018
  10 N :    0.036764
  11 C :    0.143942
  12 C :    0.147042
  13 C :   -0.281443
  14 C :   -0.001080
  15 C :   -0.289580
  16 C :    0.002929
  17 C :   -0.131455
  18 H :    0.176262
  19 C :   -0.232462
  20 C :   -0.141475
  21 H :    0.184661
  22 C :   -0.229494
  23 C :   -0.173523
  24 H :    0.164772
  25 H :    0.166407
  26 C :   -0.173816
  27 H :    0.164973
  28 H :    0.167397
  29 H :    0.160798
  30 H :    0.160295
  31 N :    0.037020
  32 C :    0.142337
  33 C :    0.143220
  34 C :   -0.291508
  35 C :    0.007351
  36 C :   -0.280682
  37 C :   -0.000584
  38 C :   -0.134449
  39 H :    0.180632
  40 C :   -0.230275
  41 C :   -0.134314
  42 H :    0.176725
  43 C :   -0.234346
  44 C :   -0.173414
  45 H :    0.165027
  46 H :    0.166954
  47 C :   -0.171761
  48 H :    0.164712
  49 H :    0.166430
  50 H :    0.160452
  51 H :    0.160777
  52 N :    0.035328
  53 C :    0.146857
  54 C :    0.150055
  55 C :   -0.291836
  56 C :   -0.005028
  57 C :   -0.296402
  58 C :   -0.007311
  59 C :   -0.133364
  60 H :    0.185284
  61 C :   -0.223942
  62 C :   -0.127731
  63 H :    0.182776
  64 C :   -0.222478
  65 C :   -0.179605
  66 H :    0.165014
  67 H :    0.167227
  68 C :   -0.179540
  69 H :    0.165018
  70 H :    0.166830
  71 H :    0.159817
  72 H :    0.160147
  73 Cl:   -0.036856
Sum of atomic charges:   -0.0000000

LOEWDIN ATOMIC CHARGES
----------------------
   0 C :   -0.083365
   1 C :   -0.346012
   2 C :   -0.083222
   3 C :   -0.061857
   4 C :   -0.039711
   5 C :   -0.062898
   6 C :   -0.111738
   7 C :   -0.112502
   8 N :    0.029975
   9 N :    0.030084
  10 N :    0.307226
  11 C :   -0.120206
  12 C :   -0.112896
  13 C :   -0.129335
  14 C :   -0.085670
  15 C :   -0.118982
  16 C :   -0.085399
  17 C :   -0.140120
  18 H :    0.157009
  19 C :   -0.098507
  20 C :   -0.139039
  21 H :    0.159596
  22 C :   -0.097414
  23 C :   -0.159659
  24 H :    0.152967
  25 H :    0.156274
  26 C :   -0.158996
  27 H :    0.153110
  28 H :    0.156338
  29 H :    0.150350
  30 H :    0.150421
  31 N :    0.306472
  32 C :   -0.113336
  33 C :   -0.120226
  34 C :   -0.119390
  35 C :   -0.085601
  36 C :   -0.129244
  37 C :   -0.085814
  38 C :   -0.139175
  39 H :    0.159490
  40 C :   -0.097571
  41 C :   -0.140096
  42 H :    0.157138
  43 C :   -0.098551
  44 C :   -0.159298
  45 H :    0.153070
  46 H :    0.156335
  47 C :   -0.159828
  48 H :    0.152951
  49 H :    0.156234
  50 H :    0.150397
  51 H :    0.150311
  52 N :    0.316420
  53 C :   -0.109046
  54 C :   -0.109644
  55 C :   -0.118102
  56 C :   -0.084269
  57 C :   -0.118381
  58 C :   -0.084285
  59 C :   -0.138516
  60 H :    0.159845
  61 C :   -0.096870
  62 C :   -0.138543
  63 H :    0.159959
  64 C :   -0.096889
  65 C :   -0.157611
  66 H :    0.153305
  67 H :    0.156503
  68 C :   -0.157709
  69 H :    0.153275
  70 H :    0.156509
  71 H :    0.150600
  72 H :    0.150584
  73 Cl:    0.502779

  Mayer bond orders larger than 0.100000
B(  0-C ,  1-C ) :   1.2901 B(  0-C ,  5-C ) :   1.3189 B(  0-C , 10-N ) :   1.0147
B(  1-C ,  2-C ) :   1.2893 B(  1-C , 73-Cl) :   1.3011 B(  2-C ,  3-C ) :   1.3334
B(  2-C , 31-N ) :   1.0014 B(  3-C ,  4-C ) :   1.3850 B(  3-C ,  6-C ) :   0.9725
B(  4-C ,  5-C ) :   1.3641 B(  4-C , 52-N ) :   1.0985 B(  5-C ,  7-C ) :   0.9748
B(  6-C ,  8-N ) :   2.9958 B(  7-C ,  9-N ) :   2.9968 B( 10-N , 11-C ) :   1.0612
B( 10-N , 12-C ) :   1.0563 B( 11-C , 13-C ) :   1.3793 B( 11-C , 14-C ) :   1.3331
B( 12-C , 15-C ) :   1.3925 B( 12-C , 16-C ) :   1.3130 B( 13-C , 17-C ) :   1.4378
B( 13-C , 18-H ) :   0.9668 B( 14-C , 16-C ) :   1.0455 B( 14-C , 19-C ) :   1.3208
B( 15-C , 20-C ) :   1.4342 B( 15-C , 21-H ) :   0.9649 B( 16-C , 22-C ) :   1.3191
B( 17-C , 23-C ) :   1.3569 B( 17-C , 24-H ) :   0.9768 B( 19-C , 23-C ) :   1.4731
B( 19-C , 25-H ) :   0.9802 B( 20-C , 26-C ) :   1.3526 B( 20-C , 27-H ) :   0.9776
B( 22-C , 26-C ) :   1.4677 B( 22-C , 28-H ) :   0.9797 B( 23-C , 29-H ) :   0.9850
B( 26-C , 30-H ) :   0.9880 B( 31-N , 32-C ) :   1.0594 B( 31-N , 33-C ) :   1.0586
B( 32-C , 34-C ) :   1.3867 B( 32-C , 35-C ) :   1.3090 B( 33-C , 36-C ) :   1.3811
B( 33-C , 37-C ) :   1.3348 B( 34-C , 38-C ) :   1.4323 B( 34-C , 39-H ) :   0.9702
B( 35-C , 37-C ) :   1.0472 B( 35-C , 40-C ) :   1.3192 B( 36-C , 41-C ) :   1.4380
B( 36-C , 42-H ) :   0.9666 B( 37-C , 43-C ) :   1.3198 B( 38-C , 44-C ) :   1.3547
B( 38-C , 45-H ) :   0.9772 B( 40-C , 44-C ) :   1.4678 B( 40-C , 46-H ) :   0.9799
B( 41-C , 47-C ) :   1.3571 B( 41-C , 48-H ) :   0.9767 B( 43-C , 47-C ) :   1.4731
B( 43-C , 49-H ) :   0.9803 B( 44-C , 50-H ) :   0.9871 B( 47-C , 51-H ) :   0.9850
B( 52-N , 53-C ) :   1.0511 B( 52-N , 54-C ) :   1.0536 B( 53-C , 55-C ) :   1.4085
B( 53-C , 56-C ) :   1.3234 B( 54-C , 57-C ) :   1.4000 B( 54-C , 58-C ) :   1.3223
B( 55-C , 59-C ) :   1.4389 B( 55-C , 60-H ) :   0.9590 B( 56-C , 58-C ) :   1.0520
B( 56-C , 61-C ) :   1.3108 B( 57-C , 62-C ) :   1.4352 B( 57-C , 63-H ) :   0.9639
B( 58-C , 64-C ) :   1.3137 B( 59-C , 65-C ) :   1.3462 B( 59-C , 66-H ) :   0.9785
B( 61-C , 65-C ) :   1.4625 B( 61-C , 67-H ) :   0.9806 B( 62-C , 68-C ) :   1.3485
B( 62-C , 69-H ) :   0.9782 B( 64-C , 68-C ) :   1.4636 B( 64-C , 70-H ) :   0.9809
B( 65-C , 71-H ) :   0.9896 B( 68-C , 72-H ) :   0.9879

MP2 TOTAL ENERGY:    -2423.653853934 Eh

-----------------------------------------------------------------------------
         ABSORPTION SPECTRUM VIA TRANSITION ELECTRIC DIPOLE MOMENTS
-----------------------------------------------------------------------------
State   Energy    Wavelength  fosc         T2        TX        TY        TZ
        (cm-1)      (nm)                 (au**2)    (au)      (au)      (au)
-----------------------------------------------------------------------------
   1   23746.2    421.1   0.161348454   2.23690  -1.46597  -0.06963  -0.28804
   2   25721.7    388.8   0.066901456   0.85627   0.01958  -0.92503   0.01413
   3   25873.2    386.5   0.012253596   0.15592   0.15788  -0.36182  -0.00876
   4   27959.1    357.7   0.174534209   2.05510   0.00405   1.43355  -0.00473
   5   28106.8    355.8   0.001605480   0.01880   0.05139  -0.00492  -0.12704
   6   28162.2    355.1   0.000189299   0.00221   0.00685   0.03725  -0.02789
   7   32235.7    310.2   0.208239402   2.12667  -1.30419  -0.03001  -0.65182
   8   29588.8    338.0   0.009763365   0.10863   0.05616  -0.32351  -0.02862
   9   32891.9    304.0   0.075775055   0.75843   0.00174  -0.87058   0.02255
  10   32923.7    303.7   0.040538996   0.40536  -0.02011  -0.63611   0.01773
  11   37056.3    269.9   0.159748216   1.41922  -0.18745  -0.15055   1.16680
  12   37299.0    268.1   0.084645392   0.74711   0.00618   0.83426   0.22600
  13   36932.4    270.8   0.405219470   3.61209  -1.08582   0.00747   1.55981
  14   33318.3    300.1   0.238702154   2.35857  -0.88901   0.00900   1.25226
  15   31854.1    313.9   0.053521866   0.55315  -0.56416   0.00273   0.48463
  16   30538.5    327.5   0.003917234   0.04223   0.05703   0.18934  -0.05591
  17   35633.9    280.6   0.219650948   2.02930  -1.42032   0.00451  -0.10944
  18   32925.3    303.7   0.001353599   0.01353  -0.10495   0.04116   0.02872
  19   33038.0    302.7   0.029051847   0.28949  -0.50939   0.00469   0.17319
  20   41796.1    239.3   0.099653980   0.78494   0.02694  -0.88542   0.01564
  21   42312.2    236.3   0.038276719   0.29781   0.06418   0.39509  -0.37095
  22   42253.7    236.7   0.083988257   0.65438   0.10054  -0.21874  -0.77228
  23   42353.8    236.1   0.136041431   1.05744  -0.61693  -0.03590   0.82192
  24   37298.0    268.1   0.193448704   1.70748   0.41001  -0.11281  -1.23557
  25   37779.5    264.7   0.083861998   0.73078   0.02938   0.84971  -0.08893
  26   38186.2    261.9   0.026864202   0.23160  -0.03131  -0.47941   0.02806
  27   44399.9    225.2   1.122532983   8.32325   0.26923   2.87238  -0.01433
  28   43932.8    227.6   0.849612794   6.36660  -2.46100   0.20671   0.51704
  29   44637.5    224.0   0.671124747   4.94970  -1.21937   0.06854  -1.85961
  30   45552.6    219.5   0.029151215   0.21068   0.19259  -0.12654   0.39695
  31   45472.3    219.9   0.231601936   1.67676  -0.58163  -0.03724  -1.15632
  32   45111.5    221.7   0.007301717   0.05329  -0.03219   0.19444   0.12018
  33   44608.1    224.2   0.442239913   3.26377  -0.13623  -1.77707   0.29535
  34   44592.5    224.3   1.676022153  12.37354   2.00372  -0.19999  -2.88421
  35   43794.6    228.3   0.396121576   2.97772   1.52009   0.02356  -0.81638
  36   47824.9    209.1   0.080436727   0.55370   0.40591   0.04140   0.62227
  37   48115.6    207.8   0.054332192   0.37175  -0.02367   0.60868  -0.02634
  38   48982.1    204.2   0.001772811   0.01192   0.01475  -0.10389  -0.03008
  39   42741.9    234.0   0.072403431   0.55767  -0.72174  -0.00718   0.19160
  40   43793.2    228.3   0.025561200   0.19215   0.02493   0.43764  -0.00250
  41   42713.1    234.1   0.005719741   0.04409   0.01961  -0.20615  -0.03469
  42   45464.1    220.0   0.016414957   0.11886   0.03158   0.02793  -0.34218
  43   47006.9    212.7   0.046036487   0.32242  -0.18536  -0.20911   0.49430
  44   45399.3    220.3   0.053436542   0.38749   0.11051  -0.51053  -0.33858
  45   48004.6    208.3   0.032440917   0.22248  -0.05883  -0.40420   0.23587
  46   46040.1    217.2   0.011092169   0.07932  -0.00417  -0.23356  -0.15732
  47   50566.9    197.8   0.005139126   0.03346   0.01040  -0.18216   0.01297
  48   46579.0    214.7   0.055566330   0.39273  -0.33651   0.00417   0.52866
  49   49633.4    201.5   0.370749962   2.45913   1.13720  -0.00252  -1.07977
  50   45511.5    219.7   0.058030875   0.41977   0.31130   0.00152  -0.56821
  51   43726.2    228.7   0.005891369   0.04436  -0.02909  -0.01108  -0.20830
  52   43788.0    228.4   0.000630438   0.00474   0.02735  -0.04981   0.03887
  53   45423.6    220.1   0.000385622   0.00279  -0.01171  -0.05075  -0.00904
  54   45512.2    219.7   0.000862297   0.00624   0.02452   0.00992  -0.07442
  55   45402.0    220.3   0.001426305   0.01034  -0.05472   0.07637   0.03894
  56   48974.8    204.2   0.041969686   0.28212   0.53110  -0.00400   0.00626
  57   45884.3    217.9   0.006696945   0.04805   0.13237   0.00772  -0.17455
  58   45849.1    218.1   0.000197277   0.00142  -0.01395  -0.01032   0.03339
  59   45860.8    218.1   0.000372552   0.00267   0.01513  -0.01054  -0.04832
  60   47211.1    211.8   0.012050158   0.08403   0.00194   0.28987  -0.00102

FINAL SINGLE POINT ENERGY     -2420.237464623302

DIPOLE MOMENT
-------------
                                X             Y             Z
Electronic contribution:      0.19817      -7.52312      -0.32833
Nuclear contribution   :     -0.20118       6.09592       0.34197
                        -----------------------------------------
Total Dipole Moment    :     -0.00300      -1.42720       0.01364
                        -----------------------------------------
Magnitude (a.u.)       :      1.42727
Magnitude (Debye)      :      3.62784

Rotational constants in cm-1:     0.002146     0.002013     0.001365
Rotational constants in MHz :    64.345159    60.335456    40.912206

                             ****ORCA TERMINATED NORMALLY****
TOTAL RUN TIME: 4 days 15 hours 50 minutes 37 seconds 55 msec
