                         Program Version 5.0.2 -  RELEASE  -
|  1> %maxcore 24000
|  2> %pal
|  3>  nprocs= 8
|  4> end
|  5> ! RI-wB2PLYP def2-TZVP def2/J def2-TZVP/C RIJCOSX CPCM TightSCF
|  6> %TDDFT DCORR 1
|  7>    NROOTS   60
|  8>   TDA      FALSE
|  9> END
| 10>
| 11>  %CPCM
| 12>    SMD          TRUE
| 13>    SMDsolvent   "ACETONITRILE"
| 14>  END
| 15>
| 16>
| 17> * xyz 0 1
| 18> C                  -1.18445100   -0.76873300   -0.18993100
| 19> C                   0.02649200   -1.44498300   -0.02305000
| 20> C                   1.22008300   -0.73649600    0.13327500
| 21> C                   1.19125300    0.66867600    0.14589700
| 22> C                  -0.00827200    1.36669000   -0.03695600
| 23> C                  -1.18865000    0.63605100   -0.22072100
| 24> C                   2.38180800    1.37670100    0.45029300
| 25> C                  -2.39464100    1.31355600   -0.53356600
| 26> N                   3.35098200    1.94967700    0.71396100
| 27> N                  -3.37494100    1.86285600   -0.80625800
| 28> N                  -2.38867400   -1.45614700   -0.35542200
| 29> C                  -2.74074700   -2.26563300   -1.43717600
| 30> C                  -3.48073000   -1.37297800    0.51200200
| 31> C                  -2.00578700   -2.58480600   -2.56878400
| 32> C                  -4.06137900   -2.71741500   -1.24706700
| 33> C                  -3.58968500   -0.69015200    1.71341800
| 34> C                  -4.52962100   -2.15349400   -0.00935100
| 35> C                  -2.61092600   -3.40079600   -3.51160300
| 36> H                  -1.00206200   -2.20759700   -2.71802900
| 37> C                  -4.64524200   -3.53491100   -2.21085800
| 38> C                  -4.79322400   -0.78895500    2.39390700
| 39> H                  -2.76911100   -0.10266700    2.10681400
| 40> C                  -5.72563500   -2.24036000    0.69801000
| 41> C                  -3.91250500   -3.87605300   -3.33469000
| 42> H                  -2.06155900   -3.67033100   -4.40448600
| 43> H                  -5.66016000   -3.89042300   -2.08254300
| 44> C                  -5.85001200   -1.55321300    1.89356200
| 45> H                  -4.91205900   -0.26369500    3.33289700
| 46> H                  -6.54401000   -2.83784300    0.31558800
| 47> H                  -4.35370700   -4.51113600   -4.09186900
| 48> H                  -6.77554900   -1.60940600    2.45167500
| 49> N                   2.43624800   -1.39562000    0.32978300
| 50> C                   3.53891600   -1.32681000   -0.52462700
| 51> C                   2.78959800   -2.14611900    1.45277200
| 52> C                   3.65211500   -0.69919700   -1.75563300
| 53> C                   4.59709500   -2.05800900    0.04831400
| 54> C                   2.04158000   -2.43251300    2.58443700
| 55> C                   4.12292100   -2.57488600    1.30408200
| 56> C                   4.86802500   -0.80374700   -2.41294900
| 57> H                   2.82534500   -0.15125000   -2.19008400
| 58> C                   5.80544100   -2.15179800   -0.63666800
| 59> C                   2.64870800   -3.19041300    3.57326100
| 60> H                   1.02592300   -2.07509300    2.69758100
| 61> C                   4.70838100   -3.33416200    2.31354300
| 62> C                   5.93321600   -1.51988200   -1.86190500
| 63> H                   4.98993500   -0.32194300   -3.37456600
| 64> H                   6.63006300   -2.71273400   -0.21439800
| 65> C                   3.96416400   -3.64119700    3.43971600
| 66> H                   2.08999900   -3.43335900    4.46801300
| 67> H                   5.73319800   -3.67124300    2.21834500
| 68> H                   6.86799700   -1.58233700   -2.40372500
| 69> H                   4.40689300   -4.23053600    4.23217000
| 70> N                  -0.03324400    2.76097600   -0.02488200
| 71> C                  -0.78039500    3.55286300    0.85464600
| 72> C                   0.67886200    3.60433000   -0.88420000
| 73> C                  -1.60131000    3.16383500    1.90243300
| 74> C                  -0.54120200    4.90665200    0.55271900
| 75> C                   1.51528300    3.27632300   -1.94033100
| 76> C                   0.38150600    4.93922100   -0.55009300
| 77> C                  -2.21131400    4.16603000    2.64008300
| 78> H                  -1.76022700    2.12075700    2.14555500
| 79> C                  -1.16432900    5.89360100    1.31174600
| 80> C                   2.08112200    4.32129600   -2.65341200
| 81> H                   1.71766900    2.24672000   -2.20656800
| 82> C                   0.96143300    5.96985900   -1.28453000
| 83> C                  -2.00095900    5.51532300    2.34753000
| 84> H                  -2.86117400    3.89280600    3.46147200
| 85> H                  -0.98994500    6.94009200    1.09420700
| 86> C                   1.81302800    5.65291800   -2.32861400
| 87> H                   2.74161700    4.09608600   -3.48082700
| 88> H                   0.74262500    7.00237200   -1.04187500
| 89> H                  -2.49373800    6.27176400    2.94436600
| 90> H                   2.27262700    6.44382700   -2.90695300
| 91> Cl                  0.04745500   -3.15837000   -0.00039000
| 92> *
| 93>
| 94>
| 95>                          ****END OF INPUT****

CARTESIAN COORDINATES (ANGSTROEM)
---------------------------------
  C     -1.184451   -0.768733   -0.189931
  C      0.026492   -1.444983   -0.023050
  C      1.220083   -0.736496    0.133275
  C      1.191253    0.668676    0.145897
  C     -0.008272    1.366690   -0.036956
  C     -1.188650    0.636051   -0.220721
  C      2.381808    1.376701    0.450293
  C     -2.394641    1.313556   -0.533566
  N      3.350982    1.949677    0.713961
  N     -3.374941    1.862856   -0.806258
  N     -2.388674   -1.456147   -0.355422
  C     -2.740747   -2.265633   -1.437176
  C     -3.480730   -1.372978    0.512002
  C     -2.005787   -2.584806   -2.568784
  C     -4.061379   -2.717415   -1.247067
  C     -3.589685   -0.690152    1.713418
  C     -4.529621   -2.153494   -0.009351
  C     -2.610926   -3.400796   -3.511603
  H     -1.002062   -2.207597   -2.718029
  C     -4.645242   -3.534911   -2.210858
  C     -4.793224   -0.788955    2.393907
  H     -2.769111   -0.102667    2.106814
  C     -5.725635   -2.240360    0.698010
  C     -3.912505   -3.876053   -3.334690
  H     -2.061559   -3.670331   -4.404486
  H     -5.660160   -3.890423   -2.082543
  C     -5.850012   -1.553213    1.893562
  H     -4.912059   -0.263695    3.332897
  H     -6.544010   -2.837843    0.315588
  H     -4.353707   -4.511136   -4.091869
  H     -6.775549   -1.609406    2.451675
  N      2.436248   -1.395620    0.329783
  C      3.538916   -1.326810   -0.524627
  C      2.789598   -2.146119    1.452772
  C      3.652115   -0.699197   -1.755633
  C      4.597095   -2.058009    0.048314
  C      2.041580   -2.432513    2.584437
  C      4.122921   -2.574886    1.304082
  C      4.868025   -0.803747   -2.412949
  H      2.825345   -0.151250   -2.190084
  C      5.805441   -2.151798   -0.636668
  C      2.648708   -3.190413    3.573261
  H      1.025923   -2.075093    2.697581
  C      4.708381   -3.334162    2.313543
  C      5.933216   -1.519882   -1.861905
  H      4.989935   -0.321943   -3.374566
  H      6.630063   -2.712734   -0.214398
  C      3.964164   -3.641197    3.439716
  H      2.089999   -3.433359    4.468013
  H      5.733198   -3.671243    2.218345
  H      6.867997   -1.582337   -2.403725
  H      4.406893   -4.230536    4.232170
  N     -0.033244    2.760976   -0.024882
  C     -0.780395    3.552863    0.854646
  C      0.678862    3.604330   -0.884200
  C     -1.601310    3.163835    1.902433
  C     -0.541202    4.906652    0.552719
  C      1.515283    3.276323   -1.940331
  C      0.381506    4.939221   -0.550093
  C     -2.211314    4.166030    2.640083
  H     -1.760227    2.120757    2.145555
  C     -1.164329    5.893601    1.311746
  C      2.081122    4.321296   -2.653412
  H      1.717669    2.246720   -2.206568
  C      0.961433    5.969859   -1.284530
  C     -2.000959    5.515323    2.347530
  H     -2.861174    3.892806    3.461472
  H     -0.989945    6.940092    1.094207
  C      1.813028    5.652918   -2.328614
  H      2.741617    4.096086   -3.480827
  H      0.742625    7.002372   -1.041875
  H     -2.493738    6.271764    2.944366
  H      2.272627    6.443827   -2.906953
  Cl     0.047455   -3.158370   -0.000390

 Total Charge           Charge          ....    0
 Multiplicity           Mult            ....    1
 Number of Electrons    NEL             ....  340
 Basis Dimension        Dim             .... 1700

ORBITAL ENERGIES
----------------

  NO   OCC          E(Eh)            E(eV)
   0   2.0000    -103.010654     -2803.0624
   1   2.0000     -14.977080      -407.5471
   2   2.0000     -14.974163      -407.4677
   3   2.0000     -14.973682      -407.4546
   4   2.0000     -14.940148      -406.5421
   5   2.0000     -14.939956      -406.5369
   6   2.0000     -10.802143      -293.9413
   7   2.0000     -10.800349      -293.8924
   8   2.0000     -10.800222      -293.8890
   9   2.0000     -10.792599      -293.6815
  10   2.0000     -10.769596      -293.0556
  11   2.0000     -10.769331      -293.0484
  12   2.0000     -10.759903      -292.7918
  13   2.0000     -10.759761      -292.7880
  14   2.0000     -10.740750      -292.2707
  15   2.0000     -10.740703      -292.2694
  16   2.0000     -10.739866      -292.2466
  17   2.0000     -10.739785      -292.2444
  18   2.0000     -10.739740      -292.2432
  19   2.0000     -10.739496      -292.2366
  20   2.0000     -10.698934      -291.1328
  21   2.0000     -10.698403      -291.1184
  22   2.0000     -10.698306      -291.1157
  23   2.0000     -10.698294      -291.1154
  24   2.0000     -10.697778      -291.1013
  25   2.0000     -10.697663      -291.0982
  26   2.0000     -10.694082      -291.0008
  27   2.0000     -10.694062      -291.0002
  28   2.0000     -10.694032      -290.9994
  29   2.0000     -10.693985      -290.9981
  30   2.0000     -10.693882      -290.9953
  31   2.0000     -10.693847      -290.9944
  32   2.0000     -10.693714      -290.9907
  33   2.0000     -10.693711      -290.9907
  34   2.0000     -10.693365      -290.9812
  35   2.0000     -10.693322      -290.9801
  36   2.0000     -10.693158      -290.9756
  37   2.0000     -10.693054      -290.9728
  38   2.0000     -10.691926      -290.9421
  39   2.0000     -10.691922      -290.9420
  40   2.0000     -10.691914      -290.9418
  41   2.0000     -10.691870      -290.9406
  42   2.0000     -10.691558      -290.9321
  43   2.0000     -10.691538      -290.9315
  44   2.0000     -10.684568      -290.7419
  45   2.0000     -10.684511      -290.7403
  46   2.0000     -10.684267      -290.7337
  47   2.0000     -10.684173      -290.7311
  48   2.0000     -10.684057      -290.7280
  49   2.0000     -10.683989      -290.7261
  50   2.0000     -10.021735      -272.7053
  51   2.0000      -7.661626      -208.4835
  52   2.0000      -7.655581      -208.3190
  53   2.0000      -7.655259      -208.3102
  54   2.0000      -1.246734       -33.9254
  55   2.0000      -1.236286       -33.6411
  56   2.0000      -1.235690       -33.6248
  57   2.0000      -1.154062       -31.4036
  58   2.0000      -1.147496       -31.2250
  59   2.0000      -1.136660       -30.9301
  60   2.0000      -1.098642       -29.8956
  61   2.0000      -1.084036       -29.4981
  62   2.0000      -1.071775       -29.1645
  63   2.0000      -1.066816       -29.0295
  64   2.0000      -1.066251       -29.0142
  65   2.0000      -1.065570       -28.9956
  66   2.0000      -1.055843       -28.7310
  67   2.0000      -1.024490       -27.8778
  68   2.0000      -1.003876       -27.3168
  69   2.0000      -0.986712       -26.8498
  70   2.0000      -0.984048       -26.7773
  71   2.0000      -0.967647       -26.3310
  72   2.0000      -0.956041       -26.0152
  73   2.0000      -0.955298       -25.9950
  74   2.0000      -0.954919       -25.9847
  75   2.0000      -0.938261       -25.5314
  76   2.0000      -0.930685       -25.3252
  77   2.0000      -0.921911       -25.0865
  78   2.0000      -0.916417       -24.9370
  79   2.0000      -0.916075       -24.9277
  80   2.0000      -0.915823       -24.9208
  81   2.0000      -0.871320       -23.7098
  82   2.0000      -0.863314       -23.4920
  83   2.0000      -0.833793       -22.6887
  84   2.0000      -0.814573       -22.1656
  85   2.0000      -0.813752       -22.1433
  86   2.0000      -0.789410       -21.4809
  87   2.0000      -0.786662       -21.4062
  88   2.0000      -0.783669       -21.3247
  89   2.0000      -0.783164       -21.3110
  90   2.0000      -0.773302       -21.0426
  91   2.0000      -0.758289       -20.6341
  92   2.0000      -0.750027       -20.4093
  93   2.0000      -0.749327       -20.3902
  94   2.0000      -0.748744       -20.3743
  95   2.0000      -0.741095       -20.1662
  96   2.0000      -0.724455       -19.7134
  97   2.0000      -0.711883       -19.3713
  98   2.0000      -0.695220       -18.9179
  99   2.0000      -0.683935       -18.6108
 100   2.0000      -0.680476       -18.5167
 101   2.0000      -0.674854       -18.3637
 102   2.0000      -0.673436       -18.3251
 103   2.0000      -0.666914       -18.1477
 104   2.0000      -0.663450       -18.0534
 105   2.0000      -0.654619       -17.8131
 106   2.0000      -0.645285       -17.5591
 107   2.0000      -0.617138       -16.7932
 108   2.0000      -0.615943       -16.7607
 109   2.0000      -0.612490       -16.6667
 110   2.0000      -0.608987       -16.5714
 111   2.0000      -0.606773       -16.5111
 112   2.0000      -0.603155       -16.4127
 113   2.0000      -0.602781       -16.4025
 114   2.0000      -0.600538       -16.3415
 115   2.0000      -0.587937       -15.9986
 116   2.0000      -0.585993       -15.9457
 117   2.0000      -0.583035       -15.8652
 118   2.0000      -0.582562       -15.8523
 119   2.0000      -0.577952       -15.7269
 120   2.0000      -0.577724       -15.7207
 121   2.0000      -0.574256       -15.6263
 122   2.0000      -0.573587       -15.6081
 123   2.0000      -0.572933       -15.5903
 124   2.0000      -0.571378       -15.5480
 125   2.0000      -0.569608       -15.4998
 126   2.0000      -0.561330       -15.2746
 127   2.0000      -0.560045       -15.2396
 128   2.0000      -0.558727       -15.2037
 129   2.0000      -0.558134       -15.1876
 130   2.0000      -0.549531       -14.9535
 131   2.0000      -0.547411       -14.8958
 132   2.0000      -0.530616       -14.4388
 133   2.0000      -0.525755       -14.3065
 134   2.0000      -0.505425       -13.7533
 135   2.0000      -0.501830       -13.6555
 136   2.0000      -0.501176       -13.6377
 137   2.0000      -0.501052       -13.6343
 138   2.0000      -0.500712       -13.6251
 139   2.0000      -0.500567       -13.6211
 140   2.0000      -0.499114       -13.5816
 141   2.0000      -0.497271       -13.5314
 142   2.0000      -0.495720       -13.4892
 143   2.0000      -0.485376       -13.2078
 144   2.0000      -0.484824       -13.1927
 145   2.0000      -0.479981       -13.0609
 146   2.0000      -0.474930       -12.9235
 147   2.0000      -0.473190       -12.8761
 148   2.0000      -0.472031       -12.8446
 149   2.0000      -0.471795       -12.8382
 150   2.0000      -0.470806       -12.8113
 151   2.0000      -0.470410       -12.8005
 152   2.0000      -0.468130       -12.7385
 153   2.0000      -0.467028       -12.7085
 154   2.0000      -0.459964       -12.5163
 155   2.0000      -0.456553       -12.4234
 156   2.0000      -0.400673       -10.9029
 157   2.0000      -0.399607       -10.8739
 158   2.0000      -0.396883       -10.7997
 159   2.0000      -0.386488       -10.5169
 160   2.0000      -0.376227       -10.2377
 161   2.0000      -0.362784        -9.8719
 162   2.0000      -0.361889        -9.8475
 163   2.0000      -0.359550        -9.7839
 164   2.0000      -0.310422        -8.4470
 165   2.0000      -0.310163        -8.4400
 166   2.0000      -0.309588        -8.4243
 167   2.0000      -0.309447        -8.4205
 168   2.0000      -0.308316        -8.3897
 169   2.0000      -0.303018        -8.2455
 170   0.0000      -0.005812        -0.1582
 171   0.0000       0.015743         0.4284
 172   0.0000       0.044299         1.2054
 173   0.0000       0.044444         1.2094
 174   0.0000       0.046476         1.2647

MULLIKEN ATOMIC CHARGES
-----------------------
   0 C :    0.123919
   1 C :   -0.106531
   2 C :    0.104986
   3 C :    0.155112
   4 C :    0.082534
   5 C :    0.133652
   6 C :   -0.167510
   7 C :   -0.162503
   8 N :   -0.082039
   9 N :   -0.081010
  10 N :    0.002026
  11 C :    0.125283
  12 C :    0.122115
  13 C :   -0.273317
  14 C :   -0.018015
  15 C :   -0.288311
  16 C :   -0.011568
  17 C :   -0.154619
  18 H :    0.199100
  19 C :   -0.227828
  20 C :   -0.160370
  21 H :    0.211163
  22 C :   -0.223795
  23 C :   -0.195125
  24 H :    0.182197
  25 H :    0.184492
  26 C :   -0.196002
  27 H :    0.182339
  28 H :    0.185333
  29 H :    0.178285
  30 H :    0.177721
  31 N :    0.002443
  32 C :    0.117458
  33 C :    0.125396
  34 C :   -0.288985
  35 C :   -0.006400
  36 C :   -0.272404
  37 C :   -0.017952
  38 C :   -0.154130
  39 H :    0.205290
  40 C :   -0.225164
  41 C :   -0.157272
  42 H :    0.199423
  43 C :   -0.229096
  44 C :   -0.195214
  45 H :    0.182515
  46 H :    0.184874
  47 C :   -0.193517
  48 H :    0.182188
  49 H :    0.184513
  50 H :    0.177873
  51 H :    0.178226
  52 N :   -0.002401
  53 C :    0.124109
  54 C :    0.126855
  55 C :   -0.284565
  56 C :   -0.020655
  57 C :   -0.288444
  58 C :   -0.022171
  59 C :   -0.151833
  60 H :    0.207505
  61 C :   -0.220392
  62 C :   -0.147976
  63 H :    0.205263
  64 C :   -0.220098
  65 C :   -0.200569
  66 H :    0.182213
  67 H :    0.184948
  68 C :   -0.199672
  69 H :    0.182265
  70 H :    0.184579
  71 H :    0.177447
  72 H :    0.177891
  73 Cl:    0.003916
Sum of atomic charges:    0.0000000

LOEWDIN ATOMIC CHARGES
----------------------
   0 C :   -0.086858
   1 C :   -0.349263
   2 C :   -0.086770
   3 C :   -0.062619
   4 C :   -0.042871
   5 C :   -0.063712
   6 C :   -0.116564
   7 C :   -0.117337
   8 N :    0.038288
   9 N :    0.038409
  10 N :    0.309849
  11 C :   -0.123959
  12 C :   -0.116422
  13 C :   -0.132839
  14 C :   -0.087525
  15 C :   -0.122334
  16 C :   -0.087214
  17 C :   -0.142882
  18 H :    0.160922
  19 C :   -0.100735
  20 C :   -0.141689
  21 H :    0.163357
  22 C :   -0.099564
  23 C :   -0.163056
  24 H :    0.157013
  25 H :    0.160352
  26 C :   -0.162306
  27 H :    0.157170
  28 H :    0.160425
  29 H :    0.154284
  30 H :    0.154373
  31 N :    0.309106
  32 C :   -0.116898
  33 C :   -0.123989
  34 C :   -0.122711
  35 C :   -0.087424
  36 C :   -0.132704
  37 C :   -0.087660
  38 C :   -0.141840
  39 H :    0.163350
  40 C :   -0.099738
  41 C :   -0.142849
  42 H :    0.161041
  43 C :   -0.100771
  44 C :   -0.162615
  45 H :    0.157129
  46 H :    0.160422
  47 C :   -0.163207
  48 H :    0.157000
  49 H :    0.160313
  50 H :    0.154343
  51 H :    0.154247
  52 N :    0.319264
  53 C :   -0.112392
  54 C :   -0.113000
  55 C :   -0.121381
  56 C :   -0.086066
  57 C :   -0.121663
  58 C :   -0.086086
  59 C :   -0.141164
  60 H :    0.163417
  61 C :   -0.099032
  62 C :   -0.141209
  63 H :    0.163625
  64 C :   -0.099072
  65 C :   -0.160916
  66 H :    0.157364
  67 H :    0.160594
  68 C :   -0.161026
  69 H :    0.157336
  70 H :    0.160599
  71 H :    0.154566
  72 H :    0.154544
  73 Cl:    0.509230

  Mayer bond orders larger than 0.100000
B(  0-C ,  1-C ) :   1.2845 B(  0-C ,  5-C ) :   1.3210 B(  0-C , 10-N ) :   1.0239
B(  1-C ,  2-C ) :   1.2842 B(  1-C , 73-Cl) :   1.3107 B(  2-C ,  3-C ) :   1.3322
B(  2-C , 31-N ) :   1.0116 B(  3-C ,  4-C ) :   1.3839 B(  3-C ,  6-C ) :   0.9530
B(  4-C ,  5-C ) :   1.3666 B(  4-C , 52-N ) :   1.1026 B(  5-C ,  7-C ) :   0.9563
B(  6-C ,  8-N ) :   3.0570 B(  7-C ,  9-N ) :   3.0582 B( 10-N , 11-C ) :   1.0670
B( 10-N , 12-C ) :   1.0639 B( 11-C , 13-C ) :   1.3576 B( 11-C , 14-C ) :   1.3427
B( 12-C , 15-C ) :   1.3689 B( 12-C , 16-C ) :   1.3293 B( 13-C , 17-C ) :   1.4513
B( 13-C , 18-H ) :   0.9497 B( 14-C , 16-C ) :   1.0548 B( 14-C , 19-C ) :   1.3335
B( 15-C , 20-C ) :   1.4485 B( 15-C , 21-H ) :   0.9442 B( 16-C , 22-C ) :   1.3347
B( 17-C , 23-C ) :   1.3594 B( 17-C , 24-H ) :   0.9710 B( 19-C , 23-C ) :   1.4765
B( 19-C , 25-H ) :   0.9652 B( 20-C , 26-C ) :   1.3573 B( 20-C , 27-H ) :   0.9713
B( 22-C , 26-C ) :   1.4717 B( 22-C , 28-H ) :   0.9641 B( 23-C , 29-H ) :   0.9785
B( 26-C , 30-H ) :   0.9815 B( 31-N , 32-C ) :   1.0665 B( 31-N , 33-C ) :   1.0642
B( 32-C , 34-C ) :   1.3636 B( 32-C , 35-C ) :   1.3234 B( 33-C , 36-C ) :   1.3586
B( 33-C , 37-C ) :   1.3441 B( 34-C , 38-C ) :   1.4455 B( 34-C , 39-H ) :   0.9518
B( 35-C , 37-C ) :   1.0562 B( 35-C , 40-C ) :   1.3339 B( 36-C , 41-C ) :   1.4515
B( 36-C , 42-H ) :   0.9497 B( 37-C , 43-C ) :   1.3327 B( 38-C , 44-C ) :   1.3586
B( 38-C , 45-H ) :   0.9710 B( 40-C , 44-C ) :   1.4718 B( 40-C , 46-H ) :   0.9646
B( 41-C , 47-C ) :   1.3597 B( 41-C , 48-H ) :   0.9708 B( 43-C , 47-C ) :   1.4766
B( 43-C , 49-H ) :   0.9651 B( 44-C , 50-H ) :   0.9806 B( 47-C , 51-H ) :   0.9784
B( 52-N , 53-C ) :   1.0615 B( 52-N , 54-C ) :   1.0631 B( 53-C , 55-C ) :   1.3785
B( 53-C , 56-C ) :   1.3396 B( 54-C , 57-C ) :   1.3711 B( 54-C , 58-C ) :   1.3378
B( 55-C , 59-C ) :   1.4530 B( 55-C , 60-H ) :   0.9400 B( 56-C , 58-C ) :   1.0601
B( 56-C , 61-C ) :   1.3275 B( 57-C , 62-C ) :   1.4489 B( 57-C , 63-H ) :   0.9456
B( 58-C , 64-C ) :   1.3299 B( 59-C , 65-C ) :   1.3522 B( 59-C , 66-H ) :   0.9722
B( 61-C , 65-C ) :   1.4667 B( 61-C , 67-H ) :   0.9657 B( 62-C , 68-C ) :   1.3544
B( 62-C , 69-H ) :   0.9720 B( 64-C , 68-C ) :   1.4680 B( 64-C , 70-H ) :   0.9662
B( 65-C , 71-H ) :   0.9827 B( 68-C , 72-H ) :   0.9806

MP2 TOTAL ENERGY:    -2421.761989253 Eh

-----------------------------------------------------------------------------
         ABSORPTION SPECTRUM VIA TRANSITION ELECTRIC DIPOLE MOMENTS
-----------------------------------------------------------------------------
State   Energy    Wavelength  fosc         T2        TX        TY        TZ
        (cm-1)      (nm)                 (au**2)    (au)      (au)      (au)
-----------------------------------------------------------------------------
   1   29131.9    343.3   0.222939789   2.51938  -1.55494  -0.08336  -0.30758
   2   31321.9    319.3   0.051644092   0.54281  -0.03923   0.73542  -0.02055
   3   32543.1    307.3   0.315734115   3.19403   0.05967  -1.78618   0.00553
   4   32419.5    308.5   0.027996648   0.28430   0.52515   0.08087  -0.04448
   5   35953.7    278.1   0.129947999   1.18987  -1.01793   0.10269  -0.37835
   6   36050.0    277.4   0.064433272   0.58841  -0.15401  -0.74936  -0.05608
   7   36194.6    276.3   0.023100021   0.21011   0.03866  -0.45638  -0.01812
   8   39084.6    255.9   0.119559184   1.00705   0.08336  -0.08876   0.99611
   9   39072.7    255.9   0.110088060   0.92756   0.06723   0.95780   0.07522
  10   39169.5    255.3   0.731807478   6.15070  -1.18075   0.01686   2.18088
  11   36371.1    274.9   0.013224924   0.11970  -0.26211  -0.06834  -0.21525
  12   36460.4    274.3   0.004132262   0.03731  -0.09472   0.15721  -0.06021
  13   36818.4    271.6   0.184736107   1.65182   1.25936   0.01433  -0.25620
  14   39342.1    254.2   0.045683733   0.38228   0.56340   0.02261  -0.25368
  15   37528.1    266.5   0.000382475   0.00336  -0.05212   0.01872   0.01697
  16   37817.1    264.4   0.008632229   0.07515  -0.04351   0.27035   0.01275
  17   40758.1    245.4   0.339416832   2.74154  -1.60955   0.06384  -0.38318
  18   43705.9    228.8   0.122486625   0.92262   0.07881   0.95729  -0.00173
  19   43652.4    229.1   0.049985005   0.37697  -0.33612  -0.33438   0.39010
  20   43608.7    229.3   0.134409782   1.01469  -0.62796   0.20320   0.76097
  21   44030.1    227.1   0.174949430   1.30809  -0.84410  -0.04570   0.77038
  22   43054.3    232.3   0.059476793   0.45479   0.06156  -0.65465   0.14976
  23   43261.2    231.2   0.208057059   1.58329  -0.37064  -0.17213  -1.19008
  24   47729.1    209.5   0.865702671   5.97119   0.40607   2.40680   0.11672
  25   47744.1    209.4   0.496396191   3.42282   1.74283  -0.41060   0.46560
  26   47391.6    211.0   0.080249156   0.55746  -0.61644   0.29202  -0.30362
  27   47453.7    210.7   0.192880075   1.33811   0.06451   1.15078   0.09829
  28   48164.2    207.6   0.238226419   1.62832  -0.18715   1.26086   0.05948
  29   47482.0    210.6   2.525693095  17.51167   1.65803   0.02381  -3.84214
  30   48579.2    205.8   0.562306530   3.81064   0.04948   1.94881  -0.10164
  31   47543.2    210.3   0.744513661   5.15537  -2.24494  -0.00819   0.33992
  32   50304.3    198.8   0.373500415   2.44434   1.55828  -0.00243   0.12691
  33   49943.3    200.2   0.093652453   0.61733  -0.08469   0.77416   0.10409
  34   50835.4    196.7   0.004959631   0.03212   0.05194  -0.16007  -0.06164
  35   48367.2    206.8   0.117949936   0.80283  -0.62919  -0.06343   0.63476
  36   49684.6    201.3   0.002222539   0.01473  -0.09399   0.02321   0.07317
  37   49386.4    202.5   0.000064734   0.00043  -0.00742   0.01660   0.01004
  38   51752.9    193.2   0.003654433   0.02325  -0.03424   0.01529  -0.14779
  39   52780.2    189.5   0.067610565   0.42172   0.23837   0.00857  -0.60400
  40   51749.9    193.2   0.071022105   0.45181  -0.03933  -0.66899   0.05209
  41   53269.3    187.7   0.340739032   2.10582  -0.87532   0.05786   1.15598
  42   53460.3    187.1   0.001494081   0.00920   0.06727  -0.01029  -0.06760
  43   53735.8    186.1   0.138124594   0.84622  -0.79975  -0.00585   0.45452
  44   53174.2    188.1   0.068366231   0.42327  -0.64320  -0.00552   0.09762
  45   54271.0    184.3   0.075986346   0.46094  -0.57605  -0.00227  -0.35930
  46   55614.7    179.8   0.000421158   0.00249  -0.03210   0.03353  -0.01840
  47   55666.0    179.6   0.072691491   0.42990  -0.00567  -0.65564   0.00271
  48   57079.6    175.2   0.004662014   0.02689  -0.15047   0.01156  -0.06413
  49   56099.2    178.3   0.003086652   0.01811  -0.00226  -0.13354  -0.01661
  50   55816.5    179.2   0.009107580   0.05372  -0.19651  -0.00711  -0.12268
  51   52507.8    190.4   0.015585525   0.09772  -0.00315  -0.31247   0.00853
  52   56041.2    178.4   0.000746285   0.00438  -0.06126  -0.00893  -0.02347
  53   53627.5    186.5   0.028319351   0.17385  -0.41572   0.00292   0.03183
  54   53623.5    186.5   0.000315578   0.00194   0.00231   0.02232  -0.03787
  55   54513.3    183.4   0.000275252   0.00166  -0.01065  -0.03906   0.00485
  56   56029.6    178.5   0.020937550   0.12302   0.16089   0.31085  -0.02254
  57   57360.1    174.3   0.002892245   0.01660  -0.07547  -0.10395  -0.00987
  58   56658.3    176.5   0.055735209   0.32385   0.55317  -0.09933  -0.08933
  59   55210.4    181.1   0.067087389   0.40003  -0.04147   0.62696   0.07236
  60   55026.1    181.7   0.015950964   0.09543  -0.04352  -0.25150   0.17402

FINAL SINGLE POINT ENERGY     -2419.272546755254

DIPOLE MOMENT
-------------
                                X             Y             Z
Electronic contribution:      0.19832      -7.50580      -0.32794
Nuclear contribution   :     -0.20118       6.09592       0.34197
                        -----------------------------------------
Total Dipole Moment    :     -0.00286      -1.40988       0.01403
                        -----------------------------------------
Magnitude (a.u.)       :      1.40996
Magnitude (Debye)      :      3.58382

Rotational constants in cm-1:     0.002146     0.002013     0.001365
Rotational constants in MHz :    64.345159    60.335456    40.912206

                             ****ORCA TERMINATED NORMALLY****
TOTAL RUN TIME: 1 days 0 hours 27 minutes 8 seconds 220 msec
