 Gaussian 09, Revision E.01,
 Gaussian 09:  ES64L-G09RevE.01 30-Nov-2015

 ----------------------------------------------------------------------
 #p wB97XD/def2TZVP td=(NStates=50) int=ultrafine scrf=(SMD,solvent=Ace
 tonitrile)
 ----------------------------------------------------------------------

 -----
 Title
 -----
 Symbolic Z-matrix:
 Charge =  0 Multiplicity = 1

                         Standard orientation:
 ---------------------------------------------------------------------
 Center     Atomic      Atomic             Coordinates (Angstroms)
 Number     Number       Type             X           Y           Z
 ---------------------------------------------------------------------
      1          6           0        1.287476   -0.551935    0.156473
      2          6           0        0.187623   -1.395445    0.025439
      3          6           0       -1.090149   -0.865575   -0.142537
      4          6           0       -1.252484    0.520827   -0.188990
      5          6           0       -0.170677    1.383952   -0.030201
      6          6           0        1.095150    0.830814    0.146967
      7          6           0       -2.552339    1.059476   -0.446152
      8          6           0        2.219165    1.687583    0.365214
      9          7           0       -3.592557    1.492262   -0.661744
     10          7           0        3.118813    2.375525    0.547389
     11          7           0        2.579760   -1.064079    0.329642
     12          6           0        3.102876   -1.563176    1.517511
     13          6           0        3.553811   -1.145123   -0.660213
     14          6           0        2.496961   -1.668639    2.761493
     15          6           0        4.427619   -1.968055    1.290382
     16          6           0        3.474535   -0.774422   -1.995154
     17          6           0        4.715825   -1.701694   -0.102865
     18          6           0        3.254113   -2.201522    3.790607
     19          1           0        1.475147   -1.347329    2.921568
     20          6           0        5.168813   -2.498942    2.341533
     21          6           0        4.602791   -0.968121   -2.773693
     22          1           0        2.568717   -0.351643   -2.411401
     23          6           0        5.836360   -1.887907   -0.906451
     24          6           0        4.574826   -2.613263    3.586300
     25          1           0        2.812361   -2.299906    4.774444
     26          1           0        6.192907   -2.815454    2.185640
     27          6           0        5.771970   -1.517438   -2.238441
     28          1           0        4.576482   -0.688332   -3.819513
     29          1           0        6.741992   -2.315831   -0.494207
     30          1           0        5.137388   -3.024780    4.414725
     31          1           0        6.635441   -1.654863   -2.876953
     32          7           0       -2.207989   -1.694418   -0.288570
     33          6           0       -3.192358   -1.898866    0.674463
     34          6           0       -2.532944   -2.427616   -1.425683
     35          6           0       -3.280662   -1.377271    1.957287
     36          6           0       -4.155863   -2.775914    0.152837
     37          6           0       -1.856004   -2.509500   -2.634237
     38          6           0       -3.735039   -3.112605   -1.190743
     39          6           0       -4.374825   -1.751315    2.718661
     40          1           0       -2.527648   -0.703948    2.347336
     41          6           0       -5.244907   -3.139510    0.938582
     42          6           0       -2.410330   -3.311828   -3.616808
     43          1           0       -0.934157   -1.967397   -2.804855
     44          6           0       -4.273386   -3.911621   -2.194640
     45          6           0       -5.347493   -2.622039    2.218133
     46          1           0       -4.476267   -1.360744    3.723577
     47          1           0       -5.997695   -3.816108    0.552980
     48          6           0       -3.604263   -4.007440   -3.402246
     49          1           0       -1.907626   -3.399484   -4.571977
     50          1           0       -5.201355   -4.446038   -2.031880
     51          1           0       -6.189502   -2.894102    2.841917
     52          1           0       -4.009725   -4.624600   -4.193983
     53          7           0       -0.353669    2.769885   -0.046086
     54          6           0        0.100123    3.643799   -1.033663
     55          6           0       -1.033955    3.505491    0.923661
     56          6           0        0.802746    3.362783   -2.196934
     57          6           0       -0.291423    4.947512   -0.693495
     58          6           0       -1.637382    3.063796    2.092573
     59          6           0       -1.014856    4.859192    0.556860
     60          6           0        1.122219    4.430380   -3.018375
     61          1           0        1.091571    2.352433   -2.457162
     62          6           0        0.039090    6.004105   -1.535954
     63          6           0       -2.241555    4.017813    2.893399
     64          1           0       -1.637405    2.017967    2.372357
     65          6           0       -1.626586    5.800159    1.378954
     66          6           0        0.747869    5.737546   -2.694095
     67          1           0        1.672762    4.245240   -3.932304
     68          1           0       -0.256847    7.015997   -1.287667
     69          6           0       -2.239648    5.371117    2.542941
     70          1           0       -2.724183    3.705945    3.811218
     71          1           0       -1.619898    6.849434    1.110417
     72          1           0        1.014300    6.548158   -3.360460
     73          1           0       -2.721499    6.089820    3.193623
     74         17           0        0.408073   -3.095651    0.080938
 ---------------------------------------------------------------------

 SCF Done:  E(RwB97XD) =  -2425.19465413     A.U. after   18 cycles

 Excitation energies and oscillator strengths:

 Excited State   1:      Singlet-A      3.4887 eV  355.38 nm  f=0.0667  <S**2>=0.000
     168 -> 171       -0.11992
     170 -> 171        0.67220
 This state for optimization and/or second-order correction.
 Total Energy, E(TD-HF/TD-KS) =  -2425.06644569
 Copying the excited state density for this state as the 1-particle RhoCI density.

 Excited State   2:      Singlet-A      3.6827 eV  336.67 nm  f=0.0393  <S**2>=0.000
     147 -> 171        0.10468
     168 -> 171       -0.12558
     169 -> 171        0.67042

 Excited State   3:      Singlet-A      3.8275 eV  323.93 nm  f=0.0025  <S**2>=0.000
     168 -> 171        0.65573
     169 -> 171        0.12290
     170 -> 171        0.11352

 Excited State   4:      Singlet-A      3.8651 eV  320.78 nm  f=0.0924  <S**2>=0.000
     168 -> 172        0.42766
     170 -> 172        0.51482

 Excited State   5:      Singlet-A      4.3054 eV  287.97 nm  f=0.0011  <S**2>=0.000
     166 -> 171        0.56428
     167 -> 171        0.36879

 Excited State   6:      Singlet-A      4.3088 eV  287.75 nm  f=0.0217  <S**2>=0.000
     166 -> 171        0.10931
     168 -> 172        0.50663
     170 -> 172       -0.43463

 Excited State   7:      Singlet-A      4.3157 eV  287.29 nm  f=0.0002  <S**2>=0.000
     165 -> 171        0.10193
     166 -> 171       -0.35749
     167 -> 171        0.58122

 Excited State   8:      Singlet-A      4.3772 eV  283.25 nm  f=0.0808  <S**2>=0.000
     161 -> 171        0.10497
     169 -> 172        0.63399
     170 -> 174       -0.10607

 Excited State   9:      Singlet-A      4.4479 eV  278.75 nm  f=0.0002  <S**2>=0.000
     165 -> 171        0.66104
     166 -> 171        0.13240
     168 -> 173        0.11104

 Excited State  10:      Singlet-A      4.4968 eV  275.72 nm  f=0.0728  <S**2>=0.000
     167 -> 178       -0.20658
     168 -> 174       -0.10381
     168 -> 175       -0.10647
     169 -> 172        0.13528
     169 -> 174       -0.33379
     169 -> 175       -0.32702
     170 -> 174        0.33927
     170 -> 175        0.19215

 Excited State  11:      Singlet-A      4.5077 eV  275.05 nm  f=0.0775  <S**2>=0.000
     166 -> 177       -0.18492
     168 -> 174       -0.22693
     168 -> 175        0.28269
     169 -> 173        0.23096
     169 -> 174        0.19193
     169 -> 175       -0.17506
     170 -> 173        0.32507
     170 -> 174        0.12676
     170 -> 175       -0.16350

 Excited State  12:      Singlet-A      4.5202 eV  274.29 nm  f=0.0334  <S**2>=0.000
     165 -> 171       -0.16711
     165 -> 176       -0.18792
     168 -> 173        0.43854
     169 -> 174       -0.18546
     170 -> 173        0.19650
     170 -> 174       -0.13372
     170 -> 175        0.29219

 Excited State  13:      Singlet-A      4.6075 eV  269.09 nm  f=0.0016  <S**2>=0.000
     165 -> 172        0.66837
     166 -> 172        0.14755

 Excited State  14:      Singlet-A      4.8065 eV  257.95 nm  f=0.1420  <S**2>=0.000
     157 -> 172        0.11376
     160 -> 172        0.14049
     161 -> 171        0.39108
     165 -> 173       -0.15826
     165 -> 174        0.10128
     165 -> 175       -0.16147
     166 -> 173       -0.23191
     166 -> 174       -0.13867
     166 -> 175        0.20263
     167 -> 174       -0.21291
     167 -> 175       -0.10224

 Excited State  15:      Singlet-A      4.8149 eV  257.50 nm  f=0.0327  <S**2>=0.000
     166 -> 173       -0.20238
     166 -> 174       -0.27263
     166 -> 175        0.18803
     167 -> 174        0.35781
     167 -> 175        0.35822

 Excited State  16:      Singlet-A      4.8294 eV  256.73 nm  f=0.0362  <S**2>=0.000
     160 -> 172        0.12458
     161 -> 171        0.37639
     165 -> 173        0.36225
     165 -> 174       -0.16371
     165 -> 175        0.22794
     166 -> 173        0.16645
     169 -> 172       -0.11108

 Excited State  17:      Singlet-A      4.8449 eV  255.91 nm  f=0.7588  <S**2>=0.000
     161 -> 171       -0.20173
     165 -> 173        0.34656
     165 -> 174       -0.10713
     165 -> 175        0.10843
     166 -> 173       -0.12407
     166 -> 174       -0.17385
     166 -> 175        0.26888
     167 -> 174       -0.26017
     167 -> 175       -0.16473

 Excited State  18:      Singlet-A      4.9994 eV  248.00 nm  f=0.0007  <S**2>=0.000
     166 -> 172        0.27088
     167 -> 172        0.62850

 Excited State  19:      Singlet-A      5.0070 eV  247.62 nm  f=0.0212  <S**2>=0.000
     165 -> 172       -0.14899
     166 -> 172        0.60771
     167 -> 172       -0.27357

 Excited State  20:      Singlet-A      5.3588 eV  231.36 nm  f=0.0774  <S**2>=0.000
     157 -> 171        0.33391
     160 -> 171        0.46158
     161 -> 172       -0.35241

 Excited State  21:      Singlet-A      5.4514 eV  227.44 nm  f=0.0004  <S**2>=0.000
     162 -> 171        0.10951
     164 -> 171        0.60741

 Excited State  22:      Singlet-A      5.4667 eV  226.80 nm  f=0.0130  <S**2>=0.000
     162 -> 171       -0.13393
     162 -> 174        0.21714
     164 -> 175       -0.20171
     166 -> 181        0.11171
     167 -> 180       -0.11152
     167 -> 181       -0.17525
     168 -> 177       -0.12791
     169 -> 178        0.30672
     170 -> 177        0.18302
     170 -> 178       -0.22487

 Excited State  23:      Singlet-A      5.4811 eV  226.20 nm  f=0.0423  <S**2>=0.000
     162 -> 175       -0.15463
     163 -> 173       -0.18224
     164 -> 171        0.21899
     164 -> 174        0.14064
     165 -> 182        0.13198
     166 -> 180       -0.13391
     168 -> 176        0.16502
     168 -> 177       -0.19109
     168 -> 179       -0.10869
     169 -> 177        0.18948
     170 -> 176        0.23711
     170 -> 177        0.14179

 Excited State  24:      Singlet-A      5.5033 eV  225.29 nm  f=0.0169  <S**2>=0.000
     162 -> 171        0.63420
     163 -> 171       -0.15853
     164 -> 171       -0.10681

 Excited State  25:      Singlet-A      5.5095 eV  225.04 nm  f=0.3154  <S**2>=0.000
     162 -> 173       -0.11486
     163 -> 173       -0.21687
     163 -> 175       -0.14711
     164 -> 171       -0.15882
     164 -> 174       -0.13364
     165 -> 180       -0.16992
     165 -> 182        0.16879
     167 -> 181       -0.10179
     168 -> 176        0.27898
     169 -> 177       -0.14067
     170 -> 176        0.14750
     170 -> 177       -0.13401
     170 -> 178       -0.12607

 Excited State  26:      Singlet-A      5.5998 eV  221.41 nm  f=0.0387  <S**2>=0.000
     162 -> 171        0.16689
     163 -> 171        0.66539

 Excited State  27:      Singlet-A      5.7549 eV  215.44 nm  f=0.2083  <S**2>=0.000
     162 -> 172        0.13605
     163 -> 172        0.54490
     163 -> 173        0.12385
     165 -> 173       -0.12400
     168 -> 176        0.17737
     170 -> 176        0.15965

 Excited State  28:      Singlet-A      5.7685 eV  214.93 nm  f=1.2258  <S**2>=0.000
     157 -> 171        0.15817
     160 -> 171        0.27365
     161 -> 172        0.49862
     164 -> 172       -0.11102
     165 -> 176       -0.20690

 Excited State  29:      Singlet-A      5.8167 eV  213.15 nm  f=1.4116  <S**2>=0.000
     157 -> 172        0.30851
     160 -> 172        0.41128
     161 -> 171       -0.23569
     163 -> 172       -0.10777
     166 -> 177       -0.22895
     167 -> 178       -0.17006

 Excited State  30:      Singlet-A      5.8344 eV  212.51 nm  f=0.1012  <S**2>=0.000
     165 -> 176       -0.11123
     166 -> 177        0.15005
     167 -> 178        0.41181
     169 -> 175       -0.10017
     169 -> 180        0.13119
     169 -> 181        0.13309
     169 -> 182        0.12155
     170 -> 174        0.14665
     170 -> 181       -0.19493

 Excited State  31:      Singlet-A      5.8409 eV  212.27 nm  f=0.1594  <S**2>=0.000
     160 -> 172        0.11447
     162 -> 174       -0.11982
     164 -> 175        0.11026
     165 -> 176        0.20301
     166 -> 176        0.12976
     166 -> 177        0.27696
     168 -> 181        0.10618
     168 -> 182       -0.12986
     169 -> 178        0.12738
     169 -> 180        0.11974
     170 -> 173        0.12614
     170 -> 177        0.10557
     170 -> 178       -0.10958
     170 -> 180        0.14857

 Excited State  32:      Singlet-A      5.8536 eV  211.81 nm  f=0.0634  <S**2>=0.000
     162 -> 174       -0.16525
     164 -> 175        0.15700
     166 -> 177       -0.22160
     167 -> 178        0.17739
     168 -> 177       -0.13126
     169 -> 178        0.22436
     169 -> 181        0.14957
     170 -> 177        0.14897
     170 -> 178       -0.14296
     170 -> 180       -0.13810

 Excited State  33:      Singlet-A      5.8699 eV  211.22 nm  f=0.6414  <S**2>=0.000
     162 -> 175       -0.18206
     163 -> 172        0.26829
     163 -> 173       -0.14095
     164 -> 174        0.17818
     167 -> 174        0.10711
     168 -> 177        0.17244
     168 -> 178        0.10334
     169 -> 177       -0.18368
     169 -> 178        0.16785
     170 -> 176       -0.16652
     170 -> 177       -0.12435
     170 -> 178       -0.15373

 Excited State  34:      Singlet-A      5.8714 eV  211.17 nm  f=0.0087  <S**2>=0.000
     165 -> 176        0.38018
     165 -> 179       -0.12750
     166 -> 177       -0.19516
     167 -> 178        0.16528
     168 -> 173        0.13107
     168 -> 180        0.18757
     168 -> 182       -0.14609
     170 -> 175        0.12746
     170 -> 182       -0.16997

 Excited State  35:      Singlet-A      5.9192 eV  209.46 nm  f=2.0656  <S**2>=0.000
     160 -> 172       -0.12558
     162 -> 172       -0.10820
     163 -> 172       -0.18673
     163 -> 173        0.19671
     163 -> 175        0.14217
     164 -> 174        0.12500
     165 -> 173       -0.13624
     168 -> 176        0.29225
     169 -> 177       -0.14563
     169 -> 178        0.10197
     170 -> 176        0.16403
     170 -> 177       -0.14853
     170 -> 178       -0.16510

 Excited State  36:      Singlet-A      6.1385 eV  201.98 nm  f=0.0797  <S**2>=0.000
     161 -> 172        0.11502
     164 -> 172        0.64556

 Excited State  37:      Singlet-A      6.1813 eV  200.58 nm  f=0.0054  <S**2>=0.000
     162 -> 172        0.65076
     163 -> 172       -0.13199

 Excited State  38:      Singlet-A      6.1942 eV  200.16 nm  f=0.0846  <S**2>=0.000
     166 -> 177       -0.11594
     167 -> 178       -0.13343
     170 -> 176        0.15347
     170 -> 179        0.53300

 Excited State  39:      Singlet-A      6.2596 eV  198.07 nm  f=0.0157  <S**2>=0.000
     156 -> 171       -0.12291
     158 -> 171       -0.12200
     159 -> 171        0.44311
     160 -> 171        0.10644
     160 -> 172       -0.10359
     167 -> 178       -0.12534
     169 -> 180        0.11578
     170 -> 174       -0.10752
     170 -> 179       -0.17911
     170 -> 181       -0.19947

 Excited State  40:      Singlet-A      6.2714 eV  197.70 nm  f=0.0527  <S**2>=0.000
     160 -> 171       -0.15113
     161 -> 172       -0.15832
     165 -> 176       -0.14540
     166 -> 177       -0.18925
     167 -> 178        0.11520
     168 -> 182       -0.21117
     169 -> 179        0.14246
     169 -> 181       -0.17055
     170 -> 173       -0.13569
     170 -> 180        0.26231

 Excited State  41:      Singlet-A      6.2805 eV  197.41 nm  f=0.0418  <S**2>=0.000
     156 -> 171       -0.13068
     158 -> 171       -0.21555
     159 -> 171        0.36278
     161 -> 171       -0.15747
     162 -> 172       -0.11722
     166 -> 177        0.11895
     167 -> 178        0.17639
     168 -> 179        0.12895
     169 -> 180       -0.11974
     170 -> 174        0.11008
     170 -> 179        0.11638
     170 -> 181        0.19280

 Excited State  42:      Singlet-A      6.3076 eV  196.56 nm  f=0.0070  <S**2>=0.000
     158 -> 173        0.11676
     163 -> 176       -0.12481
     165 -> 176       -0.23285
     166 -> 177        0.14129
     167 -> 178       -0.12955
     168 -> 180        0.25383
     168 -> 182       -0.14717
     169 -> 179       -0.17415
     169 -> 181        0.14410
     170 -> 175       -0.10755
     170 -> 182       -0.24683

 Excited State  43:      Singlet-A      6.3472 eV  195.34 nm  f=0.0034  <S**2>=0.000
     157 -> 171        0.53151
     159 -> 171        0.11570
     160 -> 171       -0.36231

 Excited State  44:      Singlet-A      6.3997 eV  193.73 nm  f=0.0074  <S**2>=0.000
     158 -> 171        0.10137
     168 -> 174        0.13793
     168 -> 176        0.13540
     168 -> 179        0.50640
     168 -> 181        0.12493
     169 -> 185        0.11102
     170 -> 184       -0.15712

 Excited State  45:      Singlet-A      6.4156 eV  193.25 nm  f=0.0085  <S**2>=0.000
     158 -> 171        0.10438
     168 -> 173        0.11642
     169 -> 176        0.17472
     169 -> 179        0.46205
     169 -> 181        0.20344
     170 -> 173       -0.12514
     170 -> 185       -0.12738

 Excited State  46:      Singlet-A      6.4356 eV  192.65 nm  f=0.0024  <S**2>=0.000
     158 -> 171        0.56334
     159 -> 171        0.28268

 Excited State  47:      Singlet-A      6.4943 eV  190.91 nm  f=0.0186  <S**2>=0.000
     162 -> 174        0.23034
     164 -> 175       -0.21535
     166 -> 180        0.14094
     166 -> 181       -0.21736
     167 -> 180        0.20396
     167 -> 181        0.29073
     167 -> 182        0.17251
     167 -> 183       -0.13281
     169 -> 174        0.10346
     170 -> 174        0.13599
     170 -> 175        0.11382

 Excited State  48:      Singlet-A      6.4996 eV  190.76 nm  f=0.0136  <S**2>=0.000
     162 -> 175        0.16770
     163 -> 173        0.21424
     164 -> 174       -0.16345
     165 -> 180       -0.17587
     165 -> 182        0.28004
     166 -> 180       -0.23619
     166 -> 181        0.13168
     166 -> 183        0.10157
     167 -> 181        0.19470
     168 -> 174       -0.13088
     170 -> 174       -0.18101

 Excited State  49:      Singlet-A      6.5045 eV  190.61 nm  f=0.0183  <S**2>=0.000
     166 -> 180       -0.16776
     166 -> 181        0.14985
     168 -> 173        0.13123
     168 -> 174        0.20371
     168 -> 179       -0.12556
     169 -> 173       -0.11954
     169 -> 174        0.16247
     169 -> 175        0.20517
     170 -> 173        0.11202
     170 -> 174        0.40877

 Excited State  50:      Singlet-A      6.5167 eV  190.26 nm  f=0.0027  <S**2>=0.000
     168 -> 173       -0.12252
     168 -> 175        0.27189
     169 -> 173        0.11784
     169 -> 174        0.26617
     170 -> 173       -0.29175
     170 -> 175        0.41240

 The electronic state is 1-A.
 Alpha  occ. eigenvalues -- -101.72799 -14.50244 -14.49985 -14.49877 -14.46107
 Alpha  occ. eigenvalues --  -14.46087 -10.39516 -10.39475 -10.39352 -10.39294
 Alpha  occ. eigenvalues --  -10.37318 -10.37290 -10.35505 -10.35493 -10.33714
 Alpha  occ. eigenvalues --  -10.33692 -10.33638 -10.33601 -10.33592 -10.33567
 Alpha  occ. eigenvalues --  -10.29816 -10.29777 -10.29772 -10.29741 -10.29733
 Alpha  occ. eigenvalues --  -10.29702 -10.29336 -10.29332 -10.29293 -10.29273
 Alpha  occ. eigenvalues --  -10.29261 -10.29249 -10.29235 -10.29229 -10.29223
 Alpha  occ. eigenvalues --  -10.29213 -10.29208 -10.29199 -10.29058 -10.29050
 Alpha  occ. eigenvalues --  -10.29045 -10.29032 -10.29025 -10.29017 -10.28408
 Alpha  occ. eigenvalues --  -10.28404 -10.28375 -10.28372 -10.28352 -10.28347
 Alpha  occ. eigenvalues --   -9.61327  -7.36017  -7.35108  -7.35040  -1.13139
 Alpha  occ. eigenvalues --   -1.12179  -1.12108  -1.04794  -1.04069  -1.03277
 Alpha  occ. eigenvalues --   -0.99810  -0.97992  -0.96876  -0.96206  -0.96149
 Alpha  occ. eigenvalues --   -0.96118  -0.95416  -0.92859  -0.90936  -0.88975
 Alpha  occ. eigenvalues --   -0.88817  -0.87431  -0.86228  -0.86163  -0.86126
 Alpha  occ. eigenvalues --   -0.84818  -0.83983  -0.83504  -0.82648  -0.82615
 Alpha  occ. eigenvalues --   -0.82591  -0.79043  -0.78484  -0.75734  -0.73767
 Alpha  occ. eigenvalues --   -0.73601  -0.71520  -0.71321  -0.71243  -0.71135
 Alpha  occ. eigenvalues --   -0.70358  -0.68783  -0.67883  -0.67840  -0.67781
 Alpha  occ. eigenvalues --   -0.67578  -0.66569  -0.64816  -0.63513  -0.62485
 Alpha  occ. eigenvalues --   -0.61977  -0.61569  -0.61541  -0.60610  -0.60138
 Alpha  occ. eigenvalues --   -0.59532  -0.58790  -0.56093  -0.56050  -0.55771
 Alpha  occ. eigenvalues --   -0.55450  -0.55366  -0.54833  -0.54795  -0.54429
 Alpha  occ. eigenvalues --   -0.53517  -0.53145  -0.53004  -0.52970  -0.52565
 Alpha  occ. eigenvalues --   -0.52466  -0.52372  -0.52116  -0.51936  -0.51879
 Alpha  occ. eigenvalues --   -0.51849  -0.51283  -0.50810  -0.50637  -0.50620
 Alpha  occ. eigenvalues --   -0.49213  -0.48899  -0.48729  -0.48610  -0.46422
 Alpha  occ. eigenvalues --   -0.46004  -0.45906  -0.45410  -0.45374  -0.45308
 Alpha  occ. eigenvalues --   -0.45281  -0.45228  -0.45151  -0.45135  -0.45069
 Alpha  occ. eigenvalues --   -0.43970  -0.43222  -0.43139  -0.42900  -0.42688
 Alpha  occ. eigenvalues --   -0.42663  -0.42541  -0.42519  -0.42307  -0.42265
 Alpha  occ. eigenvalues --   -0.41883  -0.37717  -0.37553  -0.37419  -0.37153
 Alpha  occ. eigenvalues --   -0.36023  -0.34453  -0.34440  -0.34320  -0.29956
 Alpha  occ. eigenvalues --   -0.29916  -0.29889  -0.29393  -0.29325  -0.28724
 Alpha virt. eigenvalues --   -0.03499  -0.01638   0.01876   0.01887   0.02036
 Alpha virt. eigenvalues --    0.05537   0.05678   0.05707   0.06380   0.07194
 Alpha virt. eigenvalues --    0.07507   0.07811   0.08638   0.09039   0.09320

 Mulliken charges:
               1
     1  C   -0.164028
     2  C    0.068226
     3  C   -0.096951
     4  C    0.341249
     5  C   -0.125202
     6  C    0.387598
     7  C   -0.234582
     8  C   -0.243215
     9  N   -0.027990
    10  N   -0.029464
    11  N    0.159538
    12  C    0.075740
    13  C    0.069234
    14  C   -0.286626
    15  C    0.002736
    16  C   -0.279320
    17  C   -0.000300
    18  C   -0.128767
    19  H    0.171521
    20  C   -0.215767
    21  C   -0.133950
    22  H    0.185255
    23  C   -0.217880
    24  C   -0.158548
    25  H    0.164253
    26  H    0.160384
    27  C   -0.158322
    28  H    0.163074
    29  H    0.160529
    30  H    0.160734
    31  H    0.160464
    32  N    0.143724
    33  C    0.068164
    34  C    0.078072
    35  C   -0.280284
    36  C   -0.002207
    37  C   -0.284425
    38  C   -0.007194
    39  C   -0.136495
    40  H    0.191480
    41  C   -0.214803
    42  C   -0.128784
    43  H    0.178011
    44  C   -0.213236
    45  C   -0.159584
    46  H    0.163083
    47  H    0.160526
    48  C   -0.160653
    49  H    0.164310
    50  H    0.160536
    51  H    0.160382
    52  H    0.160732
    53  N    0.126953
    54  C    0.079753
    55  C    0.079280
    56  C   -0.297199
    57  C   -0.013535
    58  C   -0.294867
    59  C   -0.013469
    60  C   -0.122111
    61  H    0.187093
    62  C   -0.207468
    63  C   -0.126478
    64  H    0.190037
    65  C   -0.206492
    66  C   -0.165500
    67  H    0.163871
    68  H    0.160712
    69  C   -0.165021
    70  H    0.163450
    71  H    0.160585
    72  H    0.160407
    73  H    0.160304
    74  Cl   0.008717
 Sum of Mulliken charges =  -0.00000

 Dipole moment (field-independent basis, Debye):
    X=              0.3086    Y=             -3.5171    Z=              0.0694  Tot=              3.5313
 Quadrupole moment (field-independent basis, Debye-Ang):
   XX=           -304.3316   YY=           -288.3224   ZZ=           -259.5068
   XY=             -2.8860   XZ=            -19.1208   YZ=             -0.5669

 Normal termination of Gaussian 09 at Sun Jul  3 03:23:34 2022.
