 Gaussian 09, Revision E.01,
 Gaussian 09:  ES64L-G09RevE.01 30-Nov-2015

 ----------------------------------------------------------------------
 #p hf/def2TZVP td=(NStates=50) int=ultrafine scrf=(SMD,solvent=Acetoni
 trile)
 ----------------------------------------------------------------------

 -----
 Title
 -----
 Symbolic Z-matrix:
 Charge =  0 Multiplicity = 1

                         Standard orientation:
 ---------------------------------------------------------------------
 Center     Atomic      Atomic             Coordinates (Angstroms)
 Number     Number       Type             X           Y           Z
 ---------------------------------------------------------------------
      1          6           0       -0.445704    1.301470   -0.025897
      2          6           0       -1.336321    0.238548   -0.037925
      3          6           0       -0.877826   -1.070309   -0.010380
      4          6           0        0.491472   -1.302493    0.023452
      5          6           0        1.404230   -0.261038    0.026301
      6          6           0        0.917692    1.035246    0.004910
      7          6           0        0.972089   -2.661543    0.058687
      8          6           0        1.848655    2.135892    0.017645
      9          7           0        1.351010   -3.721764    0.087855
     10          7           0        2.578843    2.993336    0.028431
     11          7           0       -0.893888    2.630693   -0.040816
     12          6           0       -1.124227    3.399991   -1.175997
     13          6           0       -1.232784    3.380835    1.079624
     14          6           0       -0.935895    3.071607   -2.508235
     15          6           0       -1.603304    4.649205   -0.784706
     16          6           0       -1.172011    3.029132    2.417813
     17          6           0       -1.673071    4.636846    0.665973
     18          6           0       -1.241513    4.033023   -3.448528
     19          1           0       -0.567444    2.108084   -2.804271
     20          6           0       -1.903584    5.602632   -1.747606
     21          6           0       -1.566464    3.974314    3.341293
     22          1           0       -0.832042    2.060570    2.730953
     23          6           0       -2.064263    5.573685    1.612283
     24          6           0       -1.720631    5.288545   -3.076825
     25          1           0       -1.106046    3.807609   -4.489924
     26          1           0       -2.272625    6.569712   -1.460923
     27          6           0       -2.008956    5.236429    2.947303
     28          1           0       -1.530314    3.730738    4.386776
     29          1           0       -2.404729    6.546023    1.308687
     30          1           0       -1.947946    6.014133   -3.834931
     31          1           0       -2.308054    5.949058    3.692675
     32          7           0       -1.767162   -2.154956   -0.014234
     33          6           0       -2.249239   -2.804628   -1.145166
     34          6           0       -2.375699   -2.706783    1.107514
     35          6           0       -1.936730   -2.588804   -2.476926
     36          6           0       -3.158669   -3.784120   -0.749735
     37          6           0       -2.211298   -2.376510    2.442436
     38          6           0       -3.240343   -3.720848    0.699070
     39          6           0       -2.560971   -3.386320   -3.412916
     40          1           0       -1.237000   -1.831689   -2.774857
     41          6           0       -3.774179   -4.577092   -1.708165
     42          6           0       -2.940779   -3.092710    3.368044
     43          1           0       -1.543935   -1.594819    2.751358
     44          6           0       -3.963787   -4.430209    1.647528
     45          6           0       -3.471244   -4.373315   -3.037031
     46          1           0       -2.338927   -3.242534   -4.453929
     47          1           0       -4.476294   -5.336624   -1.418866
     48          6           0       -3.809882   -4.111324    2.979340
     49          1           0       -2.834886   -2.859363    4.411117
     50          1           0       -4.633285   -5.214835    1.348009
     51          1           0       -3.938816   -4.977334   -3.791643
     52          1           0       -4.362300   -4.649694    3.726255
     53          7           0        2.785213   -0.510887    0.052318
     54          6           0        3.566844   -0.636825    1.196303
     55          6           0        3.601119   -0.675370   -1.062397
     56          6           0        3.190074   -0.548677    2.525977
     57          6           0        4.885259   -0.882077    0.817023
     58          6           0        3.265357   -0.633125   -2.405203
     59          6           0        4.907431   -0.906403   -0.635003
     60          6           0        4.174995   -0.714365    3.476892
     61          1           0        2.173168   -0.360049    2.811779
     62          6           0        5.860861   -1.045643    1.790492
     63          6           0        4.279123   -0.828806   -3.319436
     64          1           0        2.257711   -0.455395   -2.728453
     65          6           0        5.912549   -1.100843   -1.572061
     66          6           0        5.499496   -0.960719    3.117572
     67          1           0        3.913731   -0.651936    4.516836
     68          1           0        6.881157   -1.235082    1.513653
     69          6           0        5.592089   -1.060782   -2.911744
     70          1           0        4.049768   -0.801397   -4.368402
     71          1           0        6.923934   -1.279526   -1.257866
     72          1           0        6.241458   -1.084920    3.883701
     73          1           0        6.357334   -1.208830   -3.650212
     74         17           0       -3.027146    0.545226   -0.088938
 ---------------------------------------------------------------------

 SCF Done:  E(RHF) =  -2412.69660831     A.U. after   19 cycles

 Excitation energies and oscillator strengths:

 Excited State   1:      Singlet-A      4.9646 eV  249.74 nm  f=0.0053  <S**2>=0.000
     166 -> 179        0.10891
     167 -> 174       -0.38937
     167 -> 175        0.26801
     168 -> 174       -0.14246
     168 -> 175       -0.21021
     169 -> 173        0.26517
     170 -> 178       -0.11367
 This state for optimization and/or second-order correction.
 Total Energy, E(TD-HF/TD-KS) =  -2412.51416260
 Copying the excited state density for this state as the 1-particle RhoCI density.

 Excited State   2:      Singlet-A      4.9657 eV  249.68 nm  f=0.0005  <S**2>=0.000
     165 -> 179       -0.10812
     168 -> 173        0.42635
     168 -> 175       -0.12930
     169 -> 173       -0.11992
     169 -> 174       -0.24611
     169 -> 175       -0.33730
     170 -> 177       -0.11965

 Excited State   3:      Singlet-A      4.9822 eV  248.85 nm  f=0.7183  <S**2>=0.000
     165 -> 177       -0.10847
     166 -> 178        0.12057
     167 -> 174       -0.32985
     167 -> 175        0.22667
     168 -> 173       -0.13327
     168 -> 174        0.16339
     168 -> 175        0.25524
     169 -> 173       -0.30333
     170 -> 179       -0.13137

 Excited State   4:      Singlet-A      5.1660 eV  240.00 nm  f=0.1242  <S**2>=0.000
     162 -> 188       -0.10261
     165 -> 174        0.21578
     165 -> 175        0.27850
     166 -> 173        0.21924
     166 -> 174        0.10429
     166 -> 175        0.19913
     168 -> 177        0.17914
     169 -> 178        0.12143
     169 -> 179       -0.16019
     170 -> 173        0.35617

 Excited State   5:      Singlet-A      5.1681 eV  239.90 nm  f=0.1223  <S**2>=0.000
     165 -> 173        0.25909
     165 -> 175       -0.19456
     166 -> 173        0.10802
     166 -> 174       -0.20091
     166 -> 175        0.27174
     167 -> 178       -0.16857
     167 -> 179       -0.12407
     168 -> 179        0.10889
     169 -> 177       -0.11228
     170 -> 174        0.34057

 Excited State   6:      Singlet-A      5.1797 eV  239.37 nm  f=0.0015  <S**2>=0.000
     165 -> 173        0.29541
     165 -> 174       -0.14439
     166 -> 173        0.10471
     166 -> 174        0.33772
     167 -> 178        0.15836
     167 -> 179        0.11543
     168 -> 179        0.12160
     169 -> 177       -0.14157
     170 -> 175        0.34754

 Excited State   7:      Singlet-A      5.2252 eV  237.28 nm  f=0.0151  <S**2>=0.000
     156 -> 171        0.13226
     160 -> 171        0.11919
     165 -> 171       -0.11343
     166 -> 171        0.20354
     170 -> 171        0.59305

 Excited State   8:      Singlet-A      5.4016 eV  229.53 nm  f=0.0315  <S**2>=0.000
     159 -> 171        0.15889
     160 -> 171       -0.29304
     161 -> 171        0.19635
     161 -> 172       -0.27893
     165 -> 171        0.37078
     166 -> 171        0.22378
     170 -> 171        0.11222

 Excited State   9:      Singlet-A      5.4147 eV  228.98 nm  f=0.0452  <S**2>=0.000
     159 -> 171       -0.16603
     160 -> 171        0.31697
     160 -> 172       -0.11048
     161 -> 171        0.26949
     161 -> 172        0.30185
     165 -> 171        0.32506
     166 -> 171        0.13766

 Excited State  10:      Singlet-A      5.4604 eV  227.06 nm  f=0.0781  <S**2>=0.000
     159 -> 172        0.11716
     160 -> 172       -0.23456
     161 -> 171        0.51034
     165 -> 171       -0.30730
     166 -> 171       -0.13613
     170 -> 172       -0.10334

 Excited State  11:      Singlet-A      5.5753 eV  222.38 nm  f=0.0013  <S**2>=0.000
     155 -> 172       -0.14313
     165 -> 172        0.21041
     166 -> 172       -0.42307
     170 -> 172        0.46119

 Excited State  12:      Singlet-A      5.7747 eV  214.70 nm  f=0.0075  <S**2>=0.000
     162 -> 174       -0.11807
     163 -> 174        0.23544
     163 -> 175       -0.17675
     165 -> 171       -0.18277
     166 -> 171        0.36858
     166 -> 178       -0.14114
     166 -> 179       -0.11099
     167 -> 182       -0.21870
     167 -> 183       -0.13780
     170 -> 171       -0.15301
     170 -> 178        0.13709

 Excited State  13:      Singlet-A      5.8127 eV  213.30 nm  f=0.0003  <S**2>=0.000
     162 -> 173        0.25786
     163 -> 173        0.10475
     164 -> 174       -0.15718
     164 -> 175       -0.22510
     165 -> 178       -0.12035
     165 -> 179        0.16125
     166 -> 177        0.11031
     168 -> 181        0.22340
     169 -> 182       -0.12524
     169 -> 183        0.18810
     170 -> 177        0.20860
     170 -> 188       -0.10144

 Excited State  14:      Singlet-A      5.8309 eV  212.63 nm  f=0.2400  <S**2>=0.000
     162 -> 174       -0.13934
     162 -> 175       -0.20826
     164 -> 173        0.27157
     165 -> 177       -0.20232
     165 -> 188        0.10683
     166 -> 171       -0.10812
     168 -> 182       -0.11980
     168 -> 183        0.19076
     169 -> 181        0.22293
     170 -> 178        0.11836
     170 -> 179       -0.14159

 Excited State  15:      Singlet-A      5.9047 eV  209.98 nm  f=0.2455  <S**2>=0.000
     163 -> 174       -0.18089
     163 -> 175        0.10964
     165 -> 171       -0.20758
     166 -> 171        0.41856
     166 -> 178        0.14624
     167 -> 174        0.12216
     167 -> 182        0.20774
     167 -> 183        0.13166
     170 -> 171       -0.19483

 Excited State  16:      Singlet-A      6.0694 eV  204.28 nm  f=0.0120  <S**2>=0.000
     168 -> 171        0.12310
     169 -> 171        0.65120

 Excited State  17:      Singlet-A      6.0761 eV  204.05 nm  f=0.0132  <S**2>=0.000
     168 -> 171        0.65375
     169 -> 171       -0.12743

 Excited State  18:      Singlet-A      6.1538 eV  201.48 nm  f=0.0790  <S**2>=0.000
     159 -> 174        0.11441
     163 -> 178       -0.16881
     163 -> 179       -0.14175
     166 -> 182        0.19102
     166 -> 183        0.15599
     167 -> 171        0.43193
     167 -> 187        0.15934
     167 -> 191        0.12206
     170 -> 182       -0.19106

 Excited State  19:      Singlet-A      6.2136 eV  199.54 nm  f=0.0953  <S**2>=0.000
     160 -> 172       -0.13422
     162 -> 177        0.17004
     164 -> 178        0.10791
     164 -> 179       -0.14956
     165 -> 172        0.11193
     165 -> 182        0.12532
     165 -> 183       -0.19547
     166 -> 172       -0.19735
     166 -> 181        0.12130
     168 -> 188        0.11704
     169 -> 171       -0.15079
     170 -> 172       -0.22469
     170 -> 181        0.22243

 Excited State  20:      Singlet-A      6.2567 eV  198.16 nm  f=0.0012  <S**2>=0.000
     165 -> 172       -0.17426
     166 -> 172        0.35425
     170 -> 172        0.39420
     170 -> 181        0.12002

 Excited State  21:      Singlet-A      6.2614 eV  198.01 nm  f=0.0083  <S**2>=0.000
     157 -> 173       -0.14170
     158 -> 173       -0.11318
     162 -> 178       -0.10796
     162 -> 179        0.15437
     164 -> 177       -0.20320
     165 -> 181        0.24976
     166 -> 181        0.10726
     166 -> 183       -0.11198
     167 -> 171        0.19266
     168 -> 171        0.14569
     168 -> 187       -0.11490
     168 -> 191        0.12068
     169 -> 188       -0.14317
     170 -> 182        0.13587
     170 -> 183       -0.19479

 Excited State  22:      Singlet-A      6.3474 eV  195.33 nm  f=0.0086  <S**2>=0.000
     163 -> 178        0.16512
     166 -> 182       -0.20777
     167 -> 171        0.50973
     170 -> 182        0.12463
     170 -> 183        0.12898

 Excited State  23:      Singlet-A      6.4015 eV  193.68 nm  f=0.3518  <S**2>=0.000
     154 -> 172        0.11414
     165 -> 172        0.57485
     166 -> 172        0.28844

 Excited State  24:      Singlet-A      6.4354 eV  192.66 nm  f=0.0219  <S**2>=0.000
     163 -> 172       -0.10926
     167 -> 172        0.68434

 Excited State  25:      Singlet-A      6.5501 eV  189.29 nm  f=2.2354  <S**2>=0.000
     159 -> 172       -0.22533
     160 -> 172        0.43242
     161 -> 171        0.23470
     168 -> 177       -0.20767
     169 -> 178       -0.12512
     169 -> 179        0.15725

 Excited State  26:      Singlet-A      6.5820 eV  188.37 nm  f=2.6184  <S**2>=0.000
     159 -> 171        0.14242
     160 -> 171       -0.27771
     161 -> 172        0.40354
     167 -> 178       -0.25489
     167 -> 179       -0.17583
     168 -> 179        0.10563
     169 -> 177       -0.13589

 Excited State  27:      Singlet-A      6.6736 eV  185.78 nm  f=0.0610  <S**2>=0.000
     162 -> 174       -0.10898
     162 -> 182        0.12113
     163 -> 174        0.14821
     163 -> 175       -0.14005
     163 -> 182       -0.16566
     163 -> 183       -0.14050
     165 -> 177        0.12337
     165 -> 178       -0.11560
     165 -> 179       -0.10567
     166 -> 178        0.17880
     166 -> 179        0.24812
     167 -> 174        0.15857
     167 -> 175       -0.10842
     167 -> 182       -0.10097
     170 -> 178       -0.26398
     170 -> 187       -0.13435

 Excited State  28:      Singlet-A      6.6762 eV  185.71 nm  f=0.0219  <S**2>=0.000
     162 -> 173        0.16023
     162 -> 181       -0.16724
     164 -> 175       -0.14393
     164 -> 182        0.10250
     164 -> 183       -0.15310
     165 -> 177        0.10378
     165 -> 178        0.14930
     165 -> 179       -0.24151
     166 -> 177       -0.14069
     166 -> 178        0.10722
     166 -> 179       -0.10594
     168 -> 173       -0.14634
     169 -> 175        0.11419
     170 -> 177       -0.27436
     170 -> 188       -0.13535

 Excited State  29:      Singlet-A      6.7445 eV  183.83 nm  f=3.4445  <S**2>=0.000
     162 -> 175       -0.16273
     162 -> 183       -0.14130
     163 -> 174       -0.14859
     163 -> 182        0.13108
     164 -> 173        0.16981
     164 -> 181       -0.14705
     165 -> 172       -0.14264
     165 -> 177        0.24310
     165 -> 188        0.12781
     166 -> 178       -0.21740
     166 -> 187       -0.11954
     168 -> 175        0.10292
     169 -> 173       -0.12253
     170 -> 179        0.27069
     170 -> 191        0.11031

 Excited State  30:      Singlet-A      6.8136 eV  181.97 nm  f=0.1098  <S**2>=0.000
     160 -> 172        0.10463
     168 -> 172        0.51652
     168 -> 177        0.17145
     169 -> 172       -0.28055
     169 -> 178        0.11637
     169 -> 179       -0.15888
     170 -> 173       -0.10568

 Excited State  31:      Singlet-A      6.8203 eV  181.79 nm  f=0.0129  <S**2>=0.000
     168 -> 172        0.28990
     168 -> 179       -0.12889
     169 -> 172        0.55800
     169 -> 177        0.12786

 Excited State  32:      Singlet-A      6.9276 eV  178.97 nm  f=0.2022  <S**2>=0.000
     160 -> 172       -0.18043
     161 -> 171       -0.13762
     165 -> 175        0.10658
     168 -> 172        0.32588
     168 -> 177       -0.28997
     169 -> 172       -0.12231
     169 -> 178       -0.17736
     169 -> 179        0.23192
     170 -> 173        0.14564

 Excited State  33:      Singlet-A      6.9499 eV  178.40 nm  f=0.0124  <S**2>=0.000
     161 -> 172        0.15444
     165 -> 173       -0.10921
     166 -> 174       -0.18761
     167 -> 178        0.36647
     167 -> 179        0.26762
     168 -> 178       -0.10613
     168 -> 179        0.16122
     169 -> 172        0.11992
     169 -> 177       -0.19203
     170 -> 175       -0.16790

 Excited State  34:      Singlet-A      6.9662 eV  177.98 nm  f=0.0741  <S**2>=0.000
     160 -> 171       -0.18505
     161 -> 172        0.23598
     165 -> 173        0.13403
     166 -> 175        0.10376
     167 -> 178        0.16846
     167 -> 179        0.12560
     168 -> 177        0.11760
     168 -> 178        0.14789
     168 -> 179       -0.21580
     169 -> 172       -0.21726
     169 -> 177        0.26042
     170 -> 174        0.14365

 Excited State  35:      Singlet-A      7.0241 eV  176.51 nm  f=0.0016  <S**2>=0.000
     159 -> 178       -0.10675
     162 -> 174       -0.16907
     163 -> 174        0.20233
     163 -> 175       -0.19773
     164 -> 173        0.14364
     167 -> 182        0.37186
     167 -> 183        0.22758
     168 -> 182        0.10102
     168 -> 183       -0.14959
     169 -> 181       -0.18426
     170 -> 187       -0.10409

 Excited State  36:      Singlet-A      7.0303 eV  176.36 nm  f=0.0000  <S**2>=0.000
     162 -> 173       -0.23910
     164 -> 174        0.14701
     164 -> 175        0.20586
     168 -> 180        0.10649
     168 -> 181        0.34022
     168 -> 183        0.10448
     169 -> 181       -0.10541
     169 -> 182       -0.19385
     169 -> 183        0.28221
     170 -> 188        0.10275

 Excited State  37:      Singlet-A      7.0885 eV  174.91 nm  f=0.0001  <S**2>=0.000
     133 -> 185       -0.10467
     134 -> 202        0.10525
     141 -> 171       -0.36400
     141 -> 223        0.18213
     142 -> 172       -0.25195
     142 -> 195        0.13376
     142 -> 197       -0.20491
     153 -> 202       -0.16399
     160 -> 185       -0.11398

 Excited State  38:      Singlet-A      7.1040 eV  174.53 nm  f=0.0034  <S**2>=0.000
     133 -> 202        0.15612
     141 -> 172       -0.25664
     141 -> 195        0.14224
     141 -> 197       -0.21840
     142 -> 171       -0.35304
     142 -> 223        0.17817
     153 -> 185        0.10238
     160 -> 202        0.13455

 Excited State  39:      Singlet-A      7.1172 eV  174.20 nm  f=0.8634  <S**2>=0.000
     162 -> 175        0.18444
     163 -> 174        0.18154
     164 -> 173       -0.19785
     167 -> 182        0.24630
     167 -> 183        0.15030
     168 -> 181        0.11439
     168 -> 182       -0.15097
     168 -> 183        0.23702
     169 -> 181        0.27603

 Excited State  40:      Singlet-A      7.4854 eV  165.64 nm  f=0.1150  <S**2>=0.000
     153 -> 171       -0.10888
     157 -> 175        0.10313
     158 -> 175        0.10019
     159 -> 173        0.10891
     164 -> 171        0.45267
     165 -> 183       -0.12254
     168 -> 188       -0.16314
     169 -> 187       -0.10655
     169 -> 191        0.11924
     170 -> 181        0.14836

 Excited State  41:      Singlet-A      7.5326 eV  164.60 nm  f=0.0009  <S**2>=0.000
     162 -> 171        0.57304
     163 -> 171        0.31568

 Excited State  42:      Singlet-A      7.5493 eV  164.23 nm  f=0.0191  <S**2>=0.000
     153 -> 171        0.11196
     164 -> 171        0.49220
     165 -> 183        0.12683
     168 -> 188        0.15385
     169 -> 187        0.10288
     169 -> 191       -0.11252
     170 -> 181       -0.15873

 Excited State  43:      Singlet-A      7.5680 eV  163.83 nm  f=0.0778  <S**2>=0.000
     157 -> 175       -0.11758
     158 -> 173        0.10069
     158 -> 175        0.13130
     159 -> 174        0.18132
     161 -> 172       -0.13838
     162 -> 171       -0.20744
     165 -> 181        0.12585
     166 -> 182       -0.13702
     166 -> 183       -0.16883
     167 -> 187        0.20546
     167 -> 190        0.11115
     167 -> 191        0.14361
     169 -> 188        0.13095
     170 -> 182        0.22206

 Excited State  44:      Singlet-A      7.6325 eV  162.44 nm  f=0.0000  <S**2>=0.000
     133 -> 185       -0.15594
     133 -> 196       -0.10915
     133 -> 200       -0.12082
     134 -> 202        0.16004
     141 -> 171        0.22719
     142 -> 172        0.15439
     142 -> 197        0.11720
     153 -> 202       -0.26897
     159 -> 185        0.11378
     160 -> 185       -0.21728
     160 -> 196       -0.12297
     160 -> 200       -0.12340
     161 -> 202        0.14823

 Excited State  45:      Singlet-A      7.6666 eV  161.72 nm  f=0.0001  <S**2>=0.000
     157 -> 173       -0.14771
     157 -> 174        0.11509
     158 -> 173       -0.11643
     158 -> 174       -0.15247
     159 -> 175       -0.16374
     165 -> 181       -0.20896
     166 -> 182       -0.22674
     167 -> 187        0.17110
     167 -> 191        0.12002
     168 -> 187       -0.13330
     168 -> 191        0.14410
     169 -> 188       -0.19268
     170 -> 183        0.24629

 Excited State  46:      Singlet-A      7.6701 eV  161.65 nm  f=0.0003  <S**2>=0.000
     133 -> 202        0.23985
     134 -> 185       -0.11910
     141 -> 172        0.13299
     141 -> 197        0.10967
     142 -> 171        0.19549
     153 -> 185        0.13207
     153 -> 196        0.12384
     153 -> 200        0.17136
     159 -> 202       -0.12650
     160 -> 202        0.24143
     161 -> 184       -0.12494
     161 -> 185       -0.24833

 Excited State  47:      Singlet-A      7.6732 eV  161.58 nm  f=0.0052  <S**2>=0.000
     165 -> 176        0.12243
     165 -> 184        0.12113
     166 -> 176       -0.24490
     166 -> 184       -0.24156
     166 -> 196        0.11013
     166 -> 200       -0.13192
     170 -> 176        0.37692
     170 -> 184        0.22604

 Excited State  48:      Singlet-A      7.7038 eV  160.94 nm  f=0.0062  <S**2>=0.000
     162 -> 171       -0.29188
     163 -> 171        0.57291

 Excited State  49:      Singlet-A      7.7221 eV  160.56 nm  f=0.0000  <S**2>=0.000
     167 -> 176       -0.35981
     167 -> 184       -0.43169
     167 -> 196        0.16386
     167 -> 199        0.10734
     167 -> 200       -0.17366
     167 -> 210       -0.17956

 Excited State  50:      Singlet-A      7.7963 eV  159.03 nm  f=0.0003  <S**2>=0.000
     165 -> 176       -0.13496
     165 -> 186       -0.23309
     166 -> 176        0.29784
     166 -> 184        0.14309
     166 -> 186       -0.12407
     170 -> 176        0.30040
     170 -> 196        0.14698
     170 -> 200       -0.12022

 The electronic state is 1-A.
 Alpha  occ. eigenvalues -- -104.86379 -15.61818 -15.61693 -15.61690 -15.58714
 Alpha  occ. eigenvalues --  -15.58714 -11.34064 -11.34008 -11.33987 -11.33883
 Alpha  occ. eigenvalues --  -11.31576 -11.31565 -11.29638 -11.29633 -11.28089
 Alpha  occ. eigenvalues --  -11.28085 -11.28069 -11.28064 -11.28059 -11.28052
 Alpha  occ. eigenvalues --  -11.23605 -11.23604 -11.23598 -11.23539 -11.23537
 Alpha  occ. eigenvalues --  -11.23533 -11.23430 -11.23427 -11.23424 -11.23408
 Alpha  occ. eigenvalues --  -11.23404 -11.23404 -11.23296 -11.23292 -11.23290
 Alpha  occ. eigenvalues --  -11.23289 -11.23289 -11.23287 -11.23122 -11.23119
 Alpha  occ. eigenvalues --  -11.23118 -11.23115 -11.23114 -11.23113 -11.22262
 Alpha  occ. eigenvalues --  -11.22260 -11.22258 -11.22258 -11.22258 -11.22255
 Alpha  occ. eigenvalues --  -10.59168  -8.05876  -8.05700  -8.05696  -1.34889
 Alpha  occ. eigenvalues --   -1.33703  -1.33686  -1.26235  -1.26008  -1.23538
 Alpha  occ. eigenvalues --   -1.18396  -1.17132  -1.15516  -1.15514  -1.15506
 Alpha  occ. eigenvalues --   -1.15429  -1.14185  -1.10438  -1.08059  -1.06329
 Alpha  occ. eigenvalues --   -1.05932  -1.04228  -1.03032  -1.03017  -1.03013
 Alpha  occ. eigenvalues --   -1.00813  -1.00177  -0.99046  -0.98919  -0.98916
 Alpha  occ. eigenvalues --   -0.98910  -0.92909  -0.91650  -0.88663  -0.86823
 Alpha  occ. eigenvalues --   -0.86770  -0.83694  -0.83353  -0.83264  -0.83261
 Alpha  occ. eigenvalues --   -0.81607  -0.80594  -0.79966  -0.79905  -0.79898
 Alpha  occ. eigenvalues --   -0.78458  -0.76693  -0.74841  -0.73003  -0.71704
 Alpha  occ. eigenvalues --   -0.71526  -0.71174  -0.71166  -0.70011  -0.69708
 Alpha  occ. eigenvalues --   -0.68775  -0.67838  -0.64625  -0.64108  -0.63965
 Alpha  occ. eigenvalues --   -0.63914  -0.63531  -0.63526  -0.62454  -0.62186
 Alpha  occ. eigenvalues --   -0.61388  -0.61286  -0.61170  -0.60880  -0.60874
 Alpha  occ. eigenvalues --   -0.60228  -0.60164  -0.60143  -0.60137  -0.59517
 Alpha  occ. eigenvalues --   -0.59305  -0.58745  -0.58727  -0.58687  -0.58262
 Alpha  occ. eigenvalues --   -0.58127  -0.57680  -0.54188  -0.53841  -0.52526
 Alpha  occ. eigenvalues --   -0.52511  -0.52494  -0.52447  -0.52356  -0.52348
 Alpha  occ. eigenvalues --   -0.50854  -0.50491  -0.50322  -0.50237  -0.50190
 Alpha  occ. eigenvalues --   -0.49641  -0.49571  -0.49566  -0.49000  -0.48906
 Alpha  occ. eigenvalues --   -0.48845  -0.48337  -0.48007  -0.47528  -0.47507
 Alpha  occ. eigenvalues --   -0.46424  -0.38980  -0.38974  -0.38918  -0.38810
 Alpha  occ. eigenvalues --   -0.37522  -0.35194  -0.35156  -0.35129  -0.30032
 Alpha  occ. eigenvalues --   -0.30029  -0.29565  -0.29564  -0.29555  -0.29446
 Alpha virt. eigenvalues --    0.03866   0.05927   0.08274   0.08281   0.08570
 Alpha virt. eigenvalues --    0.12095   0.12986   0.12988   0.13204   0.14212
 Alpha virt. eigenvalues --    0.14240   0.14266   0.14825   0.15477   0.16442

 Mulliken charges:
               1
     1  C   -0.148913
     2  C    0.096105
     3  C   -0.150856
     4  C    0.607816
     5  C   -0.204231
     6  C    0.608650
     7  C   -0.255684
     8  C   -0.257318
     9  N   -0.175444
    10  N   -0.175286
    11  N    0.081795
    12  C    0.182654
    13  C    0.180426
    14  C   -0.338244
    15  C   -0.006731
    16  C   -0.336152
    17  C   -0.008652
    18  C   -0.115672
    19  H    0.165998
    20  C   -0.231806
    21  C   -0.116971
    22  H    0.167029
    23  C   -0.232289
    24  C   -0.173883
    25  H    0.163810
    26  H    0.169482
    27  C   -0.173255
    28  H    0.163810
    29  H    0.169412
    30  H    0.161293
    31  H    0.161255
    32  N    0.080608
    33  C    0.181313
    34  C    0.182171
    35  C   -0.338792
    36  C   -0.008220
    37  C   -0.337018
    38  C   -0.009380
    39  C   -0.114789
    40  H    0.166472
    41  C   -0.230935
    42  C   -0.116583
    43  H    0.166844
    44  C   -0.231294
    45  C   -0.174517
    46  H    0.163859
    47  H    0.169475
    48  C   -0.173546
    49  H    0.163807
    50  H    0.169456
    51  H    0.161318
    52  H    0.161333
    53  N    0.100441
    54  C    0.179527
    55  C    0.179121
    56  C   -0.352560
    57  C   -0.009201
    58  C   -0.351649
    59  C   -0.010929
    60  C   -0.111134
    61  H    0.166183
    62  C   -0.224455
    63  C   -0.111977
    64  H    0.167483
    65  C   -0.224467
    66  C   -0.177460
    67  H    0.163806
    68  H    0.169469
    69  C   -0.177521
    70  H    0.163747
    71  H    0.169443
    72  H    0.161208
    73  H    0.161183
    74  Cl  -0.039987
 Sum of Mulliken charges =  -0.00000

 Dipole moment (field-independent basis, Debye):
    X=             -3.8032    Y=              0.6989    Z=             -0.1379  Tot=              3.8694
 Quadrupole moment (field-independent basis, Debye-Ang):
   XX=           -295.6775   YY=           -318.2917   ZZ=           -254.3767
   XY=             -4.0389   XZ=             -2.2208   YZ=              1.2449

 Normal termination of Gaussian 09 at Sun Jul  3 23:18:41 2022.
