                         Program Version 5.0.2 -  RELEASE  -
|  1> %maxcore 20000
|  2> %pal
|  3>  nprocs= 4
|  4> end
|  5> ! RI-SCS-PBE-QIDH   def2-TZVP def2/J def2-TZVP/C RIJCOSX CPCM TightSCF
|  6> %TDDFT
|  7>    NROOTS   60
|  8>    dcorr 4
|  9>    doscs true
| 10>    TDA      FALSE
| 11> END
| 12>
| 13> %CPCM
| 14>    SMD          TRUE
| 15>    SMDsolvent   "ACETONITRILE"
| 16>  END
| 17>
| 18>
| 19> * xyz 0 1
| 20> C                  -1.18445100   -0.76873300   -0.18993100
| 21> C                   0.02649200   -1.44498300   -0.02305000
| 22> C                   1.22008300   -0.73649600    0.13327500
| 23> C                   1.19125300    0.66867600    0.14589700
| 24> C                  -0.00827200    1.36669000   -0.03695600
| 25> C                  -1.18865000    0.63605100   -0.22072100
| 26> C                   2.38180800    1.37670100    0.45029300
| 27> C                  -2.39464100    1.31355600   -0.53356600
| 28> N                   3.35098200    1.94967700    0.71396100
| 29> N                  -3.37494100    1.86285600   -0.80625800
| 30> N                  -2.38867400   -1.45614700   -0.35542200
| 31> C                  -2.74074700   -2.26563300   -1.43717600
| 32> C                  -3.48073000   -1.37297800    0.51200200
| 33> C                  -2.00578700   -2.58480600   -2.56878400
| 34> C                  -4.06137900   -2.71741500   -1.24706700
| 35> C                  -3.58968500   -0.69015200    1.71341800
| 36> C                  -4.52962100   -2.15349400   -0.00935100
| 37> C                  -2.61092600   -3.40079600   -3.51160300
| 38> H                  -1.00206200   -2.20759700   -2.71802900
| 39> C                  -4.64524200   -3.53491100   -2.21085800
| 40> C                  -4.79322400   -0.78895500    2.39390700
| 41> H                  -2.76911100   -0.10266700    2.10681400
| 42> C                  -5.72563500   -2.24036000    0.69801000
| 43> C                  -3.91250500   -3.87605300   -3.33469000
| 44> H                  -2.06155900   -3.67033100   -4.40448600
| 45> H                  -5.66016000   -3.89042300   -2.08254300
| 46> C                  -5.85001200   -1.55321300    1.89356200
| 47> H                  -4.91205900   -0.26369500    3.33289700
| 48> H                  -6.54401000   -2.83784300    0.31558800
| 49> H                  -4.35370700   -4.51113600   -4.09186900
| 50> H                  -6.77554900   -1.60940600    2.45167500
| 51> N                   2.43624800   -1.39562000    0.32978300
| 52> C                   3.53891600   -1.32681000   -0.52462700
| 53> C                   2.78959800   -2.14611900    1.45277200
| 54> C                   3.65211500   -0.69919700   -1.75563300
| 55> C                   4.59709500   -2.05800900    0.04831400
| 56> C                   2.04158000   -2.43251300    2.58443700
| 57> C                   4.12292100   -2.57488600    1.30408200
| 58> C                   4.86802500   -0.80374700   -2.41294900
| 59> H                   2.82534500   -0.15125000   -2.19008400
| 60> C                   5.80544100   -2.15179800   -0.63666800
| 61> C                   2.64870800   -3.19041300    3.57326100
| 62> H                   1.02592300   -2.07509300    2.69758100
| 63> C                   4.70838100   -3.33416200    2.31354300
| 64> C                   5.93321600   -1.51988200   -1.86190500
| 65> H                   4.98993500   -0.32194300   -3.37456600
| 66> H                   6.63006300   -2.71273400   -0.21439800
| 67> C                   3.96416400   -3.64119700    3.43971600
| 68> H                   2.08999900   -3.43335900    4.46801300
| 69> H                   5.73319800   -3.67124300    2.21834500
| 70> H                   6.86799700   -1.58233700   -2.40372500
| 71> H                   4.40689300   -4.23053600    4.23217000
| 72> N                  -0.03324400    2.76097600   -0.02488200
| 73> C                  -0.78039500    3.55286300    0.85464600
| 74> C                   0.67886200    3.60433000   -0.88420000
| 75> C                  -1.60131000    3.16383500    1.90243300
| 76> C                  -0.54120200    4.90665200    0.55271900
| 77> C                   1.51528300    3.27632300   -1.94033100
| 78> C                   0.38150600    4.93922100   -0.55009300
| 79> C                  -2.21131400    4.16603000    2.64008300
| 80> H                  -1.76022700    2.12075700    2.14555500
| 81> C                  -1.16432900    5.89360100    1.31174600
| 82> C                   2.08112200    4.32129600   -2.65341200
| 83> H                   1.71766900    2.24672000   -2.20656800
| 84> C                   0.96143300    5.96985900   -1.28453000
| 85> C                  -2.00095900    5.51532300    2.34753000
| 86> H                  -2.86117400    3.89280600    3.46147200
| 87> H                  -0.98994500    6.94009200    1.09420700
| 88> C                   1.81302800    5.65291800   -2.32861400
| 89> H                   2.74161700    4.09608600   -3.48082700
| 90> H                   0.74262500    7.00237200   -1.04187500
| 91> H                  -2.49373800    6.27176400    2.94436600
| 92> H                   2.27262700    6.44382700   -2.90695300
| 93> Cl                  0.04745500   -3.15837000   -0.00039000
| 94> *
| 95>
| 96>
| 97>                          ****END OF INPUT****

CARTESIAN COORDINATES (ANGSTROEM)
---------------------------------
  C     -1.184451   -0.768733   -0.189931
  C      0.026492   -1.444983   -0.023050
  C      1.220083   -0.736496    0.133275
  C      1.191253    0.668676    0.145897
  C     -0.008272    1.366690   -0.036956
  C     -1.188650    0.636051   -0.220721
  C      2.381808    1.376701    0.450293
  C     -2.394641    1.313556   -0.533566
  N      3.350982    1.949677    0.713961
  N     -3.374941    1.862856   -0.806258
  N     -2.388674   -1.456147   -0.355422
  C     -2.740747   -2.265633   -1.437176
  C     -3.480730   -1.372978    0.512002
  C     -2.005787   -2.584806   -2.568784
  C     -4.061379   -2.717415   -1.247067
  C     -3.589685   -0.690152    1.713418
  C     -4.529621   -2.153494   -0.009351
  C     -2.610926   -3.400796   -3.511603
  H     -1.002062   -2.207597   -2.718029
  C     -4.645242   -3.534911   -2.210858
  C     -4.793224   -0.788955    2.393907
  H     -2.769111   -0.102667    2.106814
  C     -5.725635   -2.240360    0.698010
  C     -3.912505   -3.876053   -3.334690
  H     -2.061559   -3.670331   -4.404486
  H     -5.660160   -3.890423   -2.082543
  C     -5.850012   -1.553213    1.893562
  H     -4.912059   -0.263695    3.332897
  H     -6.544010   -2.837843    0.315588
  H     -4.353707   -4.511136   -4.091869
  H     -6.775549   -1.609406    2.451675
  N      2.436248   -1.395620    0.329783
  C      3.538916   -1.326810   -0.524627
  C      2.789598   -2.146119    1.452772
  C      3.652115   -0.699197   -1.755633
  C      4.597095   -2.058009    0.048314
  C      2.041580   -2.432513    2.584437
  C      4.122921   -2.574886    1.304082
  C      4.868025   -0.803747   -2.412949
  H      2.825345   -0.151250   -2.190084
  C      5.805441   -2.151798   -0.636668
  C      2.648708   -3.190413    3.573261
  H      1.025923   -2.075093    2.697581
  C      4.708381   -3.334162    2.313543
  C      5.933216   -1.519882   -1.861905
  H      4.989935   -0.321943   -3.374566
  H      6.630063   -2.712734   -0.214398
  C      3.964164   -3.641197    3.439716
  H      2.089999   -3.433359    4.468013
  H      5.733198   -3.671243    2.218345
  H      6.867997   -1.582337   -2.403725
  H      4.406893   -4.230536    4.232170
  N     -0.033244    2.760976   -0.024882
  C     -0.780395    3.552863    0.854646
  C      0.678862    3.604330   -0.884200
  C     -1.601310    3.163835    1.902433
  C     -0.541202    4.906652    0.552719
  C      1.515283    3.276323   -1.940331
  C      0.381506    4.939221   -0.550093
  C     -2.211314    4.166030    2.640083
  H     -1.760227    2.120757    2.145555
  C     -1.164329    5.893601    1.311746
  C      2.081122    4.321296   -2.653412
  H      1.717669    2.246720   -2.206568
  C      0.961433    5.969859   -1.284530
  C     -2.000959    5.515323    2.347530
  H     -2.861174    3.892806    3.461472
  H     -0.989945    6.940092    1.094207
  C      1.813028    5.652918   -2.328614
  H      2.741617    4.096086   -3.480827
  H      0.742625    7.002372   -1.041875
  H     -2.493738    6.271764    2.944366
  H      2.272627    6.443827   -2.906953
  Cl     0.047455   -3.158370   -0.000390

 Total Charge           Charge          ....    0
 Multiplicity           Mult            ....    1
 Number of Electrons    NEL             ....  340
 Basis Dimension        Dim             .... 1700

ORBITAL ENERGIES
----------------

  NO   OCC          E(Eh)            E(eV)
   0   2.0000    -103.572360     -2818.3472
   1   2.0000     -15.153167      -412.3386
   2   2.0000     -15.150273      -412.2599
   3   2.0000     -15.149774      -412.2463
   4   2.0000     -15.111227      -411.1974
   5   2.0000     -15.111036      -411.1922
   6   2.0000     -10.937511      -297.6248
   7   2.0000     -10.935783      -297.5778
   8   2.0000     -10.935663      -297.5745
   9   2.0000     -10.928376      -297.3762
  10   2.0000     -10.904209      -296.7186
  11   2.0000     -10.903949      -296.7115
  12   2.0000     -10.892104      -296.3892
  13   2.0000     -10.891975      -296.3857
  14   2.0000     -10.875676      -295.9422
  15   2.0000     -10.875644      -295.9413
  16   2.0000     -10.874807      -295.9185
  17   2.0000     -10.874751      -295.9170
  18   2.0000     -10.874696      -295.9155
  19   2.0000     -10.874461      -295.9091
  20   2.0000     -10.833709      -294.8002
  21   2.0000     -10.833199      -294.7863
  22   2.0000     -10.833078      -294.7830
  23   2.0000     -10.832978      -294.7803
  24   2.0000     -10.832471      -294.7665
  25   2.0000     -10.832346      -294.7631
  26   2.0000     -10.828246      -294.6516
  27   2.0000     -10.828221      -294.6509
  28   2.0000     -10.828187      -294.6500
  29   2.0000     -10.828142      -294.6487
  30   2.0000     -10.828054      -294.6463
  31   2.0000     -10.828017      -294.6453
  32   2.0000     -10.827894      -294.6420
  33   2.0000     -10.827882      -294.6417
  34   2.0000     -10.827554      -294.6327
  35   2.0000     -10.827500      -294.6313
  36   2.0000     -10.827365      -294.6276
  37   2.0000     -10.827250      -294.6244
  38   2.0000     -10.826110      -294.5934
  39   2.0000     -10.826105      -294.5933
  40   2.0000     -10.826102      -294.5932
  41   2.0000     -10.826040      -294.5915
  42   2.0000     -10.825764      -294.5840
  43   2.0000     -10.825733      -294.5832
  44   2.0000     -10.818769      -294.3937
  45   2.0000     -10.818713      -294.3921
  46   2.0000     -10.818477      -294.3857
  47   2.0000     -10.818374      -294.3829
  48   2.0000     -10.818282      -294.3804
  49   2.0000     -10.818204      -294.3783
  50   2.0000     -10.176263      -276.9102
  51   2.0000      -7.753390      -210.9805
  52   2.0000      -7.748617      -210.8506
  53   2.0000      -7.748397      -210.8446
  54   2.0000      -1.240975       -33.7686
  55   2.0000      -1.230680       -33.4885
  56   2.0000      -1.230133       -33.4736
  57   2.0000      -1.145244       -31.1637
  58   2.0000      -1.139491       -31.0071
  59   2.0000      -1.126356       -30.6497
  60   2.0000      -1.085823       -29.5467
  61   2.0000      -1.072319       -29.1793
  62   2.0000      -1.059059       -28.8185
  63   2.0000      -1.054612       -28.6975
  64   2.0000      -1.054060       -28.6824
  65   2.0000      -1.053342       -28.6629
  66   2.0000      -1.043259       -28.3885
  67   2.0000      -1.010371       -27.4936
  68   2.0000      -0.989145       -26.9160
  69   2.0000      -0.972353       -26.4591
  70   2.0000      -0.969392       -26.3785
  71   2.0000      -0.952581       -25.9211
  72   2.0000      -0.940772       -25.5997
  73   2.0000      -0.940079       -25.5808
  74   2.0000      -0.939730       -25.5714
  75   2.0000      -0.922320       -25.0976
  76   2.0000      -0.915039       -24.8995
  77   2.0000      -0.905395       -24.6370
  78   2.0000      -0.900588       -24.5062
  79   2.0000      -0.900249       -24.4970
  80   2.0000      -0.899981       -24.4897
  81   2.0000      -0.852671       -23.2023
  82   2.0000      -0.843705       -22.9584
  83   2.0000      -0.813520       -22.1370
  84   2.0000      -0.794662       -21.6239
  85   2.0000      -0.794045       -21.6071
  86   2.0000      -0.768950       -20.9242
  87   2.0000      -0.765491       -20.8301
  88   2.0000      -0.762770       -20.7560
  89   2.0000      -0.762316       -20.7437
  90   2.0000      -0.751686       -20.4544
  91   2.0000      -0.736655       -20.0454
  92   2.0000      -0.728101       -19.8126
  93   2.0000      -0.727611       -19.7993
  94   2.0000      -0.727036       -19.7836
  95   2.0000      -0.718459       -19.5503
  96   2.0000      -0.699068       -19.0226
  97   2.0000      -0.687922       -18.7193
  98   2.0000      -0.671024       -18.2595
  99   2.0000      -0.658967       -17.9314
 100   2.0000      -0.656182       -17.8556
 101   2.0000      -0.650689       -17.7062
 102   2.0000      -0.649080       -17.6624
 103   2.0000      -0.642242       -17.4763
 104   2.0000      -0.639013       -17.3884
 105   2.0000      -0.630387       -17.1537
 106   2.0000      -0.620429       -16.8827
 107   2.0000      -0.591299       -16.0901
 108   2.0000      -0.588037       -16.0013
 109   2.0000      -0.586809       -15.9679
 110   2.0000      -0.582702       -15.8561
 111   2.0000      -0.578741       -15.7483
 112   2.0000      -0.577662       -15.7190
 113   2.0000      -0.577437       -15.7129
 114   2.0000      -0.574184       -15.6243
 115   2.0000      -0.560375       -15.2486
 116   2.0000      -0.559616       -15.2279
 117   2.0000      -0.557047       -15.1580
 118   2.0000      -0.555024       -15.1030
 119   2.0000      -0.552040       -15.0218
 120   2.0000      -0.550356       -14.9759
 121   2.0000      -0.547764       -14.9054
 122   2.0000      -0.547206       -14.8902
 123   2.0000      -0.546864       -14.8809
 124   2.0000      -0.543629       -14.7929
 125   2.0000      -0.542702       -14.7677
 126   2.0000      -0.535095       -14.5607
 127   2.0000      -0.532895       -14.5008
 128   2.0000      -0.532058       -14.4780
 129   2.0000      -0.531724       -14.4689
 130   2.0000      -0.524111       -14.2618
 131   2.0000      -0.522054       -14.2058
 132   2.0000      -0.499622       -13.5954
 133   2.0000      -0.496229       -13.5031
 134   2.0000      -0.474905       -12.9228
 135   2.0000      -0.474837       -12.9210
 136   2.0000      -0.474423       -12.9097
 137   2.0000      -0.474235       -12.9046
 138   2.0000      -0.473745       -12.8913
 139   2.0000      -0.472783       -12.8651
 140   2.0000      -0.471960       -12.8427
 141   2.0000      -0.468254       -12.7418
 142   2.0000      -0.463863       -12.6224
 143   2.0000      -0.454624       -12.3710
 144   2.0000      -0.454316       -12.3626
 145   2.0000      -0.451114       -12.2754
 146   2.0000      -0.447058       -12.1651
 147   2.0000      -0.445939       -12.1346
 148   2.0000      -0.444998       -12.1090
 149   2.0000      -0.444385       -12.0923
 150   2.0000      -0.443103       -12.0574
 151   2.0000      -0.442962       -12.0536
 152   2.0000      -0.440673       -11.9913
 153   2.0000      -0.438672       -11.9369
 154   2.0000      -0.431864       -11.7516
 155   2.0000      -0.427240       -11.6258
 156   2.0000      -0.371192       -10.1006
 157   2.0000      -0.369980       -10.0677
 158   2.0000      -0.367325        -9.9954
 159   2.0000      -0.359055        -9.7704
 160   2.0000      -0.348803        -9.4914
 161   2.0000      -0.333461        -9.0739
 162   2.0000      -0.332635        -9.0515
 163   2.0000      -0.330590        -8.9958
 164   2.0000      -0.283719        -7.7204
 165   2.0000      -0.283552        -7.7158
 166   2.0000      -0.282722        -7.6933
 167   2.0000      -0.282607        -7.6901
 168   2.0000      -0.282057        -7.6752
 169   2.0000      -0.276961        -7.5365
 170   0.0000      -0.032048        -0.8721
 171   0.0000      -0.010614        -0.2888
 172   0.0000       0.019087         0.5194
 173   0.0000       0.019198         0.5224
 174   0.0000       0.021039         0.5725

MULLIKEN ATOMIC CHARGES
-----------------------
   0 C :    0.135544
   1 C :   -0.169573
   2 C :    0.117095
   3 C :    0.241641
   4 C :    0.046033
   5 C :    0.222410
   6 C :   -0.199108
   7 C :   -0.196045
   8 N :   -0.151400
   9 N :   -0.150622
  10 N :    0.116866
  11 C :    0.130593
  12 C :    0.135866
  13 C :   -0.300723
  14 C :   -0.018190
  15 C :   -0.306283
  16 C :   -0.015406
  17 C :   -0.130217
  18 H :    0.183919
  19 C :   -0.239151
  20 C :   -0.141915
  21 H :    0.190046
  22 C :   -0.236959
  23 C :   -0.183456
  24 H :    0.174261
  25 H :    0.176443
  26 C :   -0.182860
  27 H :    0.173989
  28 H :    0.177270
  29 H :    0.170691
  30 H :    0.170251
  31 N :    0.116616
  32 C :    0.129198
  33 C :    0.130476
  34 C :   -0.308854
  35 C :   -0.008969
  36 C :   -0.299925
  37 C :   -0.017636
  38 C :   -0.135047
  39 H :    0.187248
  40 C :   -0.238254
  41 C :   -0.133208
  42 H :    0.184205
  43 C :   -0.241308
  44 C :   -0.182089
  45 H :    0.174154
  46 H :    0.176838
  47 C :   -0.181418
  48 H :    0.174167
  49 H :    0.176433
  50 H :    0.170414
  51 H :    0.170678
  52 N :    0.128986
  53 C :    0.140257
  54 C :    0.141920
  55 C :   -0.310123
  56 C :   -0.026303
  57 C :   -0.316391
  58 C :   -0.027585
  59 C :   -0.128347
  60 H :    0.180662
  61 C :   -0.229626
  62 C :   -0.122530
  63 H :    0.180505
  64 C :   -0.228183
  65 C :   -0.190816
  66 H :    0.174214
  67 H :    0.177177
  68 C :   -0.190656
  69 H :    0.174320
  70 H :    0.176801
  71 H :    0.169582
  72 H :    0.169901
  73 Cl:   -0.028495
Sum of atomic charges:   -0.0000000

LOEWDIN ATOMIC CHARGES
----------------------
   0 C :   -0.086269
   1 C :   -0.348949
   2 C :   -0.086158
   3 C :   -0.063870
   4 C :   -0.042375
   5 C :   -0.064988
   6 C :   -0.112785
   7 C :   -0.113614
   8 N :    0.033872
   9 N :    0.034014
  10 N :    0.308621
  11 C :   -0.123557
  12 C :   -0.116250
  13 C :   -0.131266
  14 C :   -0.089000
  15 C :   -0.121147
  16 C :   -0.088722
  17 C :   -0.141480
  18 H :    0.160497
  19 C :   -0.099698
  20 C :   -0.140350
  21 H :    0.162878
  22 C :   -0.098551
  23 C :   -0.161732
  24 H :    0.156400
  25 H :    0.159707
  26 C :   -0.161045
  27 H :    0.156538
  28 H :    0.159771
  29 H :    0.153763
  30 H :    0.153843
  31 N :    0.307853
  32 C :   -0.116702
  33 C :   -0.123585
  34 C :   -0.121518
  35 C :   -0.088911
  36 C :   -0.131154
  37 C :   -0.089143
  38 C :   -0.140503
  39 H :    0.162843
  40 C :   -0.098730
  41 C :   -0.141455
  42 H :    0.160610
  43 C :   -0.099748
  44 C :   -0.161348
  45 H :    0.156492
  46 H :    0.159762
  47 C :   -0.161904
  48 H :    0.156382
  49 H :    0.159665
  50 H :    0.153811
  51 H :    0.153722
  52 N :    0.317893
  53 C :   -0.112404
  54 C :   -0.113012
  55 C :   -0.120241
  56 C :   -0.087630
  57 C :   -0.120518
  58 C :   -0.087647
  59 C :   -0.139790
  60 H :    0.162960
  61 C :   -0.098009
  62 C :   -0.139828
  63 H :    0.163147
  64 C :   -0.098043
  65 C :   -0.159656
  66 H :    0.156739
  67 H :    0.159939
  68 C :   -0.159750
  69 H :    0.156708
  70 H :    0.159940
  71 H :    0.154015
  72 H :    0.153996
  73 Cl:    0.506656

  Mayer bond orders larger than 0.100000
B(  0-C ,  1-C ) :   1.2854 B(  0-C ,  5-C ) :   1.3289 B(  0-C , 10-N ) :   1.0207
B(  0-C , 73-Cl) :  -0.1124 B(  1-C ,  2-C ) :   1.2849 B(  1-C , 73-Cl) :   1.3603
B(  2-C ,  3-C ) :   1.3469 B(  2-C , 31-N ) :   1.0078 B(  2-C , 73-Cl) :  -0.1160
B(  3-C ,  4-C ) :   1.3949 B(  3-C ,  6-C ) :   0.9425 B(  4-C ,  5-C ) :   1.3692
B(  4-C , 52-N ) :   1.1017 B(  5-C ,  7-C ) :   0.9462 B(  6-C ,  8-N ) :   2.9896
B(  7-C ,  9-N ) :   2.9908 B( 10-N , 11-C ) :   1.0599 B( 10-N , 12-C ) :   1.0543
B( 11-C , 13-C ) :   1.3904 B( 11-C , 14-C ) :   1.3365 B( 12-C , 15-C ) :   1.4088
B( 12-C , 16-C ) :   1.3121 B( 13-C , 17-C ) :   1.4361 B( 13-C , 18-H ) :   0.9661
B( 14-C , 16-C ) :   1.0282 B( 14-C , 19-C ) :   1.3168 B( 15-C , 20-C ) :   1.4317
B( 15-C , 21-H ) :   0.9647 B( 16-C , 22-C ) :   1.3137 B( 17-C , 23-C ) :   1.3562
B( 17-C , 24-H ) :   0.9735 B( 19-C , 23-C ) :   1.4745 B( 19-C , 25-H ) :   0.9803
B( 20-C , 26-C ) :   1.3503 B( 20-C , 27-H ) :   0.9753 B( 22-C , 26-C ) :   1.4685
B( 22-C , 28-H ) :   0.9804 B( 23-C , 29-H ) :   0.9820 B( 26-C , 30-H ) :   0.9850
B( 31-N , 32-C ) :   1.0573 B( 31-N , 33-C ) :   1.0570 B( 32-C , 34-C ) :   1.4035
B( 32-C , 35-C ) :   1.3082 B( 33-C , 36-C ) :   1.3923 B( 33-C , 37-C ) :   1.3387
B( 34-C , 38-C ) :   1.4305 B( 34-C , 39-H ) :   0.9689 B( 35-C , 37-C ) :   1.0300
B( 35-C , 40-C ) :   1.3145 B( 36-C , 41-C ) :   1.4361 B( 36-C , 42-H ) :   0.9662
B( 37-C , 43-C ) :   1.3159 B( 38-C , 44-C ) :   1.3526 B( 38-C , 45-H ) :   0.9746
B( 40-C , 44-C ) :   1.4687 B( 40-C , 46-H ) :   0.9806 B( 41-C , 47-C ) :   1.3563
B( 41-C , 48-H ) :   0.9736 B( 43-C , 47-C ) :   1.4744 B( 43-C , 49-H ) :   0.9804
B( 44-C , 50-H ) :   0.9841 B( 47-C , 51-H ) :   0.9819 B( 52-N , 53-C ) :   1.0494
B( 52-N , 54-C ) :   1.0521 B( 53-C , 55-C ) :   1.4186 B( 53-C , 56-C ) :   1.3207
B( 54-C , 57-C ) :   1.4107 B( 54-C , 58-C ) :   1.3198 B( 55-C , 59-C ) :   1.4318
B( 55-C , 60-H ) :   0.9687 B( 56-C , 58-C ) :   1.0347 B( 56-C , 61-C ) :   1.3037
B( 57-C , 62-C ) :   1.4285 B( 57-C , 63-H ) :   0.9716 B( 58-C , 64-C ) :   1.3069
B( 59-C , 65-C ) :   1.3425 B( 59-C , 66-H ) :   0.9761 B( 61-C , 65-C ) :   1.4629
B( 61-C , 67-H ) :   0.9811 B( 62-C , 68-C ) :   1.3452 B( 62-C , 69-H ) :   0.9755
B( 64-C , 68-C ) :   1.4643 B( 64-C , 70-H ) :   0.9813 B( 65-C , 71-H ) :   0.9868
B( 68-C , 72-H ) :   0.9851

MP2 TOTAL ENERGY:    -2423.018657689 Eh

-----------------------------------------------------------------------------
         ABSORPTION SPECTRUM VIA TRANSITION ELECTRIC DIPOLE MOMENTS
-----------------------------------------------------------------------------
State   Energy    Wavelength  fosc         T2        TX        TY        TZ
        (cm-1)      (nm)                 (au**2)    (au)      (au)      (au)
-----------------------------------------------------------------------------
   1   24537.6    407.5   0.173102977   2.32246   1.49370   0.07232   0.29342
   2   26772.6    373.5   0.066048030   0.81217  -0.02305   0.90078  -0.01528
   3   28810.9    347.1   0.199331840   2.27769   0.07057  -1.50755   0.00027
   4   26905.7    371.7   0.009614398   0.11764   0.17848   0.29253  -0.01456
   5   29755.9    336.1   0.004996549   0.05528  -0.05695   0.02034   0.22721
   6   29831.8    335.2   0.001207642   0.01333  -0.01034  -0.10189   0.05329
   7   32352.3    309.1   0.194506004   1.97926  -1.26386  -0.01017  -0.61792
   8   32743.0    305.4   0.093175573   0.93683   0.00077   0.96787   0.00754
   9   32898.3    304.0   0.013538043   0.13547  -0.04265   0.36474   0.02487
  10   37182.1    268.9   0.110612846   0.97937  -0.01589  -0.00427  -0.98950
  11   37076.2    269.7   0.092043316   0.81728   0.06183   0.90182   0.01347
  12   36986.1    270.4   0.595121388   5.29716   1.18006   0.02058  -1.97590
  13   30531.2    327.5   0.011289120   0.12173  -0.07991   0.32359   0.10312
  14   32551.1    307.2   0.156887674   1.58671   0.93495   0.00262  -0.84415
  15   32905.0    303.9   0.034020884   0.34038   0.48266  -0.00040  -0.32774
  16   31440.0    318.1   0.001340608   0.01404   0.04937   0.10061  -0.03843
  17   36017.1    277.6   0.244963550   2.23907  -1.49121   0.00754  -0.12376
  18   34697.7    288.2   0.001862883   0.01768   0.11228  -0.05564  -0.04440
  19   34770.5    287.6   0.026332165   0.24932   0.45239  -0.01984  -0.21039
  20   42049.0    237.8   0.102439504   0.80202   0.01354  -0.89517   0.02259
  21   41528.3    240.8   0.037684545   0.29874  -0.05195  -0.42290   0.34234
  22   41489.7    241.0   0.087330197   0.69295  -0.08771   0.21165   0.80029
  23   41828.1    239.1   0.153156863   1.20544   0.65382   0.03099  -0.88147
  24   39126.0    255.6   0.232159107   1.95342   0.45311  -0.15226  -1.31337
  25   39854.4    250.9   0.124717009   1.03021  -0.04543  -1.00615   0.12574
  26   43006.3    232.5   0.626561281   4.79630   0.13588   2.18566  -0.02735
  27   42702.6    234.2   0.482530016   3.72002   0.22465   1.91522   0.03860
  28   44598.0    224.2   0.952899511   7.03408  -2.60874   0.17791   0.44373
  29   44808.6    223.2   0.689984209   5.06936  -0.85523   0.07681  -2.08135
  30   45821.5    218.2   0.054452163   0.39122  -0.23071   0.21856  -0.53873
  31   45741.3    218.6   0.222237137   1.59950   0.52008   0.09615   1.14881
  32   45051.8    222.0   0.002006977   0.01467   0.03868   0.05466  -0.10091
  33   44635.8    224.0   0.446716386   3.29476   0.20116   1.76941  -0.35141
  34   44973.2    222.4   1.700541447  12.44828  -2.15347   0.24274   2.78423
  35   46789.2    213.7   0.300521893   2.11449   1.42693   0.03759  -0.27741
  36   47027.4    212.6   0.072808777   0.50969   0.06281   0.03639   0.71023
  37   48588.0    205.8   0.060748576   0.41161   0.02074  -0.64052   0.03024
  38   49152.5    203.4   0.001508158   0.01010   0.01957  -0.09100  -0.03792
  39   51417.4    194.5   0.001609220   0.01030   0.02064   0.09893   0.00949
  40   49915.9    200.3   0.016467697   0.10861  -0.32567   0.00432   0.05029
  41   50359.3    198.6   0.094015787   0.61461   0.20607   0.12349  -0.74625
  42   50354.0    198.6   0.082694219   0.54065  -0.03161   0.72086   0.14147
  43   45585.9    219.4   0.050712945   0.36624  -0.55332  -0.02866   0.24343
  44   45244.1    221.0   0.001258505   0.00916   0.02320  -0.09222  -0.01071
  45   46125.3    216.8   0.013090680   0.09343   0.05774  -0.29475  -0.05677
  46   50098.7    199.6   0.393617610   2.58656  -1.07149  -0.03195   1.19894
  47   46993.9    212.8   0.076857798   0.53842  -0.62379   0.06475   0.38095
  48   44940.3    222.5   0.011594038   0.08493  -0.04842  -0.28270  -0.05164
  49   45961.3    217.6   0.013033364   0.09336  -0.05562   0.04091  -0.29764
  50   46209.2    216.4   0.007166346   0.05106   0.07212  -0.00004   0.21414
  51   50039.6    199.8   0.037416466   0.24616  -0.49389   0.00494  -0.04702
  52   46098.5    216.9   0.000329616   0.00235   0.01028  -0.00217  -0.04737
  53   47581.4    210.2   0.000242753   0.00168  -0.00792  -0.02840  -0.02846
  54   47848.1    209.0   0.000068190   0.00047   0.02151  -0.00094   0.00233
  55   49078.7    203.8   0.001840912   0.01235   0.06187   0.08970   0.02178
  56   51388.9    194.6   0.004562753   0.02923  -0.01598   0.16976  -0.01244
  57   47768.6    209.3   0.000511352   0.00352   0.01742  -0.05401  -0.01743
  58   48107.8    207.9   0.001923906   0.01317   0.06679   0.01883  -0.09138
  59   46813.1    213.6   0.001642912   0.01155  -0.02311   0.10476   0.00675
  60   47694.8    209.7   0.000824541   0.00569   0.00599   0.06959  -0.02850

FINAL SINGLE POINT ENERGY     -2419.933597565221

DIPOLE MOMENT
-------------
                                X             Y             Z
Electronic contribution:      0.19797      -7.51312      -0.32781
Nuclear contribution   :     -0.20118       6.09592       0.34197
                        -----------------------------------------
Total Dipole Moment    :     -0.00321      -1.41720       0.01416
                        -----------------------------------------
Magnitude (a.u.)       :      1.41728
Magnitude (Debye)      :      3.60243

Rotational constants in cm-1:     0.002146     0.002013     0.001365
Rotational constants in MHz :    64.345159    60.335456    40.912206

                             ****ORCA TERMINATED NORMALLY****
TOTAL RUN TIME: 2 days 8 hours 8 minutes 25 seconds 818 msec
