                         Program Version 5.0.2 -  RELEASE  -
|  1> %maxcore 20000
|  2> %pal
|  3>  nprocs= 4
|  4> end
|  5> ! RI-DSD-BLYP D3BJ def2-TZVP def2/J def2-TZVP/C RIJCOSX CPCM TightSCF
|  6> %TDDFT
|  7>    NROOTS   60
|  8>    dcorr 4
|  9>    doscs true
| 10>    scspar 0.333, 1.2, 0.43, 1.24
| 11>    TDA      FALSE
| 12> END
| 13>
| 14>  %CPCM
| 15>    SMD          TRUE
| 16>    SMDsolvent   "ACETONITRILE"
| 17>  END
| 18>
| 19>
| 20> * xyz 0 1
| 21> C                  -1.18445100   -0.76873300   -0.18993100
| 22> C                   0.02649200   -1.44498300   -0.02305000
| 23> C                   1.22008300   -0.73649600    0.13327500
| 24> C                   1.19125300    0.66867600    0.14589700
| 25> C                  -0.00827200    1.36669000   -0.03695600
| 26> C                  -1.18865000    0.63605100   -0.22072100
| 27> C                   2.38180800    1.37670100    0.45029300
| 28> C                  -2.39464100    1.31355600   -0.53356600
| 29> N                   3.35098200    1.94967700    0.71396100
| 30> N                  -3.37494100    1.86285600   -0.80625800
| 31> N                  -2.38867400   -1.45614700   -0.35542200
| 32> C                  -2.74074700   -2.26563300   -1.43717600
| 33> C                  -3.48073000   -1.37297800    0.51200200
| 34> C                  -2.00578700   -2.58480600   -2.56878400
| 35> C                  -4.06137900   -2.71741500   -1.24706700
| 36> C                  -3.58968500   -0.69015200    1.71341800
| 37> C                  -4.52962100   -2.15349400   -0.00935100
| 38> C                  -2.61092600   -3.40079600   -3.51160300
| 39> H                  -1.00206200   -2.20759700   -2.71802900
| 40> C                  -4.64524200   -3.53491100   -2.21085800
| 41> C                  -4.79322400   -0.78895500    2.39390700
| 42> H                  -2.76911100   -0.10266700    2.10681400
| 43> C                  -5.72563500   -2.24036000    0.69801000
| 44> C                  -3.91250500   -3.87605300   -3.33469000
| 45> H                  -2.06155900   -3.67033100   -4.40448600
| 46> H                  -5.66016000   -3.89042300   -2.08254300
| 47> C                  -5.85001200   -1.55321300    1.89356200
| 48> H                  -4.91205900   -0.26369500    3.33289700
| 49> H                  -6.54401000   -2.83784300    0.31558800
| 50> H                  -4.35370700   -4.51113600   -4.09186900
| 51> H                  -6.77554900   -1.60940600    2.45167500
| 52> N                   2.43624800   -1.39562000    0.32978300
| 53> C                   3.53891600   -1.32681000   -0.52462700
| 54> C                   2.78959800   -2.14611900    1.45277200
| 55> C                   3.65211500   -0.69919700   -1.75563300
| 56> C                   4.59709500   -2.05800900    0.04831400
| 57> C                   2.04158000   -2.43251300    2.58443700
| 58> C                   4.12292100   -2.57488600    1.30408200
| 59> C                   4.86802500   -0.80374700   -2.41294900
| 60> H                   2.82534500   -0.15125000   -2.19008400
| 61> C                   5.80544100   -2.15179800   -0.63666800
| 62> C                   2.64870800   -3.19041300    3.57326100
| 63> H                   1.02592300   -2.07509300    2.69758100
| 64> C                   4.70838100   -3.33416200    2.31354300
| 65> C                   5.93321600   -1.51988200   -1.86190500
| 66> H                   4.98993500   -0.32194300   -3.37456600
| 67> H                   6.63006300   -2.71273400   -0.21439800
| 68> C                   3.96416400   -3.64119700    3.43971600
| 69> H                   2.08999900   -3.43335900    4.46801300
| 70> H                   5.73319800   -3.67124300    2.21834500
| 71> H                   6.86799700   -1.58233700   -2.40372500
| 72> H                   4.40689300   -4.23053600    4.23217000
| 73> N                  -0.03324400    2.76097600   -0.02488200
| 74> C                  -0.78039500    3.55286300    0.85464600
| 75> C                   0.67886200    3.60433000   -0.88420000
| 76> C                  -1.60131000    3.16383500    1.90243300
| 77> C                  -0.54120200    4.90665200    0.55271900
| 78> C                   1.51528300    3.27632300   -1.94033100
| 79> C                   0.38150600    4.93922100   -0.55009300
| 80> C                  -2.21131400    4.16603000    2.64008300
| 81> H                  -1.76022700    2.12075700    2.14555500
| 82> C                  -1.16432900    5.89360100    1.31174600
| 83> C                   2.08112200    4.32129600   -2.65341200
| 84> H                   1.71766900    2.24672000   -2.20656800
| 85> C                   0.96143300    5.96985900   -1.28453000
| 86> C                  -2.00095900    5.51532300    2.34753000
| 87> H                  -2.86117400    3.89280600    3.46147200
| 88> H                  -0.98994500    6.94009200    1.09420700
| 89> C                   1.81302800    5.65291800   -2.32861400
| 90> H                   2.74161700    4.09608600   -3.48082700
| 91> H                   0.74262500    7.00237200   -1.04187500
| 92> H                  -2.49373800    6.27176400    2.94436600
| 93> H                   2.27262700    6.44382700   -2.90695300
| 94> Cl                  0.04745500   -3.15837000   -0.00039000
| 95> *
| 96>
| 97>
| 98>                          ****END OF INPUT****

CARTESIAN COORDINATES (ANGSTROEM)
---------------------------------
  C     -1.184451   -0.768733   -0.189931
  C      0.026492   -1.444983   -0.023050
  C      1.220083   -0.736496    0.133275
  C      1.191253    0.668676    0.145897
  C     -0.008272    1.366690   -0.036956
  C     -1.188650    0.636051   -0.220721
  C      2.381808    1.376701    0.450293
  C     -2.394641    1.313556   -0.533566
  N      3.350982    1.949677    0.713961
  N     -3.374941    1.862856   -0.806258
  N     -2.388674   -1.456147   -0.355422
  C     -2.740747   -2.265633   -1.437176
  C     -3.480730   -1.372978    0.512002
  C     -2.005787   -2.584806   -2.568784
  C     -4.061379   -2.717415   -1.247067
  C     -3.589685   -0.690152    1.713418
  C     -4.529621   -2.153494   -0.009351
  C     -2.610926   -3.400796   -3.511603
  H     -1.002062   -2.207597   -2.718029
  C     -4.645242   -3.534911   -2.210858
  C     -4.793224   -0.788955    2.393907
  H     -2.769111   -0.102667    2.106814
  C     -5.725635   -2.240360    0.698010
  C     -3.912505   -3.876053   -3.334690
  H     -2.061559   -3.670331   -4.404486
  H     -5.660160   -3.890423   -2.082543
  C     -5.850012   -1.553213    1.893562
  H     -4.912059   -0.263695    3.332897
  H     -6.544010   -2.837843    0.315588
  H     -4.353707   -4.511136   -4.091869
  H     -6.775549   -1.609406    2.451675
  N      2.436248   -1.395620    0.329783
  C      3.538916   -1.326810   -0.524627
  C      2.789598   -2.146119    1.452772
  C      3.652115   -0.699197   -1.755633
  C      4.597095   -2.058009    0.048314
  C      2.041580   -2.432513    2.584437
  C      4.122921   -2.574886    1.304082
  C      4.868025   -0.803747   -2.412949
  H      2.825345   -0.151250   -2.190084
  C      5.805441   -2.151798   -0.636668
  C      2.648708   -3.190413    3.573261
  H      1.025923   -2.075093    2.697581
  C      4.708381   -3.334162    2.313543
  C      5.933216   -1.519882   -1.861905
  H      4.989935   -0.321943   -3.374566
  H      6.630063   -2.712734   -0.214398
  C      3.964164   -3.641197    3.439716
  H      2.089999   -3.433359    4.468013
  H      5.733198   -3.671243    2.218345
  H      6.867997   -1.582337   -2.403725
  H      4.406893   -4.230536    4.232170
  N     -0.033244    2.760976   -0.024882
  C     -0.780395    3.552863    0.854646
  C      0.678862    3.604330   -0.884200
  C     -1.601310    3.163835    1.902433
  C     -0.541202    4.906652    0.552719
  C      1.515283    3.276323   -1.940331
  C      0.381506    4.939221   -0.550093
  C     -2.211314    4.166030    2.640083
  H     -1.760227    2.120757    2.145555
  C     -1.164329    5.893601    1.311746
  C      2.081122    4.321296   -2.653412
  H      1.717669    2.246720   -2.206568
  C      0.961433    5.969859   -1.284530
  C     -2.000959    5.515323    2.347530
  H     -2.861174    3.892806    3.461472
  H     -0.989945    6.940092    1.094207
  C      1.813028    5.652918   -2.328614
  H      2.741617    4.096086   -3.480827
  H      0.742625    7.002372   -1.041875
  H     -2.493738    6.271764    2.944366
  H      2.272627    6.443827   -2.906953
  Cl     0.047455   -3.158370   -0.000390

 Total Charge           Charge          ....    0
 Multiplicity           Mult            ....    1
 Number of Electrons    NEL             ....  340
 Basis Dimension        Dim             .... 1700

ORBITAL ENERGIES
----------------

  NO   OCC          E(Eh)            E(eV)
   0   2.0000    -103.593559     -2818.9241
   1   2.0000     -15.153036      -412.3351
   2   2.0000     -15.150065      -412.2542
   3   2.0000     -15.149566      -412.2407
   4   2.0000     -15.115466      -411.3127
   5   2.0000     -15.115272      -411.3075
   6   2.0000     -10.941483      -297.7329
   7   2.0000     -10.939773      -297.6864
   8   2.0000     -10.939650      -297.6830
   9   2.0000     -10.931094      -297.4502
  10   2.0000     -10.907837      -296.8173
  11   2.0000     -10.907562      -296.8099
  12   2.0000     -10.898138      -296.5534
  13   2.0000     -10.898001      -296.5497
  14   2.0000     -10.880077      -296.0619
  15   2.0000     -10.880031      -296.0607
  16   2.0000     -10.879234      -296.0390
  17   2.0000     -10.879183      -296.0376
  18   2.0000     -10.879096      -296.0353
  19   2.0000     -10.878901      -296.0299
  20   2.0000     -10.837964      -294.9160
  21   2.0000     -10.837464      -294.9024
  22   2.0000     -10.837356      -294.8994
  23   2.0000     -10.837234      -294.8961
  24   2.0000     -10.836739      -294.8827
  25   2.0000     -10.836629      -294.8797
  26   2.0000     -10.833670      -294.7992
  27   2.0000     -10.833637      -294.7982
  28   2.0000     -10.833635      -294.7982
  29   2.0000     -10.833568      -294.7964
  30   2.0000     -10.833336      -294.7901
  31   2.0000     -10.833333      -294.7900
  32   2.0000     -10.833257      -294.7879
  33   2.0000     -10.833250      -294.7877
  34   2.0000     -10.832804      -294.7756
  35   2.0000     -10.832798      -294.7754
  36   2.0000     -10.832691      -294.7725
  37   2.0000     -10.832585      -294.7696
  38   2.0000     -10.831539      -294.7412
  39   2.0000     -10.831531      -294.7409
  40   2.0000     -10.831521      -294.7407
  41   2.0000     -10.831492      -294.7399
  42   2.0000     -10.831236      -294.7329
  43   2.0000     -10.831209      -294.7322
  44   2.0000     -10.824347      -294.5455
  45   2.0000     -10.824298      -294.5441
  46   2.0000     -10.824057      -294.5376
  47   2.0000     -10.823972      -294.5353
  48   2.0000     -10.823880      -294.5328
  49   2.0000     -10.823810      -294.5308
  50   2.0000     -10.163955      -276.5753
  51   2.0000      -7.745309      -210.7606
  52   2.0000      -7.740729      -210.6359
  53   2.0000      -7.740531      -210.6305
  54   2.0000      -1.227411       -33.3995
  55   2.0000      -1.217124       -33.1196
  56   2.0000      -1.216574       -33.1046
  57   2.0000      -1.133329       -30.8395
  58   2.0000      -1.128545       -30.7093
  59   2.0000      -1.114328       -30.3224
  60   2.0000      -1.073687       -29.2165
  61   2.0000      -1.059905       -28.8415
  62   2.0000      -1.047122       -28.4936
  63   2.0000      -1.042521       -28.3684
  64   2.0000      -1.041993       -28.3541
  65   2.0000      -1.041314       -28.3356
  66   2.0000      -1.031208       -28.0606
  67   2.0000      -0.998525       -27.1712
  68   2.0000      -0.977255       -26.5925
  69   2.0000      -0.960791       -26.1445
  70   2.0000      -0.957977       -26.0679
  71   2.0000      -0.941349       -25.6154
  72   2.0000      -0.929637       -25.2967
  73   2.0000      -0.928967       -25.2785
  74   2.0000      -0.928636       -25.2695
  75   2.0000      -0.911281       -24.7972
  76   2.0000      -0.904085       -24.6014
  77   2.0000      -0.894499       -24.3406
  78   2.0000      -0.889789       -24.2124
  79   2.0000      -0.889471       -24.2037
  80   2.0000      -0.889210       -24.1966
  81   2.0000      -0.841662       -22.9028
  82   2.0000      -0.832633       -22.6571
  83   2.0000      -0.802449       -21.8358
  84   2.0000      -0.784318       -21.3424
  85   2.0000      -0.783723       -21.3262
  86   2.0000      -0.758357       -20.6360
  87   2.0000      -0.754723       -20.5371
  88   2.0000      -0.752122       -20.4663
  89   2.0000      -0.751710       -20.4551
  90   2.0000      -0.741422       -20.1751
  91   2.0000      -0.726605       -19.7719
  92   2.0000      -0.718448       -19.5500
  93   2.0000      -0.717899       -19.5350
  94   2.0000      -0.717380       -19.5209
  95   2.0000      -0.708291       -19.2736
  96   2.0000      -0.688446       -18.7336
  97   2.0000      -0.677702       -18.4412
  98   2.0000      -0.661094       -17.9893
  99   2.0000      -0.648808       -17.6550
 100   2.0000      -0.646232       -17.5849
 101   2.0000      -0.640792       -17.4368
 102   2.0000      -0.639088       -17.3905
 103   2.0000      -0.632842       -17.2205
 104   2.0000      -0.629769       -17.1369
 105   2.0000      -0.620962       -16.8972
 106   2.0000      -0.610918       -16.6239
 107   2.0000      -0.582286       -15.8448
 108   2.0000      -0.578203       -15.7337
 109   2.0000      -0.577862       -15.7244
 110   2.0000      -0.573697       -15.6111
 111   2.0000      -0.569284       -15.4910
 112   2.0000      -0.568976       -15.4826
 113   2.0000      -0.567583       -15.4447
 114   2.0000      -0.565620       -15.3913
 115   2.0000      -0.551747       -15.0138
 116   2.0000      -0.551380       -15.0038
 117   2.0000      -0.548835       -14.9346
 118   2.0000      -0.546093       -14.8599
 119   2.0000      -0.544096       -14.8056
 120   2.0000      -0.541124       -14.7247
 121   2.0000      -0.539597       -14.6832
 122   2.0000      -0.539014       -14.6673
 123   2.0000      -0.538831       -14.6623
 124   2.0000      -0.533542       -14.5184
 125   2.0000      -0.533184       -14.5087
 126   2.0000      -0.527420       -14.3518
 127   2.0000      -0.525010       -14.2862
 128   2.0000      -0.524097       -14.2614
 129   2.0000      -0.522015       -14.2047
 130   2.0000      -0.515879       -14.0378
 131   2.0000      -0.514292       -13.9946
 132   2.0000      -0.489140       -13.3102
 133   2.0000      -0.485685       -13.2161
 134   2.0000      -0.467999       -12.7349
 135   2.0000      -0.467982       -12.7344
 136   2.0000      -0.467639       -12.7251
 137   2.0000      -0.467271       -12.7151
 138   2.0000      -0.466339       -12.6897
 139   2.0000      -0.465456       -12.6657
 140   2.0000      -0.461853       -12.5677
 141   2.0000      -0.457627       -12.4527
 142   2.0000      -0.452438       -12.3115
 143   2.0000      -0.444386       -12.0924
 144   2.0000      -0.444062       -12.0835
 145   2.0000      -0.442753       -12.0479
 146   2.0000      -0.440110       -11.9760
 147   2.0000      -0.438970       -11.9450
 148   2.0000      -0.438443       -11.9307
 149   2.0000      -0.436769       -11.8851
 150   2.0000      -0.435586       -11.8529
 151   2.0000      -0.434681       -11.8283
 152   2.0000      -0.431050       -11.7295
 153   2.0000      -0.429031       -11.6745
 154   2.0000      -0.421506       -11.4698
 155   2.0000      -0.416619       -11.3368
 156   2.0000      -0.359996        -9.7960
 157   2.0000      -0.358793        -9.7632
 158   2.0000      -0.356148        -9.6913
 159   2.0000      -0.347870        -9.4660
 160   2.0000      -0.337791        -9.1918
 161   2.0000      -0.322497        -8.7756
 162   2.0000      -0.321666        -8.7530
 163   2.0000      -0.319658        -8.6983
 164   2.0000      -0.273192        -7.4339
 165   2.0000      -0.272751        -7.4219
 166   2.0000      -0.271806        -7.3962
 167   2.0000      -0.271709        -7.3936
 168   2.0000      -0.271441        -7.3863
 169   2.0000      -0.266625        -7.2552
 170   0.0000      -0.021111        -0.5745
 171   0.0000       0.000333         0.0091
 172   0.0000       0.028718         0.7815
 173   0.0000       0.028834         0.7846
 174   0.0000       0.030689         0.8351

MULLIKEN ATOMIC CHARGES
-----------------------
   0 C :    0.114792
   1 C :   -0.109921
   2 C :    0.100861
   3 C :    0.244415
   4 C :    0.023480
   5 C :    0.231987
   6 C :   -0.161023
   7 C :   -0.158097
   8 N :   -0.157593
   9 N :   -0.156991
  10 N :    0.039583
  11 C :    0.148804
  12 C :    0.152295
  13 C :   -0.286141
  14 C :   -0.001902
  15 C :   -0.293638
  16 C :    0.001192
  17 C :   -0.129070
  18 H :    0.175371
  19 C :   -0.232360
  20 C :   -0.139549
  21 H :    0.183527
  22 C :   -0.229364
  23 C :   -0.174441
  24 H :    0.164695
  25 H :    0.166652
  26 C :   -0.174619
  27 H :    0.164922
  28 H :    0.167655
  29 H :    0.160718
  30 H :    0.160220
  31 N :    0.039827
  32 C :    0.147664
  33 C :    0.147877
  34 C :   -0.295877
  35 C :    0.005592
  36 C :   -0.285354
  37 C :   -0.001198
  38 C :   -0.132411
  39 H :    0.179791
  40 C :   -0.230140
  41 C :   -0.131978
  42 H :    0.175809
  43 C :   -0.234379
  44 C :   -0.174208
  45 H :    0.164970
  46 H :    0.167210
  47 C :   -0.172595
  48 H :    0.164639
  49 H :    0.166681
  50 H :    0.160387
  51 H :    0.160700
  52 N :    0.039194
  53 C :    0.151383
  54 C :    0.154744
  55 C :   -0.296038
  56 C :   -0.006168
  57 C :   -0.300739
  58 C :   -0.008754
  59 C :   -0.131171
  60 H :    0.183845
  61 C :   -0.223740
  62 C :   -0.125461
  63 H :    0.181461
  64 C :   -0.222088
  65 C :   -0.180622
  66 H :    0.165032
  67 H :    0.167487
  68 C :   -0.180568
  69 H :    0.165017
  70 H :    0.167082
  71 H :    0.159692
  72 H :    0.160031
  73 Cl:   -0.039087
Sum of atomic charges:   -0.0000000

LOEWDIN ATOMIC CHARGES
----------------------
   0 C :   -0.082097
   1 C :   -0.345889
   2 C :   -0.081956
   3 C :   -0.061999
   4 C :   -0.038456
   5 C :   -0.063034
   6 C :   -0.110419
   7 C :   -0.111184
   8 N :    0.028059
   9 N :    0.028168
  10 N :    0.305674
  11 C :   -0.119401
  12 C :   -0.112135
  13 C :   -0.129158
  14 C :   -0.085760
  15 C :   -0.118891
  16 C :   -0.085484
  17 C :   -0.139474
  18 H :    0.156608
  19 C :   -0.097871
  20 C :   -0.138381
  21 H :    0.159232
  22 C :   -0.096764
  23 C :   -0.159663
  24 H :    0.152613
  25 H :    0.155940
  26 C :   -0.158998
  27 H :    0.152754
  28 H :    0.156004
  29 H :    0.149947
  30 H :    0.150017
  31 N :    0.304928
  32 C :   -0.112565
  33 C :   -0.119419
  34 C :   -0.119306
  35 C :   -0.085684
  36 C :   -0.129067
  37 C :   -0.085901
  38 C :   -0.138506
  39 H :    0.159116
  40 C :   -0.096913
  41 C :   -0.139444
  42 H :    0.156738
  43 C :   -0.097910
  44 C :   -0.159297
  45 H :    0.152717
  46 H :    0.156003
  47 C :   -0.159829
  48 H :    0.152598
  49 H :    0.155901
  50 H :    0.149994
  51 H :    0.149908
  52 N :    0.314818
  53 C :   -0.108314
  54 C :   -0.108909
  55 C :   -0.117990
  56 C :   -0.084352
  57 C :   -0.118270
  58 C :   -0.084370
  59 C :   -0.137884
  60 H :    0.159480
  61 C :   -0.096245
  62 C :   -0.137907
  63 H :    0.159579
  64 C :   -0.096259
  65 C :   -0.157603
  66 H :    0.152947
  67 H :    0.156167
  68 C :   -0.157704
  69 H :    0.152918
  70 H :    0.156173
  71 H :    0.150195
  72 H :    0.150178
  73 Cl:    0.501294

  Mayer bond orders larger than 0.100000
B(  0-C ,  1-C ) :   1.2943 B(  0-C ,  5-C ) :   1.3216 B(  0-C , 10-N ) :   1.0144
B(  1-C ,  2-C ) :   1.2934 B(  1-C , 73-Cl) :   1.3020 B(  2-C ,  3-C ) :   1.3368
B(  2-C , 31-N ) :   1.0010 B(  3-C ,  4-C ) :   1.3898 B(  3-C ,  6-C ) :   0.9643
B(  4-C ,  5-C ) :   1.3679 B(  4-C , 52-N ) :   1.0983 B(  5-C ,  7-C ) :   0.9666
B(  6-C ,  8-N ) :   2.9978 B(  7-C ,  9-N ) :   2.9988 B( 10-N , 11-C ) :   1.0599
B( 10-N , 12-C ) :   1.0550 B( 11-C , 13-C ) :   1.3828 B( 11-C , 14-C ) :   1.3351
B( 12-C , 15-C ) :   1.3964 B( 12-C , 16-C ) :   1.3144 B( 13-C , 17-C ) :   1.4387
B( 13-C , 18-H ) :   0.9687 B( 14-C , 16-C ) :   1.0409 B( 14-C , 19-C ) :   1.3210
B( 15-C , 20-C ) :   1.4351 B( 15-C , 21-H ) :   0.9669 B( 16-C , 22-C ) :   1.3190
B( 17-C , 23-C ) :   1.3571 B( 17-C , 24-H ) :   0.9779 B( 19-C , 23-C ) :   1.4749
B( 19-C , 25-H ) :   0.9810 B( 20-C , 26-C ) :   1.3528 B( 20-C , 27-H ) :   0.9786
B( 22-C , 26-C ) :   1.4693 B( 22-C , 28-H ) :   0.9805 B( 23-C , 29-H ) :   0.9862
B( 26-C , 30-H ) :   0.9893 B( 31-N , 32-C ) :   1.0582 B( 31-N , 33-C ) :   1.0573
B( 32-C , 34-C ) :   1.3903 B( 32-C , 35-C ) :   1.3105 B( 33-C , 36-C ) :   1.3847
B( 33-C , 37-C ) :   1.3369 B( 34-C , 38-C ) :   1.4333 B( 34-C , 39-H ) :   0.9720
B( 35-C , 37-C ) :   1.0427 B( 35-C , 40-C ) :   1.3193 B( 36-C , 41-C ) :   1.4389
B( 36-C , 42-H ) :   0.9685 B( 37-C , 43-C ) :   1.3200 B( 38-C , 44-C ) :   1.3549
B( 38-C , 45-H ) :   0.9782 B( 40-C , 44-C ) :   1.4694 B( 40-C , 46-H ) :   0.9808
B( 41-C , 47-C ) :   1.3573 B( 41-C , 48-H ) :   0.9778 B( 43-C , 47-C ) :   1.4749
B( 43-C , 49-H ) :   0.9811 B( 44-C , 50-H ) :   0.9883 B( 47-C , 51-H ) :   0.9862
B( 52-N , 53-C ) :   1.0492 B( 52-N , 54-C ) :   1.0518 B( 53-C , 55-C ) :   1.4133
B( 53-C , 56-C ) :   1.3251 B( 54-C , 57-C ) :   1.4045 B( 54-C , 58-C ) :   1.3239
B( 55-C , 59-C ) :   1.4396 B( 55-C , 60-H ) :   0.9614 B( 56-C , 58-C ) :   1.0481
B( 56-C , 61-C ) :   1.3105 B( 57-C , 62-C ) :   1.4359 B( 57-C , 63-H ) :   0.9661
B( 58-C , 64-C ) :   1.3136 B( 59-C , 65-C ) :   1.3461 B( 59-C , 66-H ) :   0.9794
B( 61-C , 65-C ) :   1.4640 B( 61-C , 67-H ) :   0.9815 B( 62-C , 68-C ) :   1.3485
B( 62-C , 69-H ) :   0.9791 B( 64-C , 68-C ) :   1.4652 B( 64-C , 70-H ) :   0.9818
B( 65-C , 71-H ) :   0.9909 B( 68-C , 72-H ) :   0.9891

MP2 TOTAL ENERGY:    -2423.075766920 Eh

-----------------------------------------------------------------------------
         ABSORPTION SPECTRUM VIA TRANSITION ELECTRIC DIPOLE MOMENTS
-----------------------------------------------------------------------------
State   Energy    Wavelength  fosc         T2        TX        TY        TZ
        (cm-1)      (nm)                 (au**2)    (au)      (au)      (au)
-----------------------------------------------------------------------------
   1   11249.6    888.9   0.078833968   2.30702   1.48846   0.07415   0.29328
   2   15191.4    658.3   0.035574743   0.77094  -0.02718   0.87746  -0.01621
   3   17241.4    580.0   0.119859227   2.28862  -0.06664   1.51135   0.00120
   4   11961.9    836.0   0.003625914   0.09979   0.18168   0.25682  -0.02874
   5   15644.7    639.2   0.004305471   0.09060   0.06035  -0.03246  -0.29310
   6   15794.8    633.1   0.001334518   0.02782   0.01299   0.14714  -0.07743
   7   22087.4    452.7   0.126427196   1.88439   1.14531  -0.00834   0.75670
   8   22667.8    441.2   0.077544733   1.12621  -0.00813  -1.06112  -0.01274
   9   32311.6    309.5   0.046065529   0.46935  -0.11221  -0.08141  -0.67091
  10   28974.4    345.1   0.019191351   0.21806   0.06835   0.33693  -0.31601
  11   26812.2    373.0   0.054712414   0.67178  -0.00425  -0.80873  -0.13311
  12   32720.4    305.6   0.608593348   6.12329  -1.29755  -0.01962   2.10696
  13   14194.8    704.5   0.004106150   0.09523  -0.04109   0.30271   0.04367
  14   18057.1    553.8   0.060555391   1.10403   0.90184   0.00980  -0.53908
  15   19091.0    523.8   0.019902080   0.34320  -0.50607  -0.00143   0.29511
  16   14774.5    676.8   0.000196532   0.00438  -0.04657  -0.03655   0.02958
  17   22954.0    435.7   0.161677194   2.31881   1.51501  -0.01108   0.15304
  18   27426.2    364.6   0.033694756   0.40446  -0.11029   0.62519   0.03782
  19   27397.1    365.0   0.033536376   0.40298  -0.03130  -0.63320   0.03261
  20   18786.5    532.3   0.016298383   0.28561  -0.46361  -0.06286   0.25831
  21   32628.4    306.5   0.032369755   0.32660  -0.05072  -0.45939   0.33615
  22   32452.7    308.1   0.074324960   0.75398   0.09065  -0.21556  -0.83624
  23   33117.9    302.0   0.136422566   1.35612   0.69723   0.02818  -0.93231
  24   23882.5    418.7   0.142590593   1.96556   0.46978  -0.16444  -1.31066
  25   25324.7    394.9   0.087156807   1.13301   0.05022   1.05472  -0.13438
  26   36292.4    275.5   0.837568634   7.59767   0.24261   2.74568   0.00697
  27   37827.5    264.4   0.688858676   5.99513   2.43265  -0.19550   0.19775
  28   29780.8    335.8   0.007033894   0.07776   0.09940   0.26043  -0.00725
  29   35180.9    284.2   0.372879596   3.48929   0.62281  -0.11777  -1.75713
  30   37696.0    265.3   0.079372958   0.69319  -0.04987   0.62959  -0.54252
  31   37414.6    267.3   0.475391128   4.18298  -1.15441  -0.07018  -1.68683
  32   34070.7    293.5   0.040941770   0.39560  -0.02882  -0.62007   0.10140
  33   33559.2    298.0   0.353520399   3.46800  -0.19263  -1.82310   0.32742
  34   34798.1    287.4   1.345267168  12.72709   2.22945  -0.23893  -2.77481
  35   40553.2    246.6   0.211214758   1.71465   1.30685   0.04610   0.06825
  36   41385.1    241.6   0.032911095   0.26180   0.01860  -0.51119   0.01180
  37   42664.2    234.4   0.003564083   0.02750   0.01947  -0.16329  -0.02144
  38   34660.5    288.5   0.057024177   0.54163  -0.30878   0.00522   0.66802
  39   47320.0    211.3   0.000343813   0.00239  -0.01998  -0.04455  -0.00288
  40   43761.6    228.5   0.024206592   0.18210   0.35284  -0.00423  -0.23998
  41   42010.7    238.0   0.069682816   0.54606   0.09773   0.20941  -0.70189
  42   43279.7    231.1   0.067751610   0.51536  -0.01547   0.68007   0.22941
  43   30799.1    324.7   0.039854502   0.42601   0.56052   0.01355  -0.33413
  44   28273.6    353.7   0.001187779   0.01383  -0.03836   0.10587   0.03391
  45   42132.4    237.3   0.384715827   3.00607   1.18529  -0.00913  -1.26533
  46   31163.9    320.9   0.011555340   0.12207  -0.06254  -0.33598   0.07266
  47   33260.3    300.7   0.019549118   0.19350  -0.40506   0.06285   0.15961
  48   27032.9    369.9   0.006571081   0.08002  -0.04070  -0.27246  -0.06430
  49   30628.5    326.5   0.010016374   0.10766  -0.13370   0.03951  -0.29702
  50   32392.9    308.7   0.016789510   0.17063   0.36840  -0.00145   0.18685
  51   36185.7    276.4   0.024432970   0.22229   0.47133  -0.00881  -0.00762
  52   38609.0    259.0   0.001489296   0.01270   0.02851   0.10821  -0.01326
  53   31500.9    317.5   0.000841359   0.00879  -0.01492   0.08118   0.04450
  54   31745.4    315.0   0.000048110   0.00050  -0.02182  -0.00059  -0.00472
  55   36975.9    270.4   0.004574014   0.04072   0.03475   0.19875   0.00394
  56   32748.9    305.4   0.000782917   0.00787  -0.04787   0.07061  -0.02435
  57   31258.9    319.9   0.000164856   0.00174   0.01474  -0.03462  -0.01789
  58   32441.6    308.2   0.001111807   0.01128   0.06108   0.01967  -0.08464
  59   32348.0    309.1   0.000083885   0.00085   0.01194   0.01424  -0.02255
  60   32355.9    309.1   0.000158386   0.00161   0.01209  -0.01945  -0.03297

Dispersion correction           -0.087644425
FINAL SINGLE POINT ENERGY     -2419.182192537882

DIPOLE MOMENT
-------------
                                X             Y             Z
Electronic contribution:      0.19853      -7.52360      -0.32809
Nuclear contribution   :     -0.20118       6.09592       0.34197
                        -----------------------------------------
Total Dipole Moment    :     -0.00265      -1.42768       0.01388
                        -----------------------------------------
Magnitude (a.u.)       :      1.42775
Magnitude (Debye)      :      3.62906

Rotational constants in cm-1:     0.002146     0.002013     0.001365
Rotational constants in MHz :    64.345159    60.335456    40.912206

                             ****ORCA TERMINATED NORMALLY****
TOTAL RUN TIME: 2 days 12 hours 40 minutes 48 seconds 795 msec
