 Gaussian 09, Revision E.01,
 Gaussian 09:  ES64L-G09RevE.01 30-Nov-2015

 ----------------------------------------------------------------------
 #p TPSSTPSS/def2TZVP td=(NStates=50) int=ultrafine scrf=(SMD,solvent=A
 cetonitrile)
 ----------------------------------------------------------------------

 -----
 Title
 -----
 Symbolic Z-matrix:
 Charge =  0 Multiplicity = 1

                         Standard orientation:
 ---------------------------------------------------------------------
 Center     Atomic      Atomic             Coordinates (Angstroms)
 Number     Number       Type             X           Y           Z
 ---------------------------------------------------------------------
      1          6           0        1.317187   -0.477140    0.160609
      2          6           0        0.242704   -1.370199    0.021936
      3          6           0       -1.070902   -0.897340   -0.136485
      4          6           0       -1.299065    0.495853   -0.166957
      5          6           0       -0.242106    1.411804   -0.007207
      6          6           0        1.062724    0.911374    0.162169
      7          6           0       -2.613595    0.978853   -0.441196
      8          6           0        2.139089    1.814286    0.410845
      9          7           0       -3.678389    1.373073   -0.686239
     10          7           0        3.010339    2.549803    0.632667
     11          7           0        2.636876   -0.943545    0.341578
     12          6           0        3.150113   -1.513226    1.519138
     13          6           0        3.649557   -0.937315   -0.634072
     14          6           0        2.520221   -1.709835    2.748557
     15          6           0        4.505004   -1.866682    1.295878
     16          6           0        3.595690   -0.499906   -1.957869
     17          6           0        4.821009   -1.503847   -0.070262
     18          6           0        3.275725   -2.288320    3.768341
     19          1           0        1.484984   -1.423927    2.910438
     20          6           0        5.241386   -2.442834    2.340023
     21          6           0        4.757273   -0.623839   -2.720215
     22          1           0        2.688668   -0.081065   -2.383293
     23          6           0        5.973003   -1.617987   -0.860362
     24          6           0        4.619241   -2.652468    3.568813
     25          1           0        2.813641   -2.457539    4.737218
     26          1           0        6.282045   -2.719202    2.192555
     27          6           0        5.933340   -1.173304   -2.180052
     28          1           0        4.748348   -0.289427   -3.754125
     29          1           0        6.881547   -2.050011   -0.449252
     30          1           0        5.177758   -3.099834    4.386424
     31          1           0        6.819528   -1.255087   -2.803419
     32          7           0       -2.151580   -1.785520   -0.310900
     33          6           0       -3.154897   -2.058595    0.637019
     34          6           0       -2.399009   -2.554594   -1.461370
     35          6           0       -3.308327   -1.554420    1.928736
     36          6           0       -4.047896   -3.011505    0.084739
     37          6           0       -1.691105   -2.591898   -2.663055
     38          6           0       -3.570841   -3.322904   -1.247141
     39          6           0       -4.397360   -2.013890    2.669580
     40          1           0       -2.611194   -0.834295    2.346042
     41          6           0       -5.131580   -3.458076    0.852996
     42          6           0       -2.172920   -3.437295   -3.662386
     43          1           0       -0.803103   -1.986970   -2.821064
     44          6           0       -4.034422   -4.161208   -2.270148
     45          6           0       -5.300260   -2.952541    2.140206
     46          1           0       -4.546040   -1.637747    3.678168
     47          1           0       -5.826959   -4.189744    0.450318
     48          6           0       -3.328532   -4.214991   -3.470078
     49          1           0       -1.642954   -3.491174   -4.609546
     50          1           0       -4.932602   -4.756645   -2.129499
     51          1           0       -6.136726   -3.289487    2.746289
     52          1           0       -3.676386   -4.860982   -4.271479
     53          7           0       -0.485690    2.799322   -0.019162
     54          6           0       -0.058768    3.703356   -1.011509
     55          6           0       -1.206621    3.514264    0.956979
     56          6           0        0.652512    3.453654   -2.185531
     57          6           0       -0.512201    5.000570   -0.664151
     58          6           0       -1.789573    3.051501    2.136964
     59          6           0       -1.236228    4.881308    0.584556
     60          6           0        0.925930    4.543181   -3.012469
     61          1           0        0.981439    2.454394   -2.453652
     62          6           0       -0.225888    6.076816   -1.514774
     63          6           0       -2.431149    3.990246    2.944903
     64          1           0       -1.746628    2.005296    2.423395
     65          6           0       -1.885281    5.803626    1.416392
     66          6           0        0.496009    5.840213   -2.682359
     67          1           0        1.481379    4.380878   -3.932198
     68          1           0       -0.566323    7.078842   -1.267740
     69          6           0       -2.482632    5.349538    2.590026
     70          1           0       -2.897785    3.659901    3.868941
     71          1           0       -1.917704    6.856764    1.150268
     72          1           0        0.726162    6.665315   -3.350782
     73          1           0       -2.990386    6.053096    3.244028
     74         17           0        0.539356   -3.068765    0.051048
 ---------------------------------------------------------------------

 SCF Done:  E(RTPSS-TPSS) =  -2426.24880420     A.U. after   16 cycles

 Excitation energies and oscillator strengths:

 Excited State   1:      Singlet-A      1.9615 eV  632.10 nm  f=0.0486  <S**2>=0.000
     170 -> 171        0.70563
 This state for optimization and/or second-order correction.
 Total Energy, E(TD-HF/TD-KS) =  -2426.17672122
 Copying the excited state density for this state as the 1-particle RhoCI density.

 Excited State   2:      Singlet-A      2.0974 eV  591.12 nm  f=0.0050  <S**2>=0.000
     168 -> 171        0.52345
     169 -> 171        0.47447

 Excited State   3:      Singlet-A      2.1244 eV  583.63 nm  f=0.0323  <S**2>=0.000
     168 -> 171       -0.47374
     169 -> 171        0.52111

 Excited State   4:      Singlet-A      2.2581 eV  549.07 nm  f=0.0007  <S**2>=0.000
     167 -> 171        0.70656

 Excited State   5:      Singlet-A      2.2662 eV  547.10 nm  f=0.0008  <S**2>=0.000
     165 -> 171       -0.11029
     166 -> 171        0.69806

 Excited State   6:      Singlet-A      2.2718 eV  545.74 nm  f=0.0001  <S**2>=0.000
     165 -> 171        0.69743
     166 -> 171        0.11025

 Excited State   7:      Singlet-A      2.4249 eV  511.29 nm  f=0.0019  <S**2>=0.000
     168 -> 172       -0.10929
     170 -> 172        0.69074

 Excited State   8:      Singlet-A      2.5560 eV  485.08 nm  f=0.0362  <S**2>=0.000
     168 -> 172       -0.28108
     169 -> 172        0.64601

 Excited State   9:      Singlet-A      2.5812 eV  480.33 nm  f=0.0776  <S**2>=0.000
     168 -> 172        0.63848
     169 -> 172        0.27071
     170 -> 172        0.13191

 Excited State  10:      Singlet-A      2.7097 eV  457.55 nm  f=0.0004  <S**2>=0.000
     167 -> 172        0.70644

 Excited State  11:      Singlet-A      2.7178 eV  456.19 nm  f=0.0010  <S**2>=0.000
     166 -> 172        0.70263

 Excited State  12:      Singlet-A      2.7311 eV  453.98 nm  f=0.0001  <S**2>=0.000
     165 -> 172        0.70278

 Excited State  13:      Singlet-A      3.1428 eV  394.51 nm  f=0.0032  <S**2>=0.000
     164 -> 171        0.70608

 Excited State  14:      Singlet-A      3.1738 eV  390.64 nm  f=0.0111  <S**2>=0.000
     163 -> 171        0.70035

 Excited State  15:      Singlet-A      3.1803 eV  389.86 nm  f=0.0000  <S**2>=0.000
     162 -> 171        0.70007

 Excited State  16:      Singlet-A      3.4691 eV  357.40 nm  f=0.0054  <S**2>=0.000
     168 -> 173       -0.16318
     169 -> 173       -0.13074
     170 -> 173        0.65374

 Excited State  17:      Singlet-A      3.4815 eV  356.13 nm  f=0.0060  <S**2>=0.000
     168 -> 173        0.12333
     168 -> 174        0.12783
     169 -> 175       -0.18237
     170 -> 174        0.63424
     170 -> 175        0.11734

 Excited State  18:      Singlet-A      3.5036 eV  353.88 nm  f=0.0015  <S**2>=0.000
     169 -> 174       -0.26686
     169 -> 175        0.12274
     170 -> 174       -0.11223
     170 -> 175        0.62059

 Excited State  19:      Singlet-A      3.5864 eV  345.71 nm  f=0.0002  <S**2>=0.000
     168 -> 173       -0.22975
     168 -> 174        0.27747
     169 -> 173        0.60165

 Excited State  20:      Singlet-A      3.5937 eV  345.00 nm  f=0.0006  <S**2>=0.000
     164 -> 172        0.70577

 Excited State  21:      Singlet-A      3.5973 eV  344.66 nm  f=0.0010  <S**2>=0.000
     168 -> 173        0.25996
     168 -> 174        0.35018
     169 -> 174        0.41159
     169 -> 175        0.37065

 Excited State  22:      Singlet-A      3.6121 eV  343.25 nm  f=0.0017  <S**2>=0.000
     168 -> 174       -0.34866
     168 -> 175        0.55710
     169 -> 173        0.14520
     169 -> 174        0.16039
     169 -> 175        0.10256

 Excited State  23:      Singlet-A      3.6264 eV  341.89 nm  f=0.0062  <S**2>=0.000
     162 -> 172       -0.42225
     163 -> 172        0.56645

 Excited State  24:      Singlet-A      3.6347 eV  341.11 nm  f=0.0007  <S**2>=0.000
     162 -> 172        0.56563
     163 -> 172        0.42069

 Excited State  25:      Singlet-A      3.7609 eV  329.66 nm  f=0.0005  <S**2>=0.000
     167 -> 173        0.69487

 Excited State  26:      Singlet-A      3.7700 eV  328.87 nm  f=0.0004  <S**2>=0.000
     165 -> 173        0.14954
     166 -> 173        0.59108
     166 -> 174       -0.30671
     167 -> 174        0.14413

 Excited State  27:      Singlet-A      3.7775 eV  328.21 nm  f=0.0004  <S**2>=0.000
     165 -> 173       -0.11785
     165 -> 174       -0.28449
     166 -> 174        0.20431
     167 -> 174        0.44741
     167 -> 175        0.39220

 Excited State  28:      Singlet-A      3.7789 eV  328.10 nm  f=0.0002  <S**2>=0.000
     165 -> 173        0.13862
     165 -> 174        0.57234
     166 -> 173       -0.13353
     167 -> 174        0.22704
     167 -> 175        0.22855

 Excited State  29:      Singlet-A      3.7898 eV  327.15 nm  f=0.0005  <S**2>=0.000
     166 -> 173       -0.15627
     166 -> 174       -0.36092
     166 -> 175        0.53428

 Excited State  30:      Singlet-A      3.7908 eV  327.06 nm  f=0.0033  <S**2>=0.000
     158 -> 171        0.32677
     159 -> 171       -0.19051
     161 -> 171        0.46722
     165 -> 175       -0.15483
     168 -> 174        0.10548
     168 -> 175        0.10226
     169 -> 175       -0.19738

 Excited State  31:      Singlet-A      3.8023 eV  326.08 nm  f=0.0143  <S**2>=0.000
     158 -> 171        0.12833
     161 -> 171        0.19785
     165 -> 173        0.20401
     165 -> 175        0.59766
     169 -> 175        0.11665

 Excited State  32:      Singlet-A      3.8114 eV  325.30 nm  f=0.0236  <S**2>=0.000
     160 -> 171        0.27060
     165 -> 174       -0.13058
     168 -> 174       -0.21765
     168 -> 175       -0.24983
     169 -> 173        0.11112
     169 -> 174        0.36632
     169 -> 175       -0.22700
     170 -> 173        0.11595
     170 -> 175        0.21372

 Excited State  33:      Singlet-A      3.8151 eV  324.98 nm  f=0.0331  <S**2>=0.000
     168 -> 173        0.50501
     168 -> 175       -0.15174
     169 -> 173        0.24086
     169 -> 174       -0.16652
     170 -> 173        0.18193
     170 -> 175       -0.13445

 Excited State  34:      Singlet-A      3.8232 eV  324.29 nm  f=0.0842  <S**2>=0.000
     158 -> 171        0.15069
     159 -> 171        0.18537
     161 -> 171        0.23875
     165 -> 175       -0.20059
     168 -> 173       -0.12285
     168 -> 174       -0.22576
     168 -> 175       -0.21029
     169 -> 173        0.10701
     169 -> 175        0.37429
     170 -> 174        0.20206

 Excited State  35:      Singlet-A      3.8627 eV  320.98 nm  f=0.0110  <S**2>=0.000
     158 -> 171        0.15544
     159 -> 171        0.59661
     160 -> 171       -0.23666
     169 -> 175       -0.17133

 Excited State  36:      Singlet-A      3.8723 eV  320.18 nm  f=0.0182  <S**2>=0.000
     157 -> 171       -0.16412
     159 -> 171        0.23730
     160 -> 171        0.56497
     168 -> 174        0.12304
     168 -> 175        0.12116
     169 -> 174       -0.16459
     170 -> 175       -0.11386

 Excited State  37:      Singlet-A      4.0212 eV  308.33 nm  f=0.0446  <S**2>=0.000
     157 -> 172       -0.18287
     158 -> 171        0.46322
     160 -> 172       -0.11740
     161 -> 171       -0.28501
     170 -> 176       -0.37972

 Excited State  38:      Singlet-A      4.0322 eV  307.49 nm  f=0.0026  <S**2>=0.000
     157 -> 172       -0.11577
     158 -> 171        0.28923
     161 -> 171       -0.18400
     170 -> 176        0.59077

 Excited State  39:      Singlet-A      4.1670 eV  297.54 nm  f=0.0023  <S**2>=0.000
     165 -> 173       -0.14972
     168 -> 176        0.29043
     169 -> 176        0.61678

 Excited State  40:      Singlet-A      4.1740 eV  297.04 nm  f=0.0011  <S**2>=0.000
     165 -> 173       -0.10599
     168 -> 176        0.60882
     169 -> 176       -0.32353

 Excited State  41:      Singlet-A      4.2262 eV  293.37 nm  f=0.0212  <S**2>=0.000
     166 -> 173       -0.11378
     166 -> 174       -0.27174
     166 -> 175       -0.12308
     167 -> 174       -0.26282
     167 -> 175        0.39324
     170 -> 178        0.30432

 Excited State  42:      Singlet-A      4.2290 eV  293.18 nm  f=0.1043  <S**2>=0.000
     165 -> 173       -0.11141
     165 -> 175        0.14092
     166 -> 173        0.21031
     166 -> 174        0.23872
     166 -> 175        0.29192
     167 -> 174       -0.24827
     167 -> 175        0.15391
     168 -> 176       -0.11547
     170 -> 177        0.32126
     170 -> 179       -0.11333

 Excited State  43:      Singlet-A      4.2516 eV  291.62 nm  f=0.2451  <S**2>=0.000
     165 -> 173        0.45770
     165 -> 174       -0.11772
     165 -> 175       -0.13972
     166 -> 174        0.11204
     166 -> 175        0.14936
     168 -> 176        0.14277
     168 -> 177       -0.12316
     170 -> 177       -0.14054
     170 -> 179       -0.30173

 Excited State  44:      Singlet-A      4.2718 eV  290.24 nm  f=0.0079  <S**2>=0.000
     158 -> 172        0.42056
     159 -> 172       -0.33636
     161 -> 172        0.44293

 Excited State  45:      Singlet-A      4.3127 eV  287.49 nm  f=0.0126  <S**2>=0.000
     157 -> 172       -0.21368
     160 -> 172        0.65785

 Excited State  46:      Singlet-A      4.3210 eV  286.93 nm  f=0.0130  <S**2>=0.000
     158 -> 172        0.30693
     159 -> 172        0.59562
     161 -> 172        0.13607
     165 -> 176       -0.12972

 Excited State  47:      Singlet-A      4.3484 eV  285.13 nm  f=0.0024  <S**2>=0.000
     166 -> 176       -0.15174
     167 -> 176        0.58799
     170 -> 177       -0.28368
     170 -> 179        0.11497

 Excited State  48:      Singlet-A      4.3514 eV  284.93 nm  f=0.0014  <S**2>=0.000
     165 -> 176        0.10327
     166 -> 176        0.45695
     167 -> 176        0.26837
     168 -> 178       -0.10191
     168 -> 179       -0.10136
     169 -> 177       -0.13514
     170 -> 177        0.27397
     170 -> 178       -0.28278

 Excited State  49:      Singlet-A      4.3635 eV  284.14 nm  f=0.0033  <S**2>=0.000
     165 -> 173        0.13772
     166 -> 176       -0.33359
     167 -> 176        0.14865
     168 -> 177       -0.13865
     168 -> 178       -0.10510
     168 -> 179       -0.19007
     169 -> 177       -0.13279
     169 -> 179       -0.12207
     170 -> 177        0.35166
     170 -> 178        0.15000
     170 -> 179        0.25919

 Excited State  50:      Singlet-A      4.3724 eV  283.56 nm  f=0.0162  <S**2>=0.000
     165 -> 176        0.58353
     166 -> 176       -0.23646
     168 -> 177        0.11666
     170 -> 178       -0.18464

 The electronic state is 1-A.
 Alpha  occ. eigenvalues -- -101.02214 -14.16940 -14.16762 -14.16666 -14.12382
 Alpha  occ. eigenvalues --  -14.12363 -10.09103 -10.09039 -10.08966 -10.08934
 Alpha  occ. eigenvalues --  -10.07022 -10.06995 -10.04969 -10.04954 -10.03557
 Alpha  occ. eigenvalues --  -10.03547 -10.03523 -10.03483 -10.03458 -10.03431
 Alpha  occ. eigenvalues --   -9.99901  -9.99877  -9.99870  -9.99846  -9.99833
 Alpha  occ. eigenvalues --   -9.99809  -9.99509  -9.99506  -9.99476  -9.99466
 Alpha  occ. eigenvalues --   -9.99442  -9.99435  -9.99295  -9.99292  -9.99285
 Alpha  occ. eigenvalues --   -9.99284  -9.99263  -9.99262  -9.99136  -9.99130
 Alpha  occ. eigenvalues --   -9.99121  -9.99118  -9.99098  -9.99097  -9.98618
 Alpha  occ. eigenvalues --   -9.98615  -9.98597  -9.98588  -9.98567  -9.98561
 Alpha  occ. eigenvalues --   -9.27203  -7.05203  -7.04152  -7.04049  -0.95198
 Alpha  occ. eigenvalues --   -0.94330  -0.94260  -0.87336  -0.86674  -0.85965
 Alpha  occ. eigenvalues --   -0.82844  -0.81017  -0.80118  -0.79305  -0.79263
 Alpha  occ. eigenvalues --   -0.79228  -0.78671  -0.76325  -0.74498  -0.72711
 Alpha  occ. eigenvalues --   -0.72630  -0.71387  -0.70165  -0.70114  -0.70075
 Alpha  occ. eigenvalues --   -0.69015  -0.68208  -0.67832  -0.66855  -0.66832
 Alpha  occ. eigenvalues --   -0.66803  -0.63699  -0.63197  -0.60527  -0.58859
 Alpha  occ. eigenvalues --   -0.58691  -0.56840  -0.56499  -0.56407  -0.56357
 Alpha  occ. eigenvalues --   -0.55923  -0.54327  -0.53402  -0.53385  -0.53348
 Alpha  occ. eigenvalues --   -0.53188  -0.51744  -0.50666  -0.49559  -0.48520
 Alpha  occ. eigenvalues --   -0.48090  -0.47746  -0.47692  -0.46895  -0.46488
 Alpha  occ. eigenvalues --   -0.45950  -0.45140  -0.42765  -0.42422  -0.42170
 Alpha  occ. eigenvalues --   -0.41829  -0.41801  -0.41617  -0.41601  -0.41191
 Alpha  occ. eigenvalues --   -0.40078  -0.40043  -0.39935  -0.39688  -0.39564
 Alpha  occ. eigenvalues --   -0.39273  -0.39002  -0.38958  -0.38522  -0.38482
 Alpha  occ. eigenvalues --   -0.38447  -0.38337  -0.37901  -0.37746  -0.37722
 Alpha  occ. eigenvalues --   -0.36235  -0.35908  -0.35160  -0.34929  -0.33487
 Alpha  occ. eigenvalues --   -0.33181  -0.33070  -0.33046  -0.33005  -0.32967
 Alpha  occ. eigenvalues --   -0.32929  -0.32872  -0.32805  -0.32591  -0.32449
 Alpha  occ. eigenvalues --   -0.31607  -0.30881  -0.30789  -0.30684  -0.30558
 Alpha  occ. eigenvalues --   -0.30536  -0.30503  -0.30337  -0.30298  -0.30186
 Alpha  occ. eigenvalues --   -0.29716  -0.26968  -0.26470  -0.26292  -0.26235
 Alpha  occ. eigenvalues --   -0.25583  -0.23797  -0.23787  -0.23660  -0.20479
 Alpha  occ. eigenvalues --   -0.20452  -0.20423  -0.19797  -0.19766  -0.19240
 Alpha virt. eigenvalues --   -0.12139  -0.10473  -0.06600  -0.06584  -0.06487
 Alpha virt. eigenvalues --   -0.04453  -0.03430  -0.03373  -0.03308  -0.02784
 Alpha virt. eigenvalues --   -0.02029  -0.01997  -0.01746  -0.01628  -0.01261

 Mulliken charges:
               1
     1  C    0.096424
     2  C   -0.060408
     3  C    0.119379
     4  C    0.176448
     5  C    0.043931
     6  C    0.193157
     7  C   -0.212285
     8  C   -0.221764
     9  N   -0.018501
    10  N   -0.018338
    11  N    0.096709
    12  C    0.104334
    13  C    0.117322
    14  C   -0.255596
    15  C    0.014807
    16  C   -0.261487
    17  C    0.009808
    18  C   -0.114137
    19  H    0.139951
    20  C   -0.231549
    21  C   -0.117887
    22  H    0.151250
    23  C   -0.233174
    24  C   -0.137191
    25  H    0.142460
    26  H    0.137953
    27  C   -0.137960
    28  H    0.141232
    29  H    0.137951
    30  H    0.138652
    31  H    0.138312
    32  N    0.099299
    33  C    0.115022
    34  C    0.098852
    35  C   -0.258587
    36  C    0.006763
    37  C   -0.248137
    38  C    0.007574
    39  C   -0.116333
    40  H    0.150183
    41  C   -0.230997
    42  C   -0.113595
    43  H    0.142846
    44  C   -0.229239
    45  C   -0.138635
    46  H    0.141382
    47  H    0.138184
    48  C   -0.138153
    49  H    0.142652
    50  H    0.138070
    51  H    0.138336
    52  H    0.138727
    53  N    0.112634
    54  C    0.106993
    55  C    0.105982
    56  C   -0.259854
    57  C    0.001069
    58  C   -0.258323
    59  C    0.001402
    60  C   -0.107433
    61  H    0.145852
    62  C   -0.226441
    63  C   -0.108907
    64  H    0.146524
    65  C   -0.225930
    66  C   -0.141660
    67  H    0.141998
    68  H    0.138300
    69  C   -0.141164
    70  H    0.141807
    71  H    0.138402
    72  H    0.138403
    73  H    0.138389
    74  Cl  -0.052058
 Sum of Mulliken charges =  -0.00000

 Dipole moment (field-independent basis, Debye):
    X=              0.4801    Y=             -3.6749    Z=              0.0371  Tot=              3.7063
 Quadrupole moment (field-independent basis, Debye-Ang):
   XX=           -305.7124   YY=           -288.5733   ZZ=           -261.8865
   XY=             -3.4715   XZ=            -19.6435   YZ=             -2.3988

 Normal termination of Gaussian 09 at Sat Jul  2 15:03:03 2022.
