 Gaussian 09, Revision E.01,
 Gaussian 09:  ES64L-G09RevE.01 30-Nov-2015

 ----------------------------------------------------------------------
 #p b3lyp/def2TZVP td=(NStates=50) int=ultrafine scrf=(SMD,solvent=Acet
 onitrile) EmpiricalDispersion=GD3BJ
 ----------------------------------------------------------------------

 -----
 Title
 -----
 Symbolic Z-matrix:
 Charge =  0 Multiplicity = 1

                         Standard orientation:
 ---------------------------------------------------------------------
 Center     Atomic      Atomic             Coordinates (Angstroms)
 Number     Number       Type             X           Y           Z
 ---------------------------------------------------------------------
      1          6           0        1.215527   -0.711789    0.174211
      2          6           0        0.028430   -1.429722    0.009608
      3          6           0       -1.184767   -0.759878   -0.170768
      4          6           0       -1.196333    0.643097   -0.205935
      5          6           0       -0.025171    1.382153   -0.008488
      6          6           0        1.174120    0.690890    0.191632
      7          6           0       -2.412168    1.317195   -0.516397
      8          6           0        2.365258    1.413703    0.486585
      9          7           0       -3.390698    1.861569   -0.781202
     10          7           0        3.324334    1.997154    0.739067
     11          7           0        2.443364   -1.360144    0.351883
     12          6           0        2.841480   -2.072992    1.487506
     13          6           0        3.494567   -1.354630   -0.572690
     14          6           0        2.145743   -2.307467    2.665687
     15          6           0        4.159456   -2.538718    1.284110
     16          6           0        3.550690   -0.777935   -1.834344
     17          6           0        4.574200   -2.083197   -0.026672
     18          6           0        2.791165   -3.043265    3.651879
     19          1           0        1.142332   -1.931948    2.813834
     20          6           0        4.785434   -3.273564    2.290267
     21          6           0        4.728599   -0.934402   -2.554788
     22          1           0        2.714091   -0.227112   -2.242923
     23          6           0        5.743415   -2.228948   -0.772027
     24          6           0        4.093831   -3.524374    3.467657
     25          1           0        2.274880   -3.245771    4.581426
     26          1           0        5.795649   -3.638281    2.154588
     27          6           0        5.813242   -1.649940   -2.032048
     28          1           0        4.805844   -0.493700   -3.540383
     29          1           0        6.582085   -2.784906   -0.372597
     30          1           0        4.566476   -4.094326    4.256998
     31          1           0        6.715444   -1.752927   -2.620894
     32          7           0       -2.385333   -1.457028   -0.345497
     33          6           0       -3.447041   -1.469443    0.567193
     34          6           0       -2.743385   -2.210733   -1.468281
     35          6           0       -3.540068   -0.864394    1.813199
     36          6           0       -4.491656   -2.251580    0.027527
     37          6           0       -2.027063   -2.444137   -2.634321
     38          6           0       -4.044861   -2.721706   -1.267471
     39          6           0       -4.719778   -1.047937    2.524267
     40          1           0       -2.730232   -0.271141    2.215855
     41          6           0       -5.663325   -2.423777    0.763270
     42          6           0       -2.633678   -3.225884   -3.609777
     43          1           0       -1.037737   -2.033031   -2.782515
     44          6           0       -4.631750   -3.502228   -2.262588
     45          6           0       -5.770063   -1.817239    2.007682
     46          1           0       -4.825763   -0.585879    3.497334
     47          1           0       -6.475253   -3.021192    0.368542
     48          6           0       -3.918806   -3.752478   -3.427280
     49          1           0       -2.100352   -3.428668   -4.529607
     50          1           0       -5.629028   -3.901580   -2.128757
     51          1           0       -6.674852   -1.939960    2.588682
     52          1           0       -4.361565   -4.356936   -4.208233
     53          7           0       -0.053719    2.779308   -0.009027
     54          6           0        0.601202    3.612082   -0.928254
     55          6           0       -0.746145    3.579072    0.911849
     56          6           0        1.380384    3.272507   -2.026466
     57          6           0        0.322783    4.954647   -0.591399
     58          6           0       -1.506570    3.200401    2.010296
     59          6           0       -0.531123    4.933611    0.577711
     60          6           0        1.900421    4.312629   -2.786949
     61          1           0        1.580577    2.242205   -2.286633
     62          6           0        0.854020    5.980159   -1.372169
     63          6           0       -2.074285    4.213053    2.773721
     64          1           0       -1.656142    2.160972    2.267953
     65          6           0       -1.109544    5.931172    1.361148
     66          6           0        1.644333    5.651110   -2.464805
     67          1           0        2.515444    4.079115   -3.646445
     68          1           0        0.649356    7.015029   -1.129233
     69          6           0       -1.882349    5.562839    2.453811
     70          1           0       -2.676382    3.948935    3.633482
     71          1           0       -0.954261    6.975106    1.120411
     72          1           0        2.065607    6.436092   -3.079296
     73          1           0       -2.339520    6.325793    3.070375
     74         17           0        0.061025   -3.152334    0.030004
 ---------------------------------------------------------------------

 SCF Done:  E(RB3LYP) =  -2426.10974311     A.U. after   19 cycles

 Excitation energies and oscillator strengths:

 Excited State   1:      Singlet-A      2.5730 eV  481.87 nm  f=0.0803  <S**2>=0.000
     170 -> 171        0.69897
 This state for optimization and/or second-order correction.
 Total Energy, E(TD-HF/TD-KS) =  -2426.01518851
 Copying the excited state density for this state as the 1-particle RhoCI density.

 Excited State   2:      Singlet-A      2.7335 eV  453.56 nm  f=0.0478  <S**2>=0.000
     169 -> 171        0.70297

 Excited State   3:      Singlet-A      2.7630 eV  448.73 nm  f=0.0029  <S**2>=0.000
     168 -> 171        0.70009

 Excited State   4:      Singlet-A      2.9661 eV  418.00 nm  f=0.0003  <S**2>=0.000
     166 -> 171        0.13509
     167 -> 171        0.69264

 Excited State   5:      Singlet-A      2.9709 eV  417.33 nm  f=0.0005  <S**2>=0.000
     165 -> 171        0.15879
     166 -> 171        0.67513
     167 -> 171       -0.13034

 Excited State   6:      Singlet-A      3.0122 eV  411.61 nm  f=0.0000  <S**2>=0.000
     165 -> 171        0.68301
     166 -> 171       -0.15543

 Excited State   7:      Singlet-A      3.0781 eV  402.80 nm  f=0.0530  <S**2>=0.000
     168 -> 172        0.25009
     170 -> 172        0.65156

 Excited State   8:      Singlet-A      3.2130 eV  385.89 nm  f=0.0516  <S**2>=0.000
     168 -> 172        0.65325
     170 -> 172       -0.25533

 Excited State   9:      Singlet-A      3.2621 eV  380.08 nm  f=0.0608  <S**2>=0.000
     169 -> 172        0.69908

 Excited State  10:      Singlet-A      3.4126 eV  363.32 nm  f=0.0005  <S**2>=0.000
     165 -> 172        0.66175
     166 -> 172       -0.23695

 Excited State  11:      Singlet-A      3.4985 eV  354.39 nm  f=0.0007  <S**2>=0.000
     166 -> 172        0.10438
     167 -> 172        0.69736

 Excited State  12:      Singlet-A      3.5034 eV  353.89 nm  f=0.0019  <S**2>=0.000
     165 -> 172        0.24342
     166 -> 172        0.65684

 Excited State  13:      Singlet-A      3.9387 eV  314.78 nm  f=0.0011  <S**2>=0.000
     164 -> 171        0.70295

 Excited State  14:      Singlet-A      3.9938 eV  310.44 nm  f=0.0047  <S**2>=0.000
     162 -> 171        0.51274
     163 -> 171        0.48199

 Excited State  15:      Singlet-A      4.0209 eV  308.35 nm  f=0.0052  <S**2>=0.000
     162 -> 171       -0.48266
     163 -> 171        0.51470

 Excited State  16:      Singlet-A      4.0919 eV  303.00 nm  f=0.0871  <S**2>=0.000
     168 -> 173       -0.22247
     168 -> 174       -0.11377
     168 -> 175        0.13804
     169 -> 174       -0.16512
     169 -> 175        0.25724
     170 -> 173       -0.28750
     170 -> 174        0.44217

 Excited State  17:      Singlet-A      4.0924 eV  302.97 nm  f=0.0862  <S**2>=0.000
     168 -> 173        0.19548
     168 -> 174       -0.18540
     168 -> 175       -0.18102
     169 -> 173        0.14251
     169 -> 174        0.12257
     169 -> 175        0.20531
     170 -> 173        0.43476
     170 -> 174        0.29983

 Excited State  18:      Singlet-A      4.1130 eV  301.45 nm  f=0.0001  <S**2>=0.000
     167 -> 178        0.10077
     168 -> 173       -0.29876
     169 -> 174        0.34640
     170 -> 175        0.48640

 Excited State  19:      Singlet-A      4.3434 eV  285.45 nm  f=0.1098  <S**2>=0.000
     157 -> 172        0.18918
     160 -> 172        0.15778
     161 -> 171        0.64749

 Excited State  20:      Singlet-A      4.3867 eV  282.64 nm  f=0.0035  <S**2>=0.000
     168 -> 174        0.33072
     168 -> 175        0.10740
     169 -> 173       -0.22728
     169 -> 175       -0.32363
     170 -> 173        0.20946
     170 -> 174        0.38472

 Excited State  21:      Singlet-A      4.3884 eV  282.52 nm  f=0.0052  <S**2>=0.000
     168 -> 173       -0.37752
     168 -> 175        0.21750
     169 -> 174       -0.26415
     169 -> 175        0.14446
     170 -> 173        0.39955
     170 -> 174       -0.20775

 Excited State  22:      Singlet-A      4.3970 eV  281.97 nm  f=0.0002  <S**2>=0.000
     168 -> 173        0.32253
     169 -> 174       -0.36997
     170 -> 175        0.48558

 Excited State  23:      Singlet-A      4.4015 eV  281.69 nm  f=0.0238  <S**2>=0.000
     162 -> 172       -0.28006
     163 -> 172        0.53713
     165 -> 173        0.26428
     165 -> 175       -0.10278
     169 -> 173       -0.13824

 Excited State  24:      Singlet-A      4.4507 eV  278.57 nm  f=0.0056  <S**2>=0.000
     163 -> 172        0.17652
     164 -> 172       -0.10640
     168 -> 174        0.17674
     169 -> 173        0.57907
     169 -> 175       -0.17566

 Excited State  25:      Singlet-A      4.4514 eV  278.53 nm  f=0.0208  <S**2>=0.000
     164 -> 172        0.51013
     166 -> 174       -0.27189
     167 -> 173       -0.10862
     167 -> 174        0.14208
     167 -> 175       -0.25259
     169 -> 173        0.11284

 Excited State  26:      Singlet-A      4.4733 eV  277.16 nm  f=0.1961  <S**2>=0.000
     162 -> 172        0.18928
     163 -> 172        0.16501
     165 -> 175        0.13962
     166 -> 173        0.20704
     166 -> 174        0.11009
     166 -> 175        0.26631
     167 -> 174        0.40383
     167 -> 175       -0.10521
     169 -> 173       -0.18973
     169 -> 175        0.12649
     169 -> 178       -0.12140
     170 -> 177       -0.12109

 Excited State  27:      Singlet-A      4.4879 eV  276.26 nm  f=0.0014  <S**2>=0.000
     168 -> 173        0.10753
     168 -> 174        0.52300
     169 -> 175        0.43953

 Excited State  28:      Singlet-A      4.4935 eV  275.92 nm  f=0.0228  <S**2>=0.000
     164 -> 172        0.45274
     166 -> 174        0.29132
     167 -> 173        0.11791
     167 -> 174       -0.11266
     167 -> 175        0.24435
     168 -> 175        0.18393
     169 -> 174        0.10953
     169 -> 177       -0.10053
     170 -> 178       -0.11374

 Excited State  29:      Singlet-A      4.5023 eV  275.38 nm  f=0.0044  <S**2>=0.000
     164 -> 172       -0.13363
     166 -> 174       -0.11175
     167 -> 175       -0.10805
     168 -> 173        0.16685
     168 -> 175        0.57125
     169 -> 174        0.27138

 Excited State  30:      Singlet-A      4.5048 eV  275.23 nm  f=0.2967  <S**2>=0.000
     162 -> 172        0.24291
     163 -> 172       -0.19306
     165 -> 173        0.49015
     165 -> 175       -0.14612
     166 -> 173       -0.11713
     166 -> 175        0.13126
     168 -> 176        0.13009
     170 -> 176        0.13122

 Excited State  31:      Singlet-A      4.5341 eV  273.45 nm  f=0.1062  <S**2>=0.000
     162 -> 172        0.56305
     163 -> 172        0.32015
     166 -> 175       -0.12437
     167 -> 174       -0.17692

 Excited State  32:      Singlet-A      4.6328 eV  267.62 nm  f=0.0002  <S**2>=0.000
     166 -> 174       -0.16658
     167 -> 173        0.67420
     167 -> 175       -0.10477

 Excited State  33:      Singlet-A      4.6369 eV  267.39 nm  f=0.0003  <S**2>=0.000
     165 -> 173        0.20854
     166 -> 173        0.61431
     166 -> 174       -0.18872
     167 -> 174       -0.16032

 Excited State  34:      Singlet-A      4.6481 eV  266.74 nm  f=0.0007  <S**2>=0.000
     165 -> 174        0.64299
     166 -> 174       -0.24538

 Excited State  35:      Singlet-A      4.6649 eV  265.78 nm  f=0.0012  <S**2>=0.000
     165 -> 174       -0.17676
     166 -> 174       -0.20177
     166 -> 175       -0.19441
     167 -> 174        0.35258
     167 -> 175        0.51357

 Excited State  36:      Singlet-A      4.6675 eV  265.63 nm  f=0.0018  <S**2>=0.000
     165 -> 174       -0.13087
     166 -> 174       -0.32190
     166 -> 175        0.53784
     167 -> 174       -0.20995
     167 -> 175        0.17981

 Excited State  37:      Singlet-A      4.6782 eV  265.03 nm  f=0.0000  <S**2>=0.000
     165 -> 173        0.22236
     165 -> 175        0.65263

 Excited State  38:      Singlet-A      4.7171 eV  262.84 nm  f=0.0391  <S**2>=0.000
     157 -> 171       -0.17856
     160 -> 171        0.67605

 Excited State  39:      Singlet-A      4.7302 eV  262.11 nm  f=0.0044  <S**2>=0.000
     158 -> 171       -0.24550
     159 -> 171        0.64909

 Excited State  40:      Singlet-A      4.7846 eV  259.13 nm  f=0.0000  <S**2>=0.000
     158 -> 171        0.63290
     159 -> 171        0.26931
     161 -> 171        0.11028

 Excited State  41:      Singlet-A      4.9039 eV  252.83 nm  f=0.0382  <S**2>=0.000
     170 -> 176        0.62031
     170 -> 177       -0.11629
     170 -> 179       -0.28357

 Excited State  42:      Singlet-A      4.9583 eV  250.05 nm  f=0.0010  <S**2>=0.000
     157 -> 171       -0.47665
     161 -> 172        0.49933

 Excited State  43:      Singlet-A      5.0422 eV  245.89 nm  f=0.0158  <S**2>=0.000
     169 -> 176        0.61890
     169 -> 177       -0.11076
     169 -> 179       -0.26237

 Excited State  44:      Singlet-A      5.0653 eV  244.77 nm  f=0.0270  <S**2>=0.000
     168 -> 176        0.62897
     168 -> 177       -0.13451
     168 -> 179       -0.23267

 Excited State  45:      Singlet-A      5.1016 eV  243.03 nm  f=0.1184  <S**2>=0.000
     157 -> 171        0.32450
     158 -> 172        0.20413
     159 -> 172        0.10291
     161 -> 172        0.32773
     169 -> 177       -0.17403
     170 -> 178       -0.32376
     170 -> 180       -0.17567

 Excited State  46:      Singlet-A      5.1175 eV  242.27 nm  f=0.0424  <S**2>=0.000
     168 -> 179        0.20482
     169 -> 178        0.16977
     170 -> 176        0.15220
     170 -> 177        0.54146
     170 -> 179        0.13803

 Excited State  47:      Singlet-A      5.1514 eV  240.68 nm  f=0.3145  <S**2>=0.000
     157 -> 171        0.21560
     158 -> 172        0.25698
     159 -> 172        0.12712
     161 -> 172        0.17509
     166 -> 181       -0.10842
     167 -> 180       -0.10887
     168 -> 178       -0.10850
     169 -> 177        0.19459
     170 -> 178        0.42063

 Excited State  48:      Singlet-A      5.1844 eV  239.15 nm  f=0.6241  <S**2>=0.000
     160 -> 172       -0.17902
     164 -> 174       -0.12709
     165 -> 180        0.12365
     165 -> 182       -0.11886
     166 -> 180        0.10821
     167 -> 176        0.10707
     167 -> 181        0.13520
     168 -> 177        0.20220
     168 -> 179        0.11415
     169 -> 178       -0.16673
     170 -> 176        0.14504
     170 -> 177       -0.13464
     170 -> 179        0.40829

 Excited State  49:      Singlet-A      5.2077 eV  238.08 nm  f=0.0892  <S**2>=0.000
     157 -> 171       -0.13132
     158 -> 172        0.10904
     159 -> 172        0.59670
     161 -> 172       -0.17745
     165 -> 176        0.23199

 Excited State  50:      Singlet-A      5.2303 eV  237.05 nm  f=0.2283  <S**2>=0.000
     157 -> 172       -0.10945
     160 -> 172        0.61653
     161 -> 171       -0.10110
     169 -> 180       -0.15260

 The electronic state is 1-A.
 Alpha  occ. eigenvalues -- -101.55438 -14.38549 -14.38281 -14.38256 -14.34028
 Alpha  occ. eigenvalues --  -14.34027 -10.27845 -10.27778 -10.27749 -10.27695
 Alpha  occ. eigenvalues --  -10.25539 -10.25532 -10.24001 -10.23999 -10.22402
 Alpha  occ. eigenvalues --  -10.22388 -10.22315 -10.22309 -10.22277 -10.22266
 Alpha  occ. eigenvalues --  -10.18624 -10.18587 -10.18577 -10.18568 -10.18539
 Alpha  occ. eigenvalues --  -10.18531 -10.18105 -10.18103 -10.18057 -10.18052
 Alpha  occ. eigenvalues --  -10.18030 -10.18020 -10.17941 -10.17938 -10.17931
 Alpha  occ. eigenvalues --  -10.17926 -10.17914 -10.17910 -10.17788 -10.17784
 Alpha  occ. eigenvalues --  -10.17778 -10.17771 -10.17757 -10.17752 -10.17234
 Alpha  occ. eigenvalues --  -10.17232 -10.17199 -10.17192 -10.17192 -10.17185
 Alpha  occ. eigenvalues --   -9.48637  -7.24838  -7.23939  -7.23859  -1.02528
 Alpha  occ. eigenvalues --   -1.01608  -1.01561  -0.94304  -0.93850  -0.92877
 Alpha  occ. eigenvalues --   -0.89440  -0.87653  -0.86661  -0.85889  -0.85833
 Alpha  occ. eigenvalues --   -0.85807  -0.85145  -0.82639  -0.80757  -0.78882
 Alpha  occ. eigenvalues --   -0.78765  -0.77440  -0.76270  -0.76203  -0.76181
 Alpha  occ. eigenvalues --   -0.74965  -0.74162  -0.73687  -0.72770  -0.72734
 Alpha  occ. eigenvalues --   -0.72721  -0.69372  -0.68853  -0.66164  -0.64297
 Alpha  occ. eigenvalues --   -0.64139  -0.62197  -0.62030  -0.61839  -0.61796
 Alpha  occ. eigenvalues --   -0.61114  -0.59530  -0.58604  -0.58566  -0.58544
 Alpha  occ. eigenvalues --   -0.58275  -0.57014  -0.55745  -0.54527  -0.53480
 Alpha  occ. eigenvalues --   -0.53037  -0.52630  -0.52552  -0.51717  -0.51295
 Alpha  occ. eigenvalues --   -0.50719  -0.49925  -0.47338  -0.47117  -0.47091
 Alpha  occ. eigenvalues --   -0.46677  -0.46633  -0.46199  -0.46192  -0.45848
 Alpha  occ. eigenvalues --   -0.44656  -0.44616  -0.44435  -0.44201  -0.44048
 Alpha  occ. eigenvalues --   -0.43879  -0.43528  -0.43470  -0.43459  -0.43441
 Alpha  occ. eigenvalues --   -0.43416  -0.42707  -0.42451  -0.42274  -0.42240
 Alpha  occ. eigenvalues --   -0.40445  -0.40047  -0.39927  -0.39808  -0.37742
 Alpha  occ. eigenvalues --   -0.37371  -0.37308  -0.37304  -0.37299  -0.37277
 Alpha  occ. eigenvalues --   -0.37157  -0.37051  -0.36891  -0.36477  -0.36468
 Alpha  occ. eigenvalues --   -0.35660  -0.34993  -0.34890  -0.34816  -0.34740
 Alpha  occ. eigenvalues --   -0.34705  -0.34666  -0.34451  -0.34374  -0.34012
 Alpha  occ. eigenvalues --   -0.33572  -0.29996  -0.29661  -0.29441  -0.29277
 Alpha  occ. eigenvalues --   -0.28421  -0.26777  -0.26744  -0.26581  -0.23000
 Alpha  occ. eigenvalues --   -0.22953  -0.22942  -0.22448  -0.22389  -0.21878
 Alpha virt. eigenvalues --   -0.09918  -0.08133  -0.04656  -0.04643  -0.04516
 Alpha virt. eigenvalues --   -0.01588  -0.01270  -0.01190  -0.00964  -0.00227
 Alpha virt. eigenvalues --    0.00361   0.00471   0.01281   0.01311   0.01485

 Mulliken charges:
               1
     1  C    0.047879
     2  C    0.004446
     3  C    0.051570
     4  C    0.155880
     5  C   -0.015431
     6  C    0.161902
     7  C   -0.168676
     8  C   -0.170433
     9  N   -0.015962
    10  N   -0.015937
    11  N    0.049674
    12  C    0.109247
    13  C    0.103924
    14  C   -0.245920
    15  C    0.016304
    16  C   -0.248628
    17  C    0.028242
    18  C   -0.136697
    19  H    0.162999
    20  C   -0.231132
    21  C   -0.141459
    22  H    0.170587
    23  C   -0.232609
    24  C   -0.150306
    25  H    0.151303
    26  H    0.148746
    27  C   -0.150453
    28  H    0.150736
    29  H    0.149150
    30  H    0.147335
    31  H    0.146999
    32  N    0.049763
    33  C    0.105628
    34  C    0.108255
    35  C   -0.249110
    36  C    0.026510
    37  C   -0.245200
    38  C    0.016059
    39  C   -0.142812
    40  H    0.172985
    41  C   -0.231866
    42  C   -0.136901
    43  H    0.163930
    44  C   -0.230723
    45  C   -0.150774
    46  H    0.150737
    47  H    0.149206
    48  C   -0.150349
    49  H    0.151314
    50  H    0.148772
    51  H    0.146970
    52  H    0.147327
    53  N    0.038678
    54  C    0.112852
    55  C    0.112543
    56  C   -0.259374
    57  C    0.016104
    58  C   -0.257992
    59  C    0.015879
    60  C   -0.133917
    61  H    0.177432
    62  C   -0.225503
    63  C   -0.136020
    64  H    0.178586
    65  C   -0.225521
    66  C   -0.155476
    67  H    0.150770
    68  H    0.149280
    69  C   -0.155088
    70  H    0.150701
    71  H    0.149268
    72  H    0.147099
    73  H    0.147099
    74  Cl  -0.030403
 Sum of Mulliken charges =  -0.00000

 Dipole moment (field-independent basis, Debye):
    X=              0.0328    Y=             -3.6447    Z=              0.0319  Tot=              3.6450
 Quadrupole moment (field-independent basis, Debye-Ang):
   XX=           -305.0174   YY=           -289.4882   ZZ=           -269.0271
   XY=             -0.4671   XZ=            -21.8947   YZ=             -0.0354

 Normal termination of Gaussian 09 at Sat Jul  2 12:40:23 2022.
