 Gaussian 09, Revision E.01,
 Gaussian 09:  ES64L-G09RevE.01 30-Nov-2015

 ----------------------------------------------------------------------
 #p PBEPBE/def2TZVP td=(NStates=50) int=ultrafine scrf=(SMD,solvent=Ace
 tonitrile) EmpiricalDispersion=GD3BJ
 ----------------------------------------------------------------------

 -----
 Title
 -----
 Symbolic Z-matrix:
 Charge =  0 Multiplicity = 1

                         Standard orientation:
 ---------------------------------------------------------------------
 Center     Atomic      Atomic             Coordinates (Angstroms)
 Number     Number       Type             X           Y           Z
 ---------------------------------------------------------------------
      1          6           0        1.224648   -0.718020    0.177038
      2          6           0        0.032129   -1.443611    0.009482
      3          6           0       -1.190615   -0.771671   -0.168332
      4          6           0       -1.206448    0.641351   -0.202286
      5          6           0       -0.028622    1.387361   -0.001857
      6          6           0        1.180541    0.694371    0.200521
      7          6           0       -2.417911    1.309766   -0.536655
      8          6           0        2.364017    1.415477    0.524822
      9          7           0       -3.404157    1.855662   -0.830420
     10          7           0        3.327426    2.004240    0.811507
     11          7           0        2.455840   -1.364420    0.359320
     12          6           0        2.837851   -2.118345    1.478897
     13          6           0        3.531876   -1.308351   -0.540993
     14          6           0        2.119205   -2.397573    2.641535
     15          6           0        4.173599   -2.562080    1.286637
     16          6           0        3.606000   -0.686031   -1.787255
     17          6           0        4.612842   -2.050466    0.004263
     18          6           0        2.757418   -3.162866    3.619327
     19          1           0        1.102700   -2.030042    2.787537
     20          6           0        4.790351   -3.327000    2.285334
     21          6           0        4.806736   -0.804384   -2.489872
     22          1           0        2.763308   -0.129473   -2.200299
     23          6           0        5.804180   -2.157371   -0.725120
     24          6           0        4.073994   -3.626830    3.443903
     25          1           0        2.221363   -3.401616    4.539472
     26          1           0        5.816876   -3.675857    2.158163
     27          6           0        5.893540   -1.528569   -1.967004
     28          1           0        4.899322   -0.324789   -3.465803
     29          1           0        6.646598   -2.725317   -0.325787
     30          1           0        4.541155   -4.222463    4.229864
     31          1           0        6.816533   -1.600907   -2.544572
     32          7           0       -2.391208   -1.472049   -0.351028
     33          6           0       -3.480864   -1.444796    0.534659
     34          6           0       -2.726786   -2.262331   -1.460733
     35          6           0       -3.598744   -0.801584    1.766758
     36          6           0       -4.521420   -2.243670   -0.008764
     37          6           0       -1.982976   -2.530324   -2.610045
     38          6           0       -4.044323   -2.759866   -1.275670
     39          6           0       -4.802193   -0.958898    2.457032
     40          1           0       -2.787245   -0.199448    2.177890
     41          6           0       -5.716298   -2.388915    0.708013
     42          6           0       -2.575389   -3.340528   -3.580462
     43          1           0       -0.981986   -2.121124   -2.751740
     44          6           0       -4.615245   -3.568852   -2.266728
     45          6           0       -5.849199   -1.740671    1.935916
     46          1           0       -4.928626   -0.464273    3.421589
     47          1           0       -6.527479   -3.001376    0.309888
     48          6           0       -3.872517   -3.858292   -3.411251
     49          1           0       -2.018283   -3.572312   -4.489837
     50          1           0       -5.627404   -3.959143   -2.144977
     51          1           0       -6.775686   -1.842051    2.503424
     52          1           0       -4.304162   -4.487865   -4.191030
     53          7           0       -0.059446    2.786416   -0.003621
     54          6           0        0.639324    3.621997   -0.893808
     55          6           0       -0.800555    3.587695    0.883376
     56          6           0        1.467156    3.280754   -1.964130
     57          6           0        0.338131    4.971501   -0.571380
     58          6           0       -1.606915    3.206179    1.956263
     59          6           0       -0.571643    4.949737    0.555638
     60          6           0        2.018655    4.326949   -2.706072
     61          1           0        1.679777    2.242259   -2.221033
     62          6           0        0.902283    6.001848   -1.334598
     63          6           0       -2.213255    4.223863    2.694976
     64          1           0       -1.760875    2.158156    2.216601
     65          6           0       -1.189939    5.951129    1.315409
     66          6           0        1.744985    5.671031   -2.395239
     67          1           0        2.674595    4.091405   -3.545829
     68          1           0        0.679838    7.044982   -1.102384
     69          6           0       -2.012964    5.579530    2.378054
     70          1           0       -2.854267    3.956689    3.536764
     71          1           0       -1.024247    7.003856    1.079099
     72          1           0        2.194072    6.462629   -2.997240
     73          1           0       -2.503586    6.348190    2.977344
     74         17           0        0.070039   -3.162994    0.022646
 ---------------------------------------------------------------------

 SCF Done:  E(RPBE-PBE) =  -2423.39050073     A.U. after   16 cycles

 Excitation energies and oscillator strengths:

 Excited State   1:      Singlet-A      1.9711 eV  629.02 nm  f=0.0793  <S**2>=0.000
     170 -> 171        0.70287
 This state for optimization and/or second-order correction.
 Total Energy, E(TD-HF/TD-KS) =  -2423.31806481
 Copying the excited state density for this state as the 1-particle RhoCI density.

 Excited State   2:      Singlet-A      2.0848 eV  594.70 nm  f=0.0154  <S**2>=0.000
     168 -> 171        0.68316
     169 -> 171       -0.17577

 Excited State   3:      Singlet-A      2.1372 eV  580.13 nm  f=0.0531  <S**2>=0.000
     168 -> 171        0.17440
     169 -> 171        0.67723

 Excited State   4:      Singlet-A      2.2396 eV  553.61 nm  f=0.0003  <S**2>=0.000
     166 -> 171       -0.12009
     167 -> 171        0.69464

 Excited State   5:      Singlet-A      2.2419 eV  553.03 nm  f=0.0003  <S**2>=0.000
     165 -> 171       -0.13954
     166 -> 171        0.68107
     167 -> 171        0.12828

 Excited State   6:      Singlet-A      2.2517 eV  550.61 nm  f=0.0003  <S**2>=0.000
     165 -> 171        0.68920
     166 -> 171        0.14645

 Excited State   7:      Singlet-A      2.4314 eV  509.93 nm  f=0.0000  <S**2>=0.000
     168 -> 172        0.21710
     170 -> 172        0.66339

 Excited State   8:      Singlet-A      2.5474 eV  486.72 nm  f=0.0668  <S**2>=0.000
     168 -> 172        0.14143
     169 -> 172        0.68843

 Excited State   9:      Singlet-A      2.5895 eV  478.79 nm  f=0.1165  <S**2>=0.000
     168 -> 172        0.65584
     169 -> 172       -0.13045
     170 -> 172       -0.21930

 Excited State  10:      Singlet-A      2.6886 eV  461.15 nm  f=0.0004  <S**2>=0.000
     167 -> 172        0.70108

 Excited State  11:      Singlet-A      2.6915 eV  460.65 nm  f=0.0018  <S**2>=0.000
     165 -> 172        0.11271
     166 -> 172        0.69360

 Excited State  12:      Singlet-A      2.7135 eV  456.91 nm  f=0.0002  <S**2>=0.000
     165 -> 172        0.69656
     166 -> 172       -0.11595

 Excited State  13:      Singlet-A      3.0803 eV  402.51 nm  f=0.0034  <S**2>=0.000
     164 -> 171        0.70446

 Excited State  14:      Singlet-A      3.1214 eV  397.20 nm  f=0.0078  <S**2>=0.000
     163 -> 171        0.70153

 Excited State  15:      Singlet-A      3.1407 eV  394.77 nm  f=0.0011  <S**2>=0.000
     162 -> 171        0.70082

 Excited State  16:      Singlet-A      3.3555 eV  369.49 nm  f=0.0047  <S**2>=0.000
     168 -> 173        0.23000
     170 -> 173        0.65249

 Excited State  17:      Singlet-A      3.3656 eV  368.39 nm  f=0.0050  <S**2>=0.000
     168 -> 174       -0.15300
     169 -> 175       -0.21178
     170 -> 174        0.64476

 Excited State  18:      Singlet-A      3.3888 eV  365.87 nm  f=0.0007  <S**2>=0.000
     168 -> 173       -0.10238
     169 -> 174       -0.28573
     170 -> 175        0.62805

 Excited State  19:      Singlet-A      3.4627 eV  358.06 nm  f=0.0001  <S**2>=0.000
     168 -> 173        0.10977
     168 -> 174       -0.21769
     169 -> 173        0.65801

 Excited State  20:      Singlet-A      3.4770 eV  356.58 nm  f=0.0012  <S**2>=0.000
     168 -> 173        0.12087
     168 -> 174        0.54378
     169 -> 173        0.11033
     169 -> 174       -0.18847
     169 -> 175       -0.37395

 Excited State  21:      Singlet-A      3.4898 eV  355.28 nm  f=0.0026  <S**2>=0.000
     168 -> 173        0.17255
     168 -> 174       -0.16957
     168 -> 175        0.56278
     169 -> 174       -0.33333

 Excited State  22:      Singlet-A      3.5260 eV  351.62 nm  f=0.0001  <S**2>=0.000
     164 -> 172        0.70421

 Excited State  23:      Singlet-A      3.5778 eV  346.54 nm  f=0.0060  <S**2>=0.000
     162 -> 172       -0.38731
     163 -> 172        0.58957

 Excited State  24:      Singlet-A      3.5910 eV  345.27 nm  f=0.0004  <S**2>=0.000
     162 -> 172        0.58971
     163 -> 172        0.38370

 Excited State  25:      Singlet-A      3.6419 eV  340.44 nm  f=0.0011  <S**2>=0.000
     166 -> 174       -0.15401
     167 -> 173        0.66512
     168 -> 173       -0.13143

 Excited State  26:      Singlet-A      3.6481 eV  339.86 nm  f=0.0001  <S**2>=0.000
     165 -> 173        0.22555
     166 -> 173        0.61315
     166 -> 174       -0.16410
     167 -> 173       -0.11225
     167 -> 174       -0.17383

 Excited State  27:      Singlet-A      3.6579 eV  338.95 nm  f=0.0004  <S**2>=0.000
     165 -> 174        0.55967
     166 -> 174       -0.31824
     167 -> 174        0.14826
     167 -> 175        0.16096

 Excited State  28:      Singlet-A      3.6636 eV  338.42 nm  f=0.0003  <S**2>=0.000
     165 -> 174       -0.26524
     166 -> 174       -0.12087
     166 -> 175       -0.21718
     167 -> 174        0.41454
     167 -> 175        0.41788

 Excited State  29:      Singlet-A      3.6671 eV  338.10 nm  f=0.0003  <S**2>=0.000
     165 -> 174       -0.22405
     166 -> 173       -0.12138
     166 -> 174       -0.35273
     166 -> 175        0.45547
     167 -> 174       -0.19621
     167 -> 175        0.21379

 Excited State  30:      Singlet-A      3.6808 eV  336.84 nm  f=0.0012  <S**2>=0.000
     158 -> 171        0.20961
     159 -> 171       -0.11801
     161 -> 171        0.36448
     165 -> 173        0.11294
     165 -> 175        0.38315
     166 -> 175       -0.11281
     168 -> 174       -0.13967
     169 -> 175       -0.27173
     170 -> 174       -0.12127

 Excited State  31:      Singlet-A      3.6902 eV  335.98 nm  f=0.0205  <S**2>=0.000
     158 -> 171       -0.21260
     161 -> 171       -0.40224
     165 -> 173        0.15383
     165 -> 175        0.48038
     166 -> 175       -0.12232

 Excited State  32:      Singlet-A      3.7035 eV  334.78 nm  f=0.0502  <S**2>=0.000
     167 -> 173        0.12487
     168 -> 173        0.49545
     168 -> 175       -0.29666
     169 -> 173       -0.11932
     169 -> 174       -0.14601
     170 -> 173       -0.23798

 Excited State  33:      Singlet-A      3.7075 eV  334.41 nm  f=0.0007  <S**2>=0.000
     157 -> 171       -0.10672
     160 -> 171        0.18705
     165 -> 174        0.16822
     168 -> 173        0.27210
     168 -> 175        0.20793
     169 -> 174        0.43538
     170 -> 175        0.27066

 Excited State  34:      Singlet-A      3.7205 eV  333.24 nm  f=0.0984  <S**2>=0.000
     158 -> 171        0.10847
     159 -> 171        0.12745
     161 -> 171        0.27763
     165 -> 175        0.19166
     168 -> 174        0.24018
     168 -> 175        0.10366
     169 -> 173        0.11509
     169 -> 175        0.43075
     170 -> 174        0.21969

 Excited State  35:      Singlet-A      3.7993 eV  326.33 nm  f=0.0081  <S**2>=0.000
     158 -> 171        0.13347
     159 -> 171        0.67067
     169 -> 175       -0.11754

 Excited State  36:      Singlet-A      3.8134 eV  325.13 nm  f=0.0200  <S**2>=0.000
     157 -> 171       -0.30082
     160 -> 171        0.59489
     169 -> 174       -0.15043

 Excited State  37:      Singlet-A      3.9058 eV  317.43 nm  f=0.0086  <S**2>=0.000
     170 -> 176        0.69501

 Excited State  38:      Singlet-A      3.9513 eV  313.78 nm  f=0.0209  <S**2>=0.000
     157 -> 172       -0.15366
     158 -> 171        0.59244
     160 -> 172       -0.17597
     161 -> 171       -0.26016

 Excited State  39:      Singlet-A      4.0352 eV  307.26 nm  f=0.0002  <S**2>=0.000
     169 -> 176        0.69829

 Excited State  40:      Singlet-A      4.0399 eV  306.90 nm  f=0.0006  <S**2>=0.000
     165 -> 173       -0.14272
     168 -> 176        0.67922

 Excited State  41:      Singlet-A      4.1174 eV  301.13 nm  f=0.0600  <S**2>=0.000
     165 -> 173        0.12837
     165 -> 175       -0.17084
     166 -> 173       -0.15026
     166 -> 175       -0.26325
     167 -> 174       -0.30504
     167 -> 175        0.12508
     167 -> 176        0.16867
     170 -> 177        0.41540

 Excited State  42:      Singlet-A      4.1208 eV  300.87 nm  f=0.0269  <S**2>=0.000
     165 -> 174       -0.13129
     166 -> 174       -0.32221
     166 -> 175       -0.12430
     166 -> 176        0.18253
     167 -> 174        0.11931
     167 -> 175       -0.35081
     170 -> 178        0.35936

 Excited State  43:      Singlet-A      4.1503 eV  298.73 nm  f=0.2057  <S**2>=0.000
     165 -> 173        0.42364
     166 -> 175        0.19320
     167 -> 174        0.14245
     167 -> 176       -0.14359
     168 -> 177       -0.11722
     170 -> 177        0.18890
     170 -> 179        0.34108

 Excited State  44:      Singlet-A      4.1782 eV  296.74 nm  f=0.0157  <S**2>=0.000
     158 -> 172        0.38926
     159 -> 172       -0.28131
     161 -> 172        0.49636

 Excited State  45:      Singlet-A      4.2079 eV  294.64 nm  f=0.0052  <S**2>=0.000
     165 -> 173       -0.13191
     166 -> 176       -0.32572
     167 -> 176       -0.23054
     168 -> 178       -0.10320
     168 -> 179        0.15374
     169 -> 177       -0.16688
     169 -> 178       -0.15771
     170 -> 177        0.33241
     170 -> 178        0.26370
     170 -> 179       -0.14387

 Excited State  46:      Singlet-A      4.2096 eV  294.53 nm  f=0.0033  <S**2>=0.000
     166 -> 176       -0.22943
     167 -> 176        0.38355
     169 -> 177       -0.15686
     169 -> 178        0.15203
     169 -> 179        0.10499
     170 -> 177       -0.19549
     170 -> 178        0.38481
     170 -> 179        0.10504

 Excited State  47:      Singlet-A      4.2302 eV  293.09 nm  f=0.0023  <S**2>=0.000
     165 -> 173       -0.16876
     166 -> 176        0.17368
     167 -> 176        0.32186
     168 -> 177        0.24051
     168 -> 179        0.20110
     169 -> 178       -0.10292
     170 -> 177        0.21856
     170 -> 179        0.34509

 Excited State  48:      Singlet-A      4.2341 eV  292.82 nm  f=0.0033  <S**2>=0.000
     159 -> 172        0.29044
     165 -> 176        0.41889
     166 -> 176       -0.37569
     167 -> 176        0.14229
     169 -> 177        0.14198
     170 -> 178       -0.12321

 Excited State  49:      Singlet-A      4.2423 eV  292.26 nm  f=0.0034  <S**2>=0.000
     159 -> 172        0.17277
     165 -> 176        0.42728
     166 -> 174        0.12981
     166 -> 176        0.31535
     167 -> 175        0.13858
     167 -> 176       -0.10002
     169 -> 177       -0.24395
     170 -> 178        0.18186

 Excited State  50:      Singlet-A      4.2453 eV  292.05 nm  f=0.0875  <S**2>=0.000
     166 -> 175       -0.14516
     166 -> 176       -0.12218
     167 -> 174       -0.14881
     167 -> 176       -0.32596
     168 -> 177        0.27978
     169 -> 178        0.29122
     170 -> 179        0.34971

 The electronic state is 1-A.
 Alpha  occ. eigenvalues -- -100.69155 -14.05992 -14.05757 -14.05722 -14.00512
 Alpha  occ. eigenvalues --  -14.00510  -9.98745  -9.98718  -9.98634  -9.98617
 Alpha  occ. eigenvalues --   -9.96534  -9.96522  -9.94824  -9.94821  -9.93566
 Alpha  occ. eigenvalues --   -9.93549  -9.93482  -9.93469  -9.93448  -9.93440
 Alpha  occ. eigenvalues --   -9.90016  -9.89993  -9.89972  -9.89961  -9.89949
 Alpha  occ. eigenvalues --   -9.89939  -9.89443  -9.89438  -9.89391  -9.89383
 Alpha  occ. eigenvalues --   -9.89364  -9.89353  -9.89183  -9.89180  -9.89174
 Alpha  occ. eigenvalues --   -9.89168  -9.89157  -9.89151  -9.89029  -9.89025
 Alpha  occ. eigenvalues --   -9.89018  -9.89011  -9.88997  -9.88990  -9.88548
 Alpha  occ. eigenvalues --   -9.88545  -9.88515  -9.88510  -9.88505  -9.88501
 Alpha  occ. eigenvalues --   -9.20510  -7.02911  -7.01841  -7.01728  -0.94006
 Alpha  occ. eigenvalues --   -0.93217  -0.93164  -0.85738  -0.84887  -0.84416
 Alpha  occ. eigenvalues --   -0.81555  -0.79731  -0.78880  -0.77901  -0.77847
 Alpha  occ. eigenvalues --   -0.77821  -0.77293  -0.74995  -0.73326  -0.71455
 Alpha  occ. eigenvalues --   -0.71373  -0.70063  -0.68954  -0.68882  -0.68859
 Alpha  occ. eigenvalues --   -0.67807  -0.67024  -0.66638  -0.65599  -0.65566
 Alpha  occ. eigenvalues --   -0.65551  -0.62708  -0.62311  -0.59833  -0.57907
 Alpha  occ. eigenvalues --   -0.57706  -0.56066  -0.56033  -0.55784  -0.55761
 Alpha  occ. eigenvalues --   -0.55123  -0.53482  -0.52507  -0.52440  -0.52417
 Alpha  occ. eigenvalues --   -0.52246  -0.51150  -0.50098  -0.48987  -0.48054
 Alpha  occ. eigenvalues --   -0.47522  -0.47134  -0.47040  -0.46219  -0.45784
 Alpha  occ. eigenvalues --   -0.45331  -0.44591  -0.42613  -0.42061  -0.41955
 Alpha  occ. eigenvalues --   -0.41605  -0.41484  -0.40953  -0.40934  -0.40695
 Alpha  occ. eigenvalues --   -0.39641  -0.39581  -0.39302  -0.39262  -0.38928
 Alpha  occ. eigenvalues --   -0.38837  -0.38656  -0.38538  -0.38386  -0.38330
 Alpha  occ. eigenvalues --   -0.38320  -0.37807  -0.37414  -0.37255  -0.37232
 Alpha  occ. eigenvalues --   -0.35944  -0.35568  -0.34384  -0.34194  -0.33475
 Alpha  occ. eigenvalues --   -0.33111  -0.32887  -0.32567  -0.32483  -0.32476
 Alpha  occ. eigenvalues --   -0.32447  -0.32367  -0.32310  -0.32209  -0.32101
 Alpha  occ. eigenvalues --   -0.31545  -0.30920  -0.30577  -0.30380  -0.30219
 Alpha  occ. eigenvalues --   -0.30172  -0.30095  -0.29951  -0.29941  -0.29826
 Alpha  occ. eigenvalues --   -0.29615  -0.26889  -0.26558  -0.26319  -0.26169
 Alpha  occ. eigenvalues --   -0.25353  -0.23913  -0.23869  -0.23678  -0.20679
 Alpha  occ. eigenvalues --   -0.20633  -0.20621  -0.19974  -0.19949  -0.19451
 Alpha virt. eigenvalues --   -0.12417  -0.10758  -0.07232  -0.07221  -0.07106
 Alpha virt. eigenvalues --   -0.05143  -0.04214  -0.04135  -0.04009  -0.03605
 Alpha virt. eigenvalues --   -0.02672  -0.02609  -0.02437  -0.02247  -0.01864

 Mulliken charges:
               1
     1  C    0.056998
     2  C   -0.062649
     3  C    0.062488
     4  C    0.141326
     5  C   -0.022370
     6  C    0.146767
     7  C   -0.271546
     8  C   -0.273112
     9  N    0.035758
    10  N    0.035606
    11  N    0.213461
    12  C    0.071546
    13  C    0.069082
    14  C   -0.243307
    15  C    0.012452
    16  C   -0.239405
    17  C    0.023665
    18  C   -0.133387
    19  H    0.151967
    20  C   -0.239512
    21  C   -0.143841
    22  H    0.160500
    23  C   -0.241196
    24  C   -0.139645
    25  H    0.147307
    26  H    0.143864
    27  C   -0.138606
    28  H    0.145745
    29  H    0.144288
    30  H    0.143248
    31  H    0.142940
    32  N    0.213779
    33  C    0.071416
    34  C    0.070001
    35  C   -0.239770
    36  C    0.021155
    37  C   -0.241305
    38  C    0.011479
    39  C   -0.144018
    40  H    0.161391
    41  C   -0.240089
    42  C   -0.133859
    43  H    0.153063
    44  C   -0.238896
    45  C   -0.139250
    46  H    0.145700
    47  H    0.144428
    48  C   -0.139597
    49  H    0.147339
    50  H    0.143928
    51  H    0.142907
    52  H    0.143253
    53  N    0.223280
    54  C    0.085364
    55  C    0.085207
    56  C   -0.250890
    57  C    0.007257
    58  C   -0.248531
    59  C    0.006167
    60  C   -0.130246
    61  H    0.156371
    62  C   -0.232948
    63  C   -0.132404
    64  H    0.157534
    65  C   -0.232941
    66  C   -0.145679
    67  H    0.145854
    68  H    0.144530
    69  C   -0.145050
    70  H    0.145669
    71  H    0.144547
    72  H    0.142816
    73  H    0.142855
    74  Cl  -0.022248
 Sum of Mulliken charges =  -0.00000

 Dipole moment (field-independent basis, Debye):
    X=              0.0268    Y=             -3.7571    Z=              0.0135  Tot=              3.7572
 Quadrupole moment (field-independent basis, Debye-Ang):
   XX=           -300.3924   YY=           -285.4011   ZZ=           -268.3819
   XY=             -0.4659   XZ=            -23.3144   YZ=             -0.2443

 Normal termination of Gaussian 09 at Sat Jul  2 07:27:54 2022.
