                         Program Version 5.0.2 -  RELEASE  -
|  1> %maxcore 20000
|  2> %pal
|  3>  nprocs= 6
|  4> end
|  5> ! RI-SCS-PBE-QIDH   def2-TZVP def2/J def2-TZVP/C RIJCOSX CPCM TightSCF
|  6> %TDDFT
|  7>    NROOTS   30
|  8>    dcorr 4
|  9>    doscs true
| 10>    TDA      FALSE
| 11> END
| 12>
| 13> %CPCM
| 14>    SMD          TRUE
| 15>    SMDsolvent   "N,N-DIMETHYLFORMAMIDE"
| 16> END
| 17>
| 18>
| 19> * xyz 0 1
| 20> C                   0.68932400   -3.64378400    0.00004200
| 21> C                   1.38003700   -2.43359300    0.00004800
| 22> C                   0.70476900   -1.21932900    0.00003100
| 23> C                  -0.70477600   -1.21932500    0.00005900
| 24> C                  -1.38005700   -2.43358000    0.00003100
| 25> C                  -0.68935600   -3.64377700    0.00001900
| 26> C                  -0.70476900    1.21932900   -0.00000200
| 27> C                   0.70477700    1.21932400   -0.00009000
| 28> C                   1.38005600    2.43358200   -0.00030700
| 29> H                   2.46138000    2.43402900   -0.00042300
| 30> C                   0.68935500    3.64377800   -0.00036700
| 31> C                  -0.68932600    3.64378300   -0.00022100
| 32> C                  -1.38003800    2.43359200   -0.00005200
| 33> H                   2.46136100   -2.43405500    0.00007000
| 34> H                  -2.46138100   -2.43402700    0.00003600
| 35> H                  -1.24454000   -4.57263300   -0.00000100
| 36> H                   1.24453800    4.57263400   -0.00052600
| 37> H                  -1.24450200    4.57264300   -0.00024400
| 38> N                   1.38907800   -0.00000400    0.00003800
| 39> C                  -2.81718700    0.00000400    0.00008900
| 40> C                  -3.50829500   -0.00010200    1.20463900
| 41> C                  -3.50818700    0.00011100   -1.20452700
| 42> C                  -4.89502400   -0.00010300    1.20212500
| 43> C                  -4.89491500    0.00011400   -1.20213700
| 44> C                  -5.58872000    0.00000700   -0.00003600
| 45> H                  -5.43460900   -0.00018700    2.14065000
| 46> H                  -5.43441600    0.00019900   -2.14071000
| 47> H                  -2.95224600   -0.00018600    2.13431600
| 48> H                  -2.95205700    0.00019300   -2.13415600
| 49> H                  -6.67129700    0.00000800   -0.00008600
| 50> H                   1.24449900   -4.57264400    0.00005700
| 51> N                  -1.38907700    0.00000400    0.00016300
| 52> C                   2.81718700   -0.00000400    0.00005600
| 53> C                   3.50821800    0.00061200    1.20465200
| 54> C                   3.50826600   -0.00062100   -1.20451300
| 55> C                   4.89494600    0.00062000    1.20222900
| 56> H                   2.95210800    0.00109100    2.13429300
| 57> C                   4.89499500   -0.00063200   -1.20203300
| 58> H                   2.95219700   -0.00109900   -2.13417800
| 59> C                   5.58872100   -0.00000700    0.00011200
| 60> H                   5.43447100    0.00110500    2.14078800
| 61> H                   5.43455600   -0.00111800   -2.14057100
| 62> H                   6.67129800   -0.00000800    0.00013500
| 63> H                  -2.46136100    2.43405200    0.00004800
| 64> *
| 65>
| 66>
| 67>                          ****END OF INPUT****

CARTESIAN COORDINATES (ANGSTROEM)
---------------------------------
  C      0.689324   -3.643784    0.000042
  C      1.380037   -2.433593    0.000048
  C      0.704769   -1.219329    0.000031
  C     -0.704776   -1.219325    0.000059
  C     -1.380057   -2.433580    0.000031
  C     -0.689356   -3.643777    0.000019
  C     -0.704769    1.219329   -0.000002
  C      0.704777    1.219324   -0.000090
  C      1.380056    2.433582   -0.000307
  H      2.461380    2.434029   -0.000423
  C      0.689355    3.643778   -0.000367
  C     -0.689326    3.643783   -0.000221
  C     -1.380038    2.433592   -0.000052
  H      2.461361   -2.434055    0.000070
  H     -2.461381   -2.434027    0.000036
  H     -1.244540   -4.572633   -0.000001
  H      1.244538    4.572634   -0.000526
  H     -1.244502    4.572643   -0.000244
  N      1.389078   -0.000004    0.000038
  C     -2.817187    0.000004    0.000089
  C     -3.508295   -0.000102    1.204639
  C     -3.508187    0.000111   -1.204527
  C     -4.895024   -0.000103    1.202125
  C     -4.894915    0.000114   -1.202137
  C     -5.588720    0.000007   -0.000036
  H     -5.434609   -0.000187    2.140650
  H     -5.434416    0.000199   -2.140710
  H     -2.952246   -0.000186    2.134316
  H     -2.952057    0.000193   -2.134156
  H     -6.671297    0.000008   -0.000086
  H      1.244499   -4.572644    0.000057
  N     -1.389077    0.000004    0.000163
  C      2.817187   -0.000004    0.000056
  C      3.508218    0.000612    1.204652
  C      3.508266   -0.000621   -1.204513
  C      4.894946    0.000620    1.202229
  H      2.952108    0.001091    2.134293
  C      4.894995   -0.000632   -1.202033
  H      2.952197   -0.001099   -2.134178
  C      5.588721   -0.000007    0.000112
  H      5.434471    0.001105    2.140788
  H      5.434556   -0.001118   -2.140571
  H      6.671298   -0.000008    0.000135
  H     -2.461361    2.434052    0.000048

 Total Charge           Charge          ....    0
 Multiplicity           Mult            ....    1
 Number of Electrons    NEL             ....  176
 Basis Dimension        Dim             ....  914

ORBITAL ENERGIES
----------------

  NO   OCC          E(Eh)            E(eV)
   0   2.0000     -15.114919      -411.2979
   1   2.0000     -15.114914      -411.2977
   2   2.0000     -10.873152      -295.8735
   3   2.0000     -10.873129      -295.8729
   4   2.0000     -10.872254      -295.8491
   5   2.0000     -10.872247      -295.8489
   6   2.0000     -10.862822      -295.5924
   7   2.0000     -10.862820      -295.5924
   8   2.0000     -10.824531      -294.5505
   9   2.0000     -10.824530      -294.5504
  10   2.0000     -10.824392      -294.5467
  11   2.0000     -10.824392      -294.5467
  12   2.0000     -10.823736      -294.5288
  13   2.0000     -10.823736      -294.5288
  14   2.0000     -10.823311      -294.5173
  15   2.0000     -10.823311      -294.5173
  16   2.0000     -10.822638      -294.4990
  17   2.0000     -10.822638      -294.4989
  18   2.0000     -10.815817      -294.3133
  19   2.0000     -10.815817      -294.3133
  20   2.0000     -10.815815      -294.3133
  21   2.0000     -10.815815      -294.3133
  22   2.0000     -10.812980      -294.2361
  23   2.0000     -10.812980      -294.2361
  24   2.0000     -10.811937      -294.2078
  25   2.0000     -10.811937      -294.2078
  26   2.0000      -1.210093       -32.9283
  27   2.0000      -1.163496       -31.6603
  28   2.0000      -1.062194       -28.9038
  29   2.0000      -1.061856       -28.8946
  30   2.0000      -1.049661       -28.5627
  31   2.0000      -1.023763       -27.8580
  32   2.0000      -0.948093       -25.7989
  33   2.0000      -0.941046       -25.6072
  34   2.0000      -0.936489       -25.4832
  35   2.0000      -0.930691       -25.3254
  36   2.0000      -0.930668       -25.3248
  37   2.0000      -0.923654       -25.1339
  38   2.0000      -0.899620       -24.4799
  39   2.0000      -0.862574       -23.4718
  40   2.0000      -0.801885       -21.8204
  41   2.0000      -0.790493       -21.5104
  42   2.0000      -0.762274       -20.7425
  43   2.0000      -0.761767       -20.7287
  44   2.0000      -0.758428       -20.6379
  45   2.0000      -0.746233       -20.3060
  46   2.0000      -0.720635       -19.6095
  47   2.0000      -0.699134       -19.0244
  48   2.0000      -0.693116       -18.8606
  49   2.0000      -0.662485       -18.0271
  50   2.0000      -0.660049       -17.9608
  51   2.0000      -0.621907       -16.9230
  52   2.0000      -0.611579       -16.6419
  53   2.0000      -0.602478       -16.3943
  54   2.0000      -0.598898       -16.2968
  55   2.0000      -0.588108       -16.0032
  56   2.0000      -0.585624       -15.9356
  57   2.0000      -0.582516       -15.8511
  58   2.0000      -0.564310       -15.3556
  59   2.0000      -0.549882       -14.9630
  60   2.0000      -0.548216       -14.9177
  61   2.0000      -0.544627       -14.8201
  62   2.0000      -0.540770       -14.7151
  63   2.0000      -0.540055       -14.6956
  64   2.0000      -0.535077       -14.5602
  65   2.0000      -0.530918       -14.4470
  66   2.0000      -0.528413       -14.3789
  67   2.0000      -0.479782       -13.0555
  68   2.0000      -0.477062       -12.9815
  69   2.0000      -0.476681       -12.9712
  70   2.0000      -0.470940       -12.8149
  71   2.0000      -0.467421       -12.7192
  72   2.0000      -0.467048       -12.7090
  73   2.0000      -0.462795       -12.5933
  74   2.0000      -0.452367       -12.3095
  75   2.0000      -0.450193       -12.2504
  76   2.0000      -0.449745       -12.2382
  77   2.0000      -0.434391       -11.8204
  78   2.0000      -0.428717       -11.6660
  79   2.0000      -0.410111       -11.1597
  80   2.0000      -0.338021        -9.1980
  81   2.0000      -0.330856        -9.0030
  82   2.0000      -0.324797        -8.8382
  83   2.0000      -0.324058        -8.8181
  84   2.0000      -0.323301        -8.7975
  85   2.0000      -0.318148        -8.6572
  86   2.0000      -0.289661        -7.8821
  87   2.0000      -0.221425        -6.0253
  88   0.0000       0.041109         1.1186
  89   0.0000       0.044966         1.2236
  90   0.0000       0.052698         1.4340
  91   0.0000       0.054472         1.4823
  92   0.0000       0.067382         1.8336

MULLIKEN ATOMIC CHARGES
-----------------------
   0 C :   -0.210801
   1 C :   -0.260003
   2 C :    0.086963
   3 C :    0.087545
   4 C :   -0.259846
   5 C :   -0.211525
   6 C :    0.088964
   7 C :    0.087855
   8 C :   -0.259929
   9 H :    0.181580
  10 C :   -0.212593
  11 C :   -0.211087
  12 C :   -0.260925
  13 H :    0.180878
  14 H :    0.180903
  15 H :    0.166942
  16 H :    0.166850
  17 H :    0.166854
  18 N :    0.057369
  19 C :    0.096721
  20 C :   -0.270303
  21 C :   -0.269679
  22 C :   -0.132199
  23 C :   -0.132921
  24 C :   -0.135493
  25 H :    0.172531
  26 H :    0.171894
  27 H :    0.170380
  28 H :    0.170404
  29 H :    0.173065
  30 H :    0.166981
  31 N :    0.057454
  32 C :    0.096906
  33 C :   -0.270939
  34 C :   -0.270392
  35 C :   -0.131136
  36 H :    0.170371
  37 C :   -0.131974
  38 H :    0.170395
  39 C :   -0.136611
  40 H :    0.172471
  41 H :    0.171959
  42 H :    0.173046
  43 H :    0.181073
Sum of atomic charges:   -0.0000000

LOEWDIN ATOMIC CHARGES
----------------------
   0 C :   -0.174378
   1 C :   -0.132863
   2 C :   -0.134980
   3 C :   -0.134980
   4 C :   -0.132862
   5 C :   -0.174381
   6 C :   -0.134978
   7 C :   -0.134975
   8 C :   -0.132866
   9 H :    0.162532
  10 C :   -0.174382
  11 C :   -0.174380
  12 C :   -0.132865
  13 H :    0.162530
  14 H :    0.162530
  15 H :    0.152345
  16 H :    0.152347
  17 H :    0.152345
  18 N :    0.270015
  19 C :   -0.179292
  20 C :   -0.102092
  21 C :   -0.102089
  22 C :   -0.140924
  23 C :   -0.140924
  24 C :   -0.141746
  25 H :    0.155828
  26 H :    0.155827
  27 H :    0.162509
  28 H :    0.162510
  29 H :    0.155069
  30 H :    0.152345
  31 N :    0.270016
  32 C :   -0.179292
  33 C :   -0.102092
  34 C :   -0.102091
  35 C :   -0.140922
  36 H :    0.162510
  37 C :   -0.140923
  38 H :    0.162510
  39 C :   -0.141748
  40 H :    0.155828
  41 H :    0.155826
  42 H :    0.155069
  43 H :    0.162530

  Mayer bond orders larger than 0.100000
B(  0-C ,  1-C ) :   1.3523 B(  0-C ,  5-C ) :   1.4444 B(  0-C , 30-H ) :   0.9856
B(  1-C ,  2-C ) :   1.4410 B(  1-C , 13-H ) :   0.9659 B(  2-C ,  3-C ) :   1.3848
B(  2-C , 18-N ) :   1.0862 B(  3-C ,  4-C ) :   1.4414 B(  3-C , 31-N ) :   1.0858
B(  4-C ,  5-C ) :   1.3529 B(  4-C , 14-H ) :   0.9659 B(  5-C , 15-H ) :   0.9856
B(  6-C ,  7-C ) :   1.3861 B(  6-C , 12-C ) :   1.4401 B(  6-C , 31-N ) :   1.0859
B(  7-C ,  8-C ) :   1.4399 B(  7-C , 18-N ) :   1.0860 B(  8-C ,  9-H ) :   0.9656
B(  8-C , 10-C ) :   1.3525 B( 10-C , 11-C ) :   1.4439 B( 10-C , 16-H ) :   0.9864
B( 11-C , 12-C ) :   1.3528 B( 11-C , 17-H ) :   0.9858 B( 12-C , 43-H ) :   0.9661
B( 18-N , 32-C ) :   0.7287 B( 19-C , 20-C ) :   1.4971 B( 19-C , 21-C ) :   1.4976
B( 19-C , 31-N ) :   0.7287 B( 20-C , 22-C ) :   1.4224 B( 20-C , 27-H ) :   0.9842
B( 21-C , 23-C ) :   1.4216 B( 21-C , 28-H ) :   0.9841 B( 22-C , 24-C ) :   1.3952
B( 22-C , 25-H ) :   0.9751 B( 23-C , 24-C ) :   1.3941 B( 23-C , 26-H ) :   0.9763
B( 24-C , 29-H ) :   0.9742 B( 32-C , 33-C ) :   1.4970 B( 32-C , 34-C ) :   1.4969
B( 33-C , 35-C ) :   1.4224 B( 33-C , 36-H ) :   0.9842 B( 34-C , 37-C ) :   1.4214
B( 34-C , 38-H ) :   0.9842 B( 35-C , 39-C ) :   1.3947 B( 35-C , 40-H ) :   0.9752
B( 37-C , 39-C ) :   1.3936 B( 37-C , 41-H ) :   0.9762 B( 39-C , 42-H ) :   0.9743

MP2 TOTAL ENERGY:    -1033.882555400 Eh

-----------------------------------------------------------------------------
         ABSORPTION SPECTRUM VIA TRANSITION ELECTRIC DIPOLE MOMENTS
-----------------------------------------------------------------------------
State   Energy    Wavelength  fosc         T2        TX        TY        TZ
        (cm-1)      (nm)                 (au**2)    (au)      (au)      (au)
-----------------------------------------------------------------------------
   1   26254.7    380.9   0.000000000   0.00000  -0.00001   0.00000   0.00007
   2   28330.8    353.0   0.258183923   3.00018  -0.00003  -1.73210   0.00018
   3   31885.5    313.6   0.000000000   0.00000   0.00000   0.00004   0.00004
   4   31427.6    318.2   0.000000034   0.00000   0.00060  -0.00004  -0.00002
   5   31824.3    314.2   0.000000119   0.00000   0.00109  -0.00018   0.00002
   6   34525.6    289.6   0.000000016   0.00000  -0.00001  -0.00004   0.00039
   7   34950.9    286.1   0.055055617   0.51858   0.00005  -0.72013  -0.00017
   8   40429.5    247.3   0.001102770   0.00898  -0.00034  -0.00051   0.09476
   9   40404.7    247.5   0.000000404   0.00000   0.00020  -0.00101   0.00149
  10   44333.7    225.6   0.263376634   1.95577  -1.39849   0.00003  -0.00014
  11   44020.6    227.2   0.012972130   0.09701   0.00050   0.00046  -0.31147
  12   41156.9    243.0   1.243044429   9.94304   0.00003   3.15326  -0.00008
  13   49629.5    201.5   0.000000030   0.00000   0.00044  -0.00002  -0.00006
  14   49489.1    202.1   0.015911899   0.10585  -0.32534  -0.00002   0.00004
  15   46054.6    217.1   0.000000028   0.00000   0.00010  -0.00001  -0.00044
  16   48008.1    208.3   1.544498628  10.59127  -3.25442   0.00000   0.00008
  17   47134.9    212.2   0.000000002   0.00000   0.00008   0.00004   0.00009
  18   49034.7    203.9   0.002633890   0.01768   0.00011  -0.00000   0.13298
  19   53480.0    187.0   0.000001000   0.00001  -0.00047   0.00081  -0.00230
  20   53560.2    186.7   1.196759570   7.35598   0.00083  -0.00057  -2.71219
  21   52821.6    189.3   1.565456363   9.75674   3.12358   0.00000   0.00074
  22   47081.7    212.4   0.000021343   0.00015   0.01221  -0.00001   0.00034
  23   47436.0    210.8   0.000000925   0.00001   0.00253  -0.00004   0.00007
  24   53654.8    186.4   0.000000021   0.00000   0.00032   0.00001   0.00016
  25   52567.1    190.2   0.000000002   0.00000  -0.00003  -0.00009   0.00004
  26   53397.2    187.3   0.000000024   0.00000   0.00038   0.00001   0.00003
  27   52148.0    191.8   0.039100150   0.24684  -0.49683   0.00001   0.00001
  28   49629.6    201.5   0.004041610   0.02681  -0.00006   0.16374   0.00041
  29   50887.3    196.5   0.000000006   0.00000   0.00003   0.00001  -0.00019
  30   54706.2    182.8   0.000000023   0.00000  -0.00007  -0.00037  -0.00002

FINAL SINGLE POINT ENERGY     -1032.223952828032

DIPOLE MOMENT
-------------
                                X             Y             Z
Electronic contribution:     -0.00003      -0.00002       0.00043
Nuclear contribution   :     -0.00000      -0.00000      -0.00049
                        -----------------------------------------
Total Dipole Moment    :     -0.00003      -0.00003      -0.00006
                        -----------------------------------------
Magnitude (a.u.)       :      0.00007
Magnitude (Debye)      :      0.00018

Rotational constants in cm-1:     0.013190     0.005068     0.003964
Rotational constants in MHz :   395.437241   151.935170   118.847327

                             ****ORCA TERMINATED NORMALLY****
TOTAL RUN TIME: 0 days 3 hours 34 minutes 41 seconds 712 msec
