                         Program Version 5.0.2 -  RELEASE  -
|  1> %maxcore 20000
|  2> %pal
|  3>  nprocs= 4
|  4> end
|  5> ! RI-B2GP-PLYP   def2-TZVP def2/J def2-TZVP/C RIJCOSX CPCM TightSCF
|  6> %TDDFT
|  7>    NROOTS   30
|  8>    dcorr 4
|  9>    TDA      FALSE
| 10> END
| 11>
| 12> %CPCM
| 13>    SMD          TRUE
| 14>    SMDsolvent   "N,N-DIMETHYLFORMAMIDE"
| 15> END
| 16>
| 17>
| 18> * xyz 0 1
| 19> C                   0.68932400   -3.64378400    0.00004200
| 20> C                   1.38003700   -2.43359300    0.00004800
| 21> C                   0.70476900   -1.21932900    0.00003100
| 22> C                  -0.70477600   -1.21932500    0.00005900
| 23> C                  -1.38005700   -2.43358000    0.00003100
| 24> C                  -0.68935600   -3.64377700    0.00001900
| 25> C                  -0.70476900    1.21932900   -0.00000200
| 26> C                   0.70477700    1.21932400   -0.00009000
| 27> C                   1.38005600    2.43358200   -0.00030700
| 28> H                   2.46138000    2.43402900   -0.00042300
| 29> C                   0.68935500    3.64377800   -0.00036700
| 30> C                  -0.68932600    3.64378300   -0.00022100
| 31> C                  -1.38003800    2.43359200   -0.00005200
| 32> H                   2.46136100   -2.43405500    0.00007000
| 33> H                  -2.46138100   -2.43402700    0.00003600
| 34> H                  -1.24454000   -4.57263300   -0.00000100
| 35> H                   1.24453800    4.57263400   -0.00052600
| 36> H                  -1.24450200    4.57264300   -0.00024400
| 37> N                   1.38907800   -0.00000400    0.00003800
| 38> C                  -2.81718700    0.00000400    0.00008900
| 39> C                  -3.50829500   -0.00010200    1.20463900
| 40> C                  -3.50818700    0.00011100   -1.20452700
| 41> C                  -4.89502400   -0.00010300    1.20212500
| 42> C                  -4.89491500    0.00011400   -1.20213700
| 43> C                  -5.58872000    0.00000700   -0.00003600
| 44> H                  -5.43460900   -0.00018700    2.14065000
| 45> H                  -5.43441600    0.00019900   -2.14071000
| 46> H                  -2.95224600   -0.00018600    2.13431600
| 47> H                  -2.95205700    0.00019300   -2.13415600
| 48> H                  -6.67129700    0.00000800   -0.00008600
| 49> H                   1.24449900   -4.57264400    0.00005700
| 50> N                  -1.38907700    0.00000400    0.00016300
| 51> C                   2.81718700   -0.00000400    0.00005600
| 52> C                   3.50821800    0.00061200    1.20465200
| 53> C                   3.50826600   -0.00062100   -1.20451300
| 54> C                   4.89494600    0.00062000    1.20222900
| 55> H                   2.95210800    0.00109100    2.13429300
| 56> C                   4.89499500   -0.00063200   -1.20203300
| 57> H                   2.95219700   -0.00109900   -2.13417800
| 58> C                   5.58872100   -0.00000700    0.00011200
| 59> H                   5.43447100    0.00110500    2.14078800
| 60> H                   5.43455600   -0.00111800   -2.14057100
| 61> H                   6.67129800   -0.00000800    0.00013500
| 62> H                  -2.46136100    2.43405200    0.00004800
| 63> *
| 64>
| 65>
| 66>                          ****END OF INPUT****

CARTESIAN COORDINATES (ANGSTROEM)
---------------------------------
  C      0.689324   -3.643784    0.000042
  C      1.380037   -2.433593    0.000048
  C      0.704769   -1.219329    0.000031
  C     -0.704776   -1.219325    0.000059
  C     -1.380057   -2.433580    0.000031
  C     -0.689356   -3.643777    0.000019
  C     -0.704769    1.219329   -0.000002
  C      0.704777    1.219324   -0.000090
  C      1.380056    2.433582   -0.000307
  H      2.461380    2.434029   -0.000423
  C      0.689355    3.643778   -0.000367
  C     -0.689326    3.643783   -0.000221
  C     -1.380038    2.433592   -0.000052
  H      2.461361   -2.434055    0.000070
  H     -2.461381   -2.434027    0.000036
  H     -1.244540   -4.572633   -0.000001
  H      1.244538    4.572634   -0.000526
  H     -1.244502    4.572643   -0.000244
  N      1.389078   -0.000004    0.000038
  C     -2.817187    0.000004    0.000089
  C     -3.508295   -0.000102    1.204639
  C     -3.508187    0.000111   -1.204527
  C     -4.895024   -0.000103    1.202125
  C     -4.894915    0.000114   -1.202137
  C     -5.588720    0.000007   -0.000036
  H     -5.434609   -0.000187    2.140650
  H     -5.434416    0.000199   -2.140710
  H     -2.952246   -0.000186    2.134316
  H     -2.952057    0.000193   -2.134156
  H     -6.671297    0.000008   -0.000086
  H      1.244499   -4.572644    0.000057
  N     -1.389077    0.000004    0.000163
  C      2.817187   -0.000004    0.000056
  C      3.508218    0.000612    1.204652
  C      3.508266   -0.000621   -1.204513
  C      4.894946    0.000620    1.202229
  H      2.952108    0.001091    2.134293
  C      4.894995   -0.000632   -1.202033
  H      2.952197   -0.001099   -2.134178
  C      5.588721   -0.000007    0.000112
  H      5.434471    0.001105    2.140788
  H      5.434556   -0.001118   -2.140571
  H      6.671298   -0.000008    0.000135
  H     -2.461361    2.434052    0.000048

 Total Charge           Charge          ....    0
 Multiplicity           Mult            ....    1
 Number of Electrons    NEL             ....  176
 Basis Dimension        Dim             ....  914

ORBITAL ENERGIES
----------------

  NO   OCC          E(Eh)            E(eV)
   0   2.0000     -15.055444      -409.6795
   1   2.0000     -15.055439      -409.6793
   2   2.0000     -10.826682      -294.6090
   3   2.0000     -10.826657      -294.6083
   4   2.0000     -10.825811      -294.5853
   5   2.0000     -10.825804      -294.5851
   6   2.0000     -10.816408      -294.3294
   7   2.0000     -10.816406      -294.3294
   8   2.0000     -10.779340      -293.3207
   9   2.0000     -10.779338      -293.3207
  10   2.0000     -10.779146      -293.3155
  11   2.0000     -10.779146      -293.3155
  12   2.0000     -10.778489      -293.2976
  13   2.0000     -10.778488      -293.2976
  14   2.0000     -10.778142      -293.2881
  15   2.0000     -10.778141      -293.2881
  16   2.0000     -10.777550      -293.2720
  17   2.0000     -10.777550      -293.2720
  18   2.0000     -10.770061      -293.0683
  19   2.0000     -10.770060      -293.0682
  20   2.0000     -10.770057      -293.0681
  21   2.0000     -10.770056      -293.0681
  22   2.0000     -10.767545      -292.9998
  23   2.0000     -10.767545      -292.9998
  24   2.0000     -10.766536      -292.9724
  25   2.0000     -10.766536      -292.9723
  26   2.0000      -1.182342       -32.1732
  27   2.0000      -1.136574       -30.9278
  28   2.0000      -1.036620       -28.2079
  29   2.0000      -1.036591       -28.2071
  30   2.0000      -1.024696       -27.8834
  31   2.0000      -0.998964       -27.1832
  32   2.0000      -0.924863       -25.1668
  33   2.0000      -0.917787       -24.9742
  34   2.0000      -0.913325       -24.8528
  35   2.0000      -0.908118       -24.7111
  36   2.0000      -0.908095       -24.7105
  37   2.0000      -0.900964       -24.5165
  38   2.0000      -0.877337       -23.8736
  39   2.0000      -0.841022       -22.8854
  40   2.0000      -0.781253       -21.2590
  41   2.0000      -0.769856       -20.9489
  42   2.0000      -0.742923       -20.2160
  43   2.0000      -0.742437       -20.2027
  44   2.0000      -0.738856       -20.1053
  45   2.0000      -0.726976       -19.7820
  46   2.0000      -0.702005       -19.1025
  47   2.0000      -0.680823       -18.5261
  48   2.0000      -0.674065       -18.3422
  49   2.0000      -0.644552       -17.5391
  50   2.0000      -0.642254       -17.4766
  51   2.0000      -0.605367       -16.4729
  52   2.0000      -0.594905       -16.1882
  53   2.0000      -0.586286       -15.9537
  54   2.0000      -0.581760       -15.8305
  55   2.0000      -0.571876       -15.5615
  56   2.0000      -0.569669       -15.5015
  57   2.0000      -0.566697       -15.4206
  58   2.0000      -0.549322       -14.9478
  59   2.0000      -0.535323       -14.5669
  60   2.0000      -0.533195       -14.5090
  61   2.0000      -0.529670       -14.4131
  62   2.0000      -0.526266       -14.3204
  63   2.0000      -0.524724       -14.2785
  64   2.0000      -0.521216       -14.1830
  65   2.0000      -0.515621       -14.0308
  66   2.0000      -0.513881       -13.9834
  67   2.0000      -0.466522       -12.6947
  68   2.0000      -0.461228       -12.5506
  69   2.0000      -0.459590       -12.5061
  70   2.0000      -0.458193       -12.4681
  71   2.0000      -0.452492       -12.3129
  72   2.0000      -0.451361       -12.2822
  73   2.0000      -0.450277       -12.2527
  74   2.0000      -0.439511       -11.9597
  75   2.0000      -0.437300       -11.8995
  76   2.0000      -0.436902       -11.8887
  77   2.0000      -0.422270       -11.4905
  78   2.0000      -0.415088       -11.2951
  79   2.0000      -0.394668       -10.7395
  80   2.0000      -0.324383        -8.8269
  81   2.0000      -0.317174        -8.6308
  82   2.0000      -0.311362        -8.4726
  83   2.0000      -0.310654        -8.4533
  84   2.0000      -0.309816        -8.4305
  85   2.0000      -0.304601        -8.2886
  86   2.0000      -0.276482        -7.5234
  87   2.0000      -0.209132        -5.6908
  88   0.0000       0.042718         1.1624
  89   0.0000       0.045904         1.2491
  90   0.0000       0.053575         1.4578
  91   0.0000       0.055335         1.5057
  92   0.0000       0.068153         1.8545

MULLIKEN ATOMIC CHARGES
-----------------------
   0 C :   -0.202894
   1 C :   -0.237530
   2 C :    0.099222
   3 C :    0.099678
   4 C :   -0.237351
   5 C :   -0.203587
   6 C :    0.100995
   7 C :    0.100075
   8 C :   -0.237446
   9 H :    0.171756
  10 C :   -0.204605
  11 C :   -0.203207
  12 C :   -0.238329
  13 H :    0.171072
  14 H :    0.171078
  15 H :    0.156631
  16 H :    0.156546
  17 H :    0.156550
  18 N :   -0.017904
  19 C :    0.136396
  20 C :   -0.261001
  21 C :   -0.260425
  22 C :   -0.126066
  23 C :   -0.126737
  24 C :   -0.130800
  25 H :    0.163482
  26 H :    0.162872
  27 H :    0.161464
  28 H :    0.161484
  29 H :    0.164047
  30 H :    0.156671
  31 N :   -0.017844
  32 C :    0.136615
  33 C :   -0.261652
  34 C :   -0.261125
  35 C :   -0.125037
  36 H :    0.161464
  37 C :   -0.125831
  38 H :    0.161484
  39 C :   -0.131881
  40 H :    0.163431
  41 H :    0.162935
  42 H :    0.164032
  43 H :    0.171271
Sum of atomic charges:   -0.0000000

LOEWDIN ATOMIC CHARGES
----------------------
   0 C :   -0.172487
   1 C :   -0.131334
   2 C :   -0.131381
   3 C :   -0.131381
   4 C :   -0.131333
   5 C :   -0.172490
   6 C :   -0.131379
   7 C :   -0.131377
   8 C :   -0.131336
   9 H :    0.159231
  10 C :   -0.172492
  11 C :   -0.172490
  12 C :   -0.131335
  13 H :    0.159230
  14 H :    0.159230
  15 H :    0.148845
  16 H :    0.148847
  17 H :    0.148845
  18 N :    0.268923
  19 C :   -0.172345
  20 C :   -0.100006
  21 C :   -0.100003
  22 C :   -0.138799
  23 C :   -0.138798
  24 C :   -0.139723
  25 H :    0.152594
  26 H :    0.152592
  27 H :    0.158979
  28 H :    0.158980
  29 H :    0.151863
  30 H :    0.148845
  31 N :    0.268923
  32 C :   -0.172346
  33 C :   -0.100007
  34 C :   -0.100005
  35 C :   -0.138797
  36 H :    0.158980
  37 C :   -0.138798
  38 H :    0.158980
  39 C :   -0.139725
  40 H :    0.152594
  41 H :    0.152592
  42 H :    0.151864
  43 H :    0.159230

  Mayer bond orders larger than 0.100000
B(  0-C ,  1-C ) :   1.3553 B(  0-C ,  5-C ) :   1.4466 B(  0-C , 30-H ) :   0.9879
B(  1-C ,  2-C ) :   1.4308 B(  1-C , 13-H ) :   0.9679 B(  2-C ,  3-C ) :   1.3597
B(  2-C , 18-N ) :   1.0808 B(  3-C ,  4-C ) :   1.4311 B(  3-C , 31-N ) :   1.0805
B(  4-C ,  5-C ) :   1.3558 B(  4-C , 14-H ) :   0.9680 B(  5-C , 15-H ) :   0.9879
B(  6-C ,  7-C ) :   1.3608 B(  6-C , 12-C ) :   1.4300 B(  6-C , 31-N ) :   1.0806
B(  7-C ,  8-C ) :   1.4299 B(  7-C , 18-N ) :   1.0807 B(  8-C ,  9-H ) :   0.9677
B(  8-C , 10-C ) :   1.3556 B( 10-C , 11-C ) :   1.4462 B( 10-C , 16-H ) :   0.9887
B( 11-C , 12-C ) :   1.3558 B( 11-C , 17-H ) :   0.9881 B( 12-C , 43-H ) :   0.9681
B( 18-N , 32-C ) :   0.7064 B( 19-C , 20-C ) :   1.4787 B( 19-C , 21-C ) :   1.4791
B( 19-C , 31-N ) :   0.7063 B( 20-C , 22-C ) :   1.4151 B( 20-C , 27-H ) :   0.9865
B( 21-C , 23-C ) :   1.4143 B( 21-C , 28-H ) :   0.9864 B( 22-C , 24-C ) :   1.3949
B( 22-C , 25-H ) :   0.9787 B( 23-C , 24-C ) :   1.3939 B( 23-C , 26-H ) :   0.9798
B( 24-C , 29-H ) :   0.9763 B( 32-C , 33-C ) :   1.4786 B( 32-C , 34-C ) :   1.4785
B( 33-C , 35-C ) :   1.4152 B( 33-C , 36-H ) :   0.9865 B( 34-C , 37-C ) :   1.4142
B( 34-C , 38-H ) :   0.9865 B( 35-C , 39-C ) :   1.3945 B( 35-C , 40-H ) :   0.9787
B( 37-C , 39-C ) :   1.3934 B( 37-C , 41-H ) :   0.9797 B( 39-C , 42-H ) :   0.9764

MP2 TOTAL ENERGY:    -1034.171268316 Eh

-----------------------------------------------------------------------------
         ABSORPTION SPECTRUM VIA TRANSITION ELECTRIC DIPOLE MOMENTS
-----------------------------------------------------------------------------
State   Energy    Wavelength  fosc         T2        TX        TY        TZ
        (cm-1)      (nm)                 (au**2)    (au)      (au)      (au)
-----------------------------------------------------------------------------
   1   25951.7    385.3   0.000000000   0.00000   0.00001  -0.00000  -0.00007
   2   28103.5    355.8   0.248540368   2.91146   0.00003   1.70630  -0.00018
   3   32035.1    312.2   0.000000000   0.00000  -0.00001  -0.00003  -0.00003
   4   29809.5    335.5   0.000000030   0.00000   0.00058  -0.00004  -0.00002
   5   30210.0    331.0   0.000000105   0.00000  -0.00105   0.00018  -0.00002
   6   32790.7    305.0   0.000000016   0.00000   0.00001   0.00003  -0.00040
   7   33677.7    296.9   0.065495035   0.64024   0.00005  -0.80015  -0.00019
   8   41405.7    241.5   0.010291495   0.08183  -0.00037   0.00019  -0.28605
   9   44161.4    226.4   0.272804991   2.03369   1.42608  -0.00004  -0.00006
  10   42091.0    237.6   0.000002300   0.00002  -0.00041  -0.00125  -0.00403
  11   42093.4    237.6   0.002405008   0.01881  -0.00019  -0.00076   0.13715
  12   41224.0    242.6   1.228986828   9.81459  -0.00003  -3.13282   0.00010
  13   49887.8    200.4   0.000000037   0.00000  -0.00049   0.00002   0.00005
  14   49717.3    201.1   0.018857190   0.12487  -0.35336  -0.00002   0.00003
  15   45367.1    220.4   0.000000028   0.00000   0.00009  -0.00001  -0.00044
  16   47391.1    211.0   1.348728094   9.36922  -3.06092   0.00000   0.00008
  17   45944.7    217.7   0.002285483   0.01638   0.00024  -0.00002   0.12797
  18   47333.1    211.3   0.000000002   0.00000  -0.00002  -0.00004  -0.00010
  19   48788.5    205.0   0.000000031   0.00000   0.00042  -0.00018   0.00001
  20   46157.7    216.6   0.000003837   0.00003   0.00523   0.00002   0.00014
  21   48946.0    204.3   0.000004001   0.00003  -0.00519   0.00002  -0.00016
  22   45541.7    219.6   0.000014721   0.00011   0.01031   0.00004   0.00024
  23   53106.6    188.3   0.000000955   0.00001  -0.00037   0.00075  -0.00229
  24   52206.3    191.5   1.735787362  10.94584  -3.30844  -0.00000   0.00724
  25   53189.9    188.0   1.161465447   7.18873  -0.00896  -0.00054  -2.68117
  26   53308.4    187.6   0.000000018   0.00000  -0.00029  -0.00002  -0.00016
  27   51214.3    195.3   0.000000693   0.00000   0.00193  -0.00084  -0.00002
  28   51508.0    194.1   0.014715798   0.09406  -0.30668   0.00002   0.00001
  29   47814.9    209.1   0.007566993   0.05210  -0.00005   0.22825   0.00061
  30   49397.0    202.4   0.000000006   0.00000  -0.00005  -0.00001   0.00020

FINAL SINGLE POINT ENERGY     -1032.341179621352

DIPOLE MOMENT
-------------
                                X             Y             Z
Electronic contribution:     -0.00003      -0.00002       0.00044
Nuclear contribution   :     -0.00000      -0.00000      -0.00049
                        -----------------------------------------
Total Dipole Moment    :     -0.00003      -0.00003      -0.00006
                        -----------------------------------------
Magnitude (a.u.)       :      0.00007
Magnitude (Debye)      :      0.00017

Rotational constants in cm-1:     0.013190     0.005068     0.003964
Rotational constants in MHz :   395.437241   151.935170   118.847327

                             ****ORCA TERMINATED NORMALLY****
TOTAL RUN TIME: 0 days 5 hours 45 minutes 33 seconds 697 msec
