                         Program Version 5.0.2 -  RELEASE  -
|  1> %maxcore 20000
|  2> %pal
|  3>  nprocs= 4
|  4> end
|  5> ! RI-wPBEPP86   def2-TZVP def2/J def2-TZVP/C RIJCOSX CPCM TightSCF
|  6> %TDDFT
|  7>    NROOTS   30
|  8>    dcorr 1
|  9>    TDA      FALSE
| 10> END
| 11>
| 12> %CPCM
| 13>    SMD          TRUE
| 14>    SMDsolvent   "N,N-DIMETHYLFORMAMIDE"
| 15> END
| 16>
| 17>
| 18> * xyz 0 1
| 19> C                   0.68932400   -3.64378400    0.00004200
| 20> C                   1.38003700   -2.43359300    0.00004800
| 21> C                   0.70476900   -1.21932900    0.00003100
| 22> C                  -0.70477600   -1.21932500    0.00005900
| 23> C                  -1.38005700   -2.43358000    0.00003100
| 24> C                  -0.68935600   -3.64377700    0.00001900
| 25> C                  -0.70476900    1.21932900   -0.00000200
| 26> C                   0.70477700    1.21932400   -0.00009000
| 27> C                   1.38005600    2.43358200   -0.00030700
| 28> H                   2.46138000    2.43402900   -0.00042300
| 29> C                   0.68935500    3.64377800   -0.00036700
| 30> C                  -0.68932600    3.64378300   -0.00022100
| 31> C                  -1.38003800    2.43359200   -0.00005200
| 32> H                   2.46136100   -2.43405500    0.00007000
| 33> H                  -2.46138100   -2.43402700    0.00003600
| 34> H                  -1.24454000   -4.57263300   -0.00000100
| 35> H                   1.24453800    4.57263400   -0.00052600
| 36> H                  -1.24450200    4.57264300   -0.00024400
| 37> N                   1.38907800   -0.00000400    0.00003800
| 38> C                  -2.81718700    0.00000400    0.00008900
| 39> C                  -3.50829500   -0.00010200    1.20463900
| 40> C                  -3.50818700    0.00011100   -1.20452700
| 41> C                  -4.89502400   -0.00010300    1.20212500
| 42> C                  -4.89491500    0.00011400   -1.20213700
| 43> C                  -5.58872000    0.00000700   -0.00003600
| 44> H                  -5.43460900   -0.00018700    2.14065000
| 45> H                  -5.43441600    0.00019900   -2.14071000
| 46> H                  -2.95224600   -0.00018600    2.13431600
| 47> H                  -2.95205700    0.00019300   -2.13415600
| 48> H                  -6.67129700    0.00000800   -0.00008600
| 49> H                   1.24449900   -4.57264400    0.00005700
| 50> N                  -1.38907700    0.00000400    0.00016300
| 51> C                   2.81718700   -0.00000400    0.00005600
| 52> C                   3.50821800    0.00061200    1.20465200
| 53> C                   3.50826600   -0.00062100   -1.20451300
| 54> C                   4.89494600    0.00062000    1.20222900
| 55> H                   2.95210800    0.00109100    2.13429300
| 56> C                   4.89499500   -0.00063200   -1.20203300
| 57> H                   2.95219700   -0.00109900   -2.13417800
| 58> C                   5.58872100   -0.00000700    0.00011200
| 59> H                   5.43447100    0.00110500    2.14078800
| 60> H                   5.43455600   -0.00111800   -2.14057100
| 61> H                   6.67129800   -0.00000800    0.00013500
| 62> H                  -2.46136100    2.43405200    0.00004800
| 63> *
| 64>
| 65>
| 66>                          ****END OF INPUT****

CARTESIAN COORDINATES (ANGSTROEM)
---------------------------------
  C      0.689324   -3.643784    0.000042
  C      1.380037   -2.433593    0.000048
  C      0.704769   -1.219329    0.000031
  C     -0.704776   -1.219325    0.000059
  C     -1.380057   -2.433580    0.000031
  C     -0.689356   -3.643777    0.000019
  C     -0.704769    1.219329   -0.000002
  C      0.704777    1.219324   -0.000090
  C      1.380056    2.433582   -0.000307
  H      2.461380    2.434029   -0.000423
  C      0.689355    3.643778   -0.000367
  C     -0.689326    3.643783   -0.000221
  C     -1.380038    2.433592   -0.000052
  H      2.461361   -2.434055    0.000070
  H     -2.461381   -2.434027    0.000036
  H     -1.244540   -4.572633   -0.000001
  H      1.244538    4.572634   -0.000526
  H     -1.244502    4.572643   -0.000244
  N      1.389078   -0.000004    0.000038
  C     -2.817187    0.000004    0.000089
  C     -3.508295   -0.000102    1.204639
  C     -3.508187    0.000111   -1.204527
  C     -4.895024   -0.000103    1.202125
  C     -4.894915    0.000114   -1.202137
  C     -5.588720    0.000007   -0.000036
  H     -5.434609   -0.000187    2.140650
  H     -5.434416    0.000199   -2.140710
  H     -2.952246   -0.000186    2.134316
  H     -2.952057    0.000193   -2.134156
  H     -6.671297    0.000008   -0.000086
  H      1.244499   -4.572644    0.000057
  N     -1.389077    0.000004    0.000163
  C      2.817187   -0.000004    0.000056
  C      3.508218    0.000612    1.204652
  C      3.508266   -0.000621   -1.204513
  C      4.894946    0.000620    1.202229
  H      2.952108    0.001091    2.134293
  C      4.894995   -0.000632   -1.202033
  H      2.952197   -0.001099   -2.134178
  C      5.588721   -0.000007    0.000112
  H      5.434471    0.001105    2.140788
  H      5.434556   -0.001118   -2.140571
  H      6.671298   -0.000008    0.000135
  H     -2.461361    2.434052    0.000048

 Total Charge           Charge          ....    0
 Multiplicity           Mult            ....    1
 Number of Electrons    NEL             ....  176
 Basis Dimension        Dim             ....  914

ORBITAL ENERGIES
----------------

  NO   OCC          E(Eh)            E(eV)
   0   2.0000     -15.164016      -412.6338
   1   2.0000     -15.164011      -412.6337
   2   2.0000     -10.919840      -297.1440
   3   2.0000     -10.919816      -297.1433
   4   2.0000     -10.918934      -297.1193
   5   2.0000     -10.918927      -297.1191
   6   2.0000     -10.908877      -296.8456
   7   2.0000     -10.908875      -296.8456
   8   2.0000     -10.870395      -295.7985
   9   2.0000     -10.870394      -295.7985
  10   2.0000     -10.870272      -295.7951
  11   2.0000     -10.870272      -295.7951
  12   2.0000     -10.869595      -295.7767
  13   2.0000     -10.869594      -295.7767
  14   2.0000     -10.869168      -295.7651
  15   2.0000     -10.869167      -295.7651
  16   2.0000     -10.868459      -295.7458
  17   2.0000     -10.868458      -295.7458
  18   2.0000     -10.862165      -295.5745
  19   2.0000     -10.862165      -295.5745
  20   2.0000     -10.862162      -295.5745
  21   2.0000     -10.862162      -295.5744
  22   2.0000     -10.859086      -295.4907
  23   2.0000     -10.859085      -295.4907
  24   2.0000     -10.858031      -295.4620
  25   2.0000     -10.858031      -295.4620
  26   2.0000      -1.249955       -34.0130
  27   2.0000      -1.202879       -32.7320
  28   2.0000      -1.101828       -29.9823
  29   2.0000      -1.101137       -29.9635
  30   2.0000      -1.088770       -29.6269
  31   2.0000      -1.063041       -28.9268
  32   2.0000      -0.986631       -26.8476
  33   2.0000      -0.979794       -26.6616
  34   2.0000      -0.975061       -26.5328
  35   2.0000      -0.968858       -26.3640
  36   2.0000      -0.968833       -26.3633
  37   2.0000      -0.961788       -26.1716
  38   2.0000      -0.937860       -25.5205
  39   2.0000      -0.900478       -24.5032
  40   2.0000      -0.839496       -22.8438
  41   2.0000      -0.827898       -22.5282
  42   2.0000      -0.799097       -21.7445
  43   2.0000      -0.798555       -21.7298
  44   2.0000      -0.795114       -21.6362
  45   2.0000      -0.783119       -21.3098
  46   2.0000      -0.757160       -20.6034
  47   2.0000      -0.735571       -20.0159
  48   2.0000      -0.730181       -19.8692
  49   2.0000      -0.698831       -19.0162
  50   2.0000      -0.696214       -18.9450
  51   2.0000      -0.657479       -17.8909
  52   2.0000      -0.646558       -17.5937
  53   2.0000      -0.637167       -17.3382
  54   2.0000      -0.635390       -17.2898
  55   2.0000      -0.624037       -16.9809
  56   2.0000      -0.621248       -16.9050
  57   2.0000      -0.618134       -16.8203
  58   2.0000      -0.598751       -16.2928
  59   2.0000      -0.584144       -15.8954
  60   2.0000      -0.583720       -15.8838
  61   2.0000      -0.579574       -15.7710
  62   2.0000      -0.575643       -15.6641
  63   2.0000      -0.575249       -15.6533
  64   2.0000      -0.569346       -15.4927
  65   2.0000      -0.565513       -15.3884
  66   2.0000      -0.562942       -15.3184
  67   2.0000      -0.513514       -13.9734
  68   2.0000      -0.512877       -13.9561
  69   2.0000      -0.512835       -13.9550
  70   2.0000      -0.504455       -13.7269
  71   2.0000      -0.502490       -13.6735
  72   2.0000      -0.500819       -13.6280
  73   2.0000      -0.495997       -13.4968
  74   2.0000      -0.485787       -13.2189
  75   2.0000      -0.483598       -13.1594
  76   2.0000      -0.482934       -13.1413
  77   2.0000      -0.467467       -12.7204
  78   2.0000      -0.462379       -12.5820
  79   2.0000      -0.444827       -12.1043
  80   2.0000      -0.370231       -10.0745
  81   2.0000      -0.362486        -9.8637
  82   2.0000      -0.355802        -9.6819
  83   2.0000      -0.355034        -9.6610
  84   2.0000      -0.354289        -9.6407
  85   2.0000      -0.348824        -9.4920
  86   2.0000      -0.320295        -8.7157
  87   2.0000      -0.250895        -6.8272
  88   0.0000       0.059740         1.6256
  89   0.0000       0.063527         1.7286
  90   0.0000       0.072544         1.9740
  91   0.0000       0.074424         2.0252
  92   0.0000       0.087766         2.3882

MULLIKEN ATOMIC CHARGES
-----------------------
   0 C :   -0.224884
   1 C :   -0.263433
   2 C :    0.100106
   3 C :    0.100908
   4 C :   -0.263363
   5 C :   -0.225614
   6 C :    0.102432
   7 C :    0.101264
   8 C :   -0.263357
   9 H :    0.200796
  10 C :   -0.227046
  11 C :   -0.225154
  12 C :   -0.264551
  13 H :    0.199930
  14 H :    0.199926
  15 H :    0.181751
  16 H :    0.181635
  17 H :    0.181645
  18 N :    0.015858
  19 C :    0.020893
  20 C :   -0.262498
  21 C :   -0.261805
  22 C :   -0.143482
  23 C :   -0.144283
  24 C :   -0.150769
  25 H :    0.187818
  26 H :    0.187067
  27 H :    0.187881
  28 H :    0.187906
  29 H :    0.188038
  30 H :    0.181797
  31 N :    0.015958
  32 C :    0.021283
  33 C :   -0.263369
  34 C :   -0.262748
  35 C :   -0.142187
  36 H :    0.187870
  37 C :   -0.143137
  38 H :    0.187890
  39 C :   -0.152062
  40 H :    0.187776
  41 H :    0.187115
  42 H :    0.188022
  43 H :    0.200175
Sum of atomic charges:   -0.0000000

LOEWDIN ATOMIC CHARGES
----------------------
   0 C :   -0.175814
   1 C :   -0.134624
   2 C :   -0.135850
   3 C :   -0.135849
   4 C :   -0.134623
   5 C :   -0.175817
   6 C :   -0.135848
   7 C :   -0.135845
   8 C :   -0.134627
   9 H :    0.164853
  10 C :   -0.175820
  11 C :   -0.175817
  12 C :   -0.134626
  13 H :    0.164852
  14 H :    0.164851
  15 H :    0.155198
  16 H :    0.155199
  17 H :    0.155197
  18 N :    0.268743
  19 C :   -0.182914
  20 C :   -0.104818
  21 C :   -0.104816
  22 C :   -0.142819
  23 C :   -0.142819
  24 C :   -0.143771
  25 H :    0.158577
  26 H :    0.158575
  27 H :    0.165377
  28 H :    0.165378
  29 H :    0.157789
  30 H :    0.155198
  31 N :    0.268743
  32 C :   -0.182915
  33 C :   -0.104819
  34 C :   -0.104818
  35 C :   -0.142817
  36 H :    0.165377
  37 C :   -0.142818
  38 H :    0.165378
  39 C :   -0.143773
  40 H :    0.158577
  41 H :    0.158574
  42 H :    0.157789
  43 H :    0.164851

  Mayer bond orders larger than 0.100000
B(  0-C ,  1-C ) :   1.3583 B(  0-C ,  5-C ) :   1.4442 B(  0-C , 30-H ) :   0.9805
B(  1-C ,  2-C ) :   1.4251 B(  1-C , 13-H ) :   0.9579 B(  2-C ,  3-C ) :   1.3722
B(  2-C , 18-N ) :   1.0877 B(  3-C ,  4-C ) :   1.4255 B(  3-C , 31-N ) :   1.0874
B(  4-C ,  5-C ) :   1.3588 B(  4-C , 14-H ) :   0.9580 B(  5-C , 15-H ) :   0.9805
B(  6-C ,  7-C ) :   1.3738 B(  6-C , 12-C ) :   1.4240 B(  6-C , 31-N ) :   1.0874
B(  7-C ,  8-C ) :   1.4239 B(  7-C , 18-N ) :   1.0876 B(  8-C ,  9-H ) :   0.9576
B(  8-C , 10-C ) :   1.3585 B( 10-C , 11-C ) :   1.4437 B( 10-C , 16-H ) :   0.9815
B( 11-C , 12-C ) :   1.3588 B( 11-C , 17-H ) :   0.9808 B( 12-C , 43-H ) :   0.9581
B( 18-N , 32-C ) :   0.7312 B( 19-C , 20-C ) :   1.4921 B( 19-C , 21-C ) :   1.4926
B( 19-C , 31-N ) :   0.7311 B( 20-C , 22-C ) :   1.4137 B( 20-C , 27-H ) :   0.9782
B( 21-C , 23-C ) :   1.4127 B( 21-C , 28-H ) :   0.9781 B( 22-C , 24-C ) :   1.3912
B( 22-C , 25-H ) :   0.9721 B( 23-C , 24-C ) :   1.3900 B( 23-C , 26-H ) :   0.9735
B( 24-C , 29-H ) :   0.9717 B( 32-C , 33-C ) :   1.4919 B( 32-C , 34-C ) :   1.4918
B( 33-C , 35-C ) :   1.4137 B( 33-C , 36-H ) :   0.9782 B( 34-C , 37-C ) :   1.4125
B( 34-C , 38-H ) :   0.9782 B( 35-C , 39-C ) :   1.3908 B( 35-C , 40-H ) :   0.9722
B( 37-C , 39-C ) :   1.3894 B( 37-C , 41-H ) :   0.9735 B( 39-C , 42-H ) :   0.9718

MP2 TOTAL ENERGY:    -1034.448218315 Eh

-----------------------------------------------------------------------------
         ABSORPTION SPECTRUM VIA TRANSITION ELECTRIC DIPOLE MOMENTS
-----------------------------------------------------------------------------
State   Energy    Wavelength  fosc         T2        TX        TY        TZ
        (cm-1)      (nm)                 (au**2)    (au)      (au)      (au)
-----------------------------------------------------------------------------
   1   26980.4    370.6   0.000000000   0.00000  -0.00001   0.00000   0.00007
   2   29308.4    341.2   0.283231571   3.18145   0.00002   1.78366  -0.00018
   3   32733.2    305.5   0.000000000   0.00000   0.00000   0.00006   0.00003
   4   32197.3    310.6   0.000000044   0.00000  -0.00067   0.00004   0.00003
   5   32641.8    306.4   0.000000158   0.00000  -0.00125   0.00015  -0.00003
   6   35864.6    278.8   0.000000032   0.00000   0.00000   0.00005  -0.00054
   7   36163.0    276.5   0.015738872   0.14328   0.00011  -0.37852  -0.00024
   8   42239.4    236.7   0.001148255   0.00895   0.00012  -0.00052  -0.09460
   9   42237.7    236.8   0.000000479   0.00000   0.00009   0.00061   0.00183
  10   46159.0    216.6   0.229571303   1.63733   1.27958   0.00002   0.00037
  11   43441.5    230.2   0.014760650   0.11186   0.00133   0.00021  -0.33445
  12   42219.3    236.9   1.335873596  10.41670   0.00000   3.22749  -0.00011
  13   50816.7    196.8   0.000000030   0.00000  -0.00044   0.00004   0.00006
  14   50666.0    197.4   0.015626385   0.10154  -0.31865  -0.00004   0.00004
  15   47071.8    212.4   0.000000021   0.00000  -0.00015  -0.00000   0.00035
  16   48859.9    204.7   2.037344658  13.72737  -3.70505   0.00000   0.00008
  17   48716.4    205.3   0.000000010   0.00000   0.00024   0.00006   0.00009
  18   53824.4    185.8   0.000001864   0.00001  -0.00039   0.00084  -0.00325
  19   50089.5    199.6   0.133555804   0.87779  -0.00018  -0.00018  -0.93691
  20   53537.2    186.8   1.104045152   6.78901   0.00020  -0.00057  -2.60557
  21   53515.1    186.9   1.139286497   7.00861   2.64738   0.00001   0.00018
  22   54163.8    184.6   0.000000026   0.00000   0.00039   0.00000   0.00009
  23   53559.8    186.7   0.000000004   0.00000  -0.00012   0.00010  -0.00002
  24   51851.1    192.9   0.000000013   0.00000  -0.00028  -0.00001  -0.00003
  25   52640.3    190.0   0.000000086   0.00000   0.00073  -0.00006   0.00005
  26   49210.8    203.2   0.000001774   0.00001   0.00345  -0.00003   0.00002
  27   52617.0    190.1   0.077544129   0.48517  -0.69654   0.00001   0.00001
  28   55571.2    179.9   0.000000026   0.00000   0.00012   0.00038   0.00001
  29   57998.5    172.4   0.000000023   0.00000  -0.00001   0.00036   0.00003
  30   56637.8    176.6   0.000000002   0.00000  -0.00002   0.00006  -0.00009

FINAL SINGLE POINT ENERGY     -1032.188638171430

DIPOLE MOMENT
-------------
                                X             Y             Z
Electronic contribution:     -0.00004      -0.00003       0.00043
Nuclear contribution   :     -0.00000      -0.00000      -0.00049
                        -----------------------------------------
Total Dipole Moment    :     -0.00004      -0.00003      -0.00006
                        -----------------------------------------
Magnitude (a.u.)       :      0.00008
Magnitude (Debye)      :      0.00020

Rotational constants in cm-1:     0.013190     0.005068     0.003964
Rotational constants in MHz :   395.437241   151.935170   118.847327

                             ****ORCA TERMINATED NORMALLY****
TOTAL RUN TIME: 1 days 3 hours 44 minutes 20 seconds 723 msec
