                         Program Version 5.0.2 -  RELEASE  -
|  1> %maxcore 24000
|  2> %pal
|  3>  nprocs= 8
|  4> end
|  5> ! RI-DSD-BLYP D3BJ def2-TZVP def2/J def2-TZVP/C RIJCOSX CPCM TightSCF
|  6> %TDDFT
|  7>    NROOTS   30
|  8>    dcorr 4
|  9>    doscs true
| 10>    scspar 0.333, 1.2, 0.43, 1.24
| 11>    TDA      FALSE
| 12> END
| 13>
| 14> %CPCM
| 15>    SMD          TRUE
| 16>    SMDsolvent   "N,N-DIMETHYLFORMAMIDE"
| 17> END
| 18>
| 19>
| 20> * xyz 0 1
| 21> C                   0.68932400   -3.64378400    0.00004200
| 22> C                   1.38003700   -2.43359300    0.00004800
| 23> C                   0.70476900   -1.21932900    0.00003100
| 24> C                  -0.70477600   -1.21932500    0.00005900
| 25> C                  -1.38005700   -2.43358000    0.00003100
| 26> C                  -0.68935600   -3.64377700    0.00001900
| 27> C                  -0.70476900    1.21932900   -0.00000200
| 28> C                   0.70477700    1.21932400   -0.00009000
| 29> C                   1.38005600    2.43358200   -0.00030700
| 30> H                   2.46138000    2.43402900   -0.00042300
| 31> C                   0.68935500    3.64377800   -0.00036700
| 32> C                  -0.68932600    3.64378300   -0.00022100
| 33> C                  -1.38003800    2.43359200   -0.00005200
| 34> H                   2.46136100   -2.43405500    0.00007000
| 35> H                  -2.46138100   -2.43402700    0.00003600
| 36> H                  -1.24454000   -4.57263300   -0.00000100
| 37> H                   1.24453800    4.57263400   -0.00052600
| 38> H                  -1.24450200    4.57264300   -0.00024400
| 39> N                   1.38907800   -0.00000400    0.00003800
| 40> C                  -2.81718700    0.00000400    0.00008900
| 41> C                  -3.50829500   -0.00010200    1.20463900
| 42> C                  -3.50818700    0.00011100   -1.20452700
| 43> C                  -4.89502400   -0.00010300    1.20212500
| 44> C                  -4.89491500    0.00011400   -1.20213700
| 45> C                  -5.58872000    0.00000700   -0.00003600
| 46> H                  -5.43460900   -0.00018700    2.14065000
| 47> H                  -5.43441600    0.00019900   -2.14071000
| 48> H                  -2.95224600   -0.00018600    2.13431600
| 49> H                  -2.95205700    0.00019300   -2.13415600
| 50> H                  -6.67129700    0.00000800   -0.00008600
| 51> H                   1.24449900   -4.57264400    0.00005700
| 52> N                  -1.38907700    0.00000400    0.00016300
| 53> C                   2.81718700   -0.00000400    0.00005600
| 54> C                   3.50821800    0.00061200    1.20465200
| 55> C                   3.50826600   -0.00062100   -1.20451300
| 56> C                   4.89494600    0.00062000    1.20222900
| 57> H                   2.95210800    0.00109100    2.13429300
| 58> C                   4.89499500   -0.00063200   -1.20203300
| 59> H                   2.95219700   -0.00109900   -2.13417800
| 60> C                   5.58872100   -0.00000700    0.00011200
| 61> H                   5.43447100    0.00110500    2.14078800
| 62> H                   5.43455600   -0.00111800   -2.14057100
| 63> H                   6.67129800   -0.00000800    0.00013500
| 64> H                  -2.46136100    2.43405200    0.00004800
| 65> *
| 66>
| 67>
| 68>                          ****END OF INPUT****

CARTESIAN COORDINATES (ANGSTROEM)
---------------------------------
  C      0.689324   -3.643784    0.000042
  C      1.380037   -2.433593    0.000048
  C      0.704769   -1.219329    0.000031
  C     -0.704776   -1.219325    0.000059
  C     -1.380057   -2.433580    0.000031
  C     -0.689356   -3.643777    0.000019
  C     -0.704769    1.219329   -0.000002
  C      0.704777    1.219324   -0.000090
  C      1.380056    2.433582   -0.000307
  H      2.461380    2.434029   -0.000423
  C      0.689355    3.643778   -0.000367
  C     -0.689326    3.643783   -0.000221
  C     -1.380038    2.433592   -0.000052
  H      2.461361   -2.434055    0.000070
  H     -2.461381   -2.434027    0.000036
  H     -1.244540   -4.572633   -0.000001
  H      1.244538    4.572634   -0.000526
  H     -1.244502    4.572643   -0.000244
  N      1.389078   -0.000004    0.000038
  C     -2.817187    0.000004    0.000089
  C     -3.508295   -0.000102    1.204639
  C     -3.508187    0.000111   -1.204527
  C     -4.895024   -0.000103    1.202125
  C     -4.894915    0.000114   -1.202137
  C     -5.588720    0.000007   -0.000036
  H     -5.434609   -0.000187    2.140650
  H     -5.434416    0.000199   -2.140710
  H     -2.952246   -0.000186    2.134316
  H     -2.952057    0.000193   -2.134156
  H     -6.671297    0.000008   -0.000086
  H      1.244499   -4.572644    0.000057
  N     -1.389077    0.000004    0.000163
  C      2.817187   -0.000004    0.000056
  C      3.508218    0.000612    1.204652
  C      3.508266   -0.000621   -1.204513
  C      4.894946    0.000620    1.202229
  H      2.952108    0.001091    2.134293
  C      4.894995   -0.000632   -1.202033
  H      2.952197   -0.001099   -2.134178
  C      5.588721   -0.000007    0.000112
  H      5.434471    0.001105    2.140788
  H      5.434556   -0.001118   -2.140571
  H      6.671298   -0.000008    0.000135
  H     -2.461361    2.434052    0.000048

 Total Charge           Charge          ....    0
 Multiplicity           Mult            ....    1
 Number of Electrons    NEL             ....  176
 Basis Dimension        Dim             ....  914

ORBITAL ENERGIES
----------------

  NO   OCC          E(Eh)            E(eV)
   0   2.0000     -15.115135      -411.3037
   1   2.0000     -15.115130      -411.3036
   2   2.0000     -10.877812      -296.0003
   3   2.0000     -10.877787      -295.9996
   4   2.0000     -10.876910      -295.9758
   5   2.0000     -10.876902      -295.9756
   6   2.0000     -10.867252      -295.7130
   7   2.0000     -10.867250      -295.7129
   8   2.0000     -10.830245      -294.7060
   9   2.0000     -10.830244      -294.7059
  10   2.0000     -10.830025      -294.7000
  11   2.0000     -10.830025      -294.7000
  12   2.0000     -10.829342      -294.6814
  13   2.0000     -10.829341      -294.6814
  14   2.0000     -10.828988      -294.6717
  15   2.0000     -10.828988      -294.6717
  16   2.0000     -10.828415      -294.6562
  17   2.0000     -10.828414      -294.6561
  18   2.0000     -10.821049      -294.4557
  19   2.0000     -10.821048      -294.4557
  20   2.0000     -10.821041      -294.4555
  21   2.0000     -10.821041      -294.4555
  22   2.0000     -10.818576      -294.3884
  23   2.0000     -10.818576      -294.3884
  24   2.0000     -10.817536      -294.3601
  25   2.0000     -10.817536      -294.3601
  26   2.0000      -1.196851       -32.5680
  27   2.0000      -1.150595       -31.3093
  28   2.0000      -1.050029       -28.5727
  29   2.0000      -1.049908       -28.5694
  30   2.0000      -1.037881       -28.2422
  31   2.0000      -1.011974       -27.5372
  32   2.0000      -0.936755       -25.4904
  33   2.0000      -0.929789       -25.3008
  34   2.0000      -0.925335       -25.1797
  35   2.0000      -0.920081       -25.0367
  36   2.0000      -0.920058       -25.0360
  37   2.0000      -0.912831       -24.8394
  38   2.0000      -0.889030       -24.1917
  39   2.0000      -0.852109       -23.1871
  40   2.0000      -0.791064       -21.5260
  41   2.0000      -0.779530       -21.2121
  42   2.0000      -0.752541       -20.4777
  43   2.0000      -0.752052       -20.4644
  44   2.0000      -0.748230       -20.3604
  45   2.0000      -0.736559       -20.0428
  46   2.0000      -0.711073       -19.3493
  47   2.0000      -0.689819       -18.7709
  48   2.0000      -0.681762       -18.5517
  49   2.0000      -0.652375       -17.7520
  50   2.0000      -0.649880       -17.6841
  51   2.0000      -0.613032       -16.6815
  52   2.0000      -0.602559       -16.3965
  53   2.0000      -0.593815       -16.1585
  54   2.0000      -0.589187       -16.0326
  55   2.0000      -0.579171       -15.7601
  56   2.0000      -0.577051       -15.7024
  57   2.0000      -0.573932       -15.6175
  58   2.0000      -0.556610       -15.1461
  59   2.0000      -0.542281       -14.7562
  60   2.0000      -0.540117       -14.6973
  61   2.0000      -0.536488       -14.5986
  62   2.0000      -0.533294       -14.5117
  63   2.0000      -0.531468       -14.4620
  64   2.0000      -0.528021       -14.3682
  65   2.0000      -0.522255       -14.2113
  66   2.0000      -0.520454       -14.1623
  67   2.0000      -0.473003       -12.8711
  68   2.0000      -0.466769       -12.7014
  69   2.0000      -0.465089       -12.6557
  70   2.0000      -0.464448       -12.6383
  71   2.0000      -0.458762       -12.4835
  72   2.0000      -0.456742       -12.4286
  73   2.0000      -0.456383       -12.4188
  74   2.0000      -0.445470       -12.1218
  75   2.0000      -0.443278       -12.0622
  76   2.0000      -0.442782       -12.0487
  77   2.0000      -0.428054       -11.6479
  78   2.0000      -0.420819       -11.4511
  79   2.0000      -0.399571       -10.8729
  80   2.0000      -0.327331        -8.9071
  81   2.0000      -0.319969        -8.7068
  82   2.0000      -0.313986        -8.5440
  83   2.0000      -0.313284        -8.5249
  84   2.0000      -0.312456        -8.5024
  85   2.0000      -0.307228        -8.3601
  86   2.0000      -0.279304        -7.6002
  87   2.0000      -0.211537        -5.7562
  88   0.0000       0.050655         1.3784
  89   0.0000       0.053789         1.4637
  90   0.0000       0.061771         1.6809
  91   0.0000       0.063583         1.7302
  92   0.0000       0.076569         2.0835

MULLIKEN ATOMIC CHARGES
-----------------------
   0 C :   -0.202237
   1 C :   -0.240700
   2 C :    0.101737
   3 C :    0.102423
   4 C :   -0.240573
   5 C :   -0.202931
   6 C :    0.103720
   7 C :    0.102763
   8 C :   -0.240653
   9 H :    0.171468
  10 C :   -0.204037
  11 C :   -0.202531
  12 C :   -0.241590
  13 H :    0.170751
  14 H :    0.170765
  15 H :    0.156742
  16 H :    0.156640
  17 H :    0.156646
  18 N :   -0.019279
  19 C :    0.148246
  20 C :   -0.266839
  21 C :   -0.266228
  22 C :   -0.125102
  23 C :   -0.125808
  24 C :   -0.130734
  25 H :    0.163361
  26 H :    0.162718
  27 H :    0.161408
  28 H :    0.161429
  29 H :    0.163881
  30 H :    0.156784
  31 N :   -0.019220
  32 C :    0.148427
  33 C :   -0.267492
  34 C :   -0.266915
  35 C :   -0.124045
  36 H :    0.161401
  37 C :   -0.124905
  38 H :    0.161426
  39 C :   -0.131826
  40 H :    0.163307
  41 H :    0.162782
  42 H :    0.163864
  43 H :    0.170957
Sum of atomic charges:   -0.0000000

LOEWDIN ATOMIC CHARGES
----------------------
   0 C :   -0.172007
   1 C :   -0.130886
   2 C :   -0.130715
   3 C :   -0.130715
   4 C :   -0.130885
   5 C :   -0.172010
   6 C :   -0.130714
   7 C :   -0.130711
   8 C :   -0.130889
   9 H :    0.158884
  10 C :   -0.172012
  11 C :   -0.172009
  12 C :   -0.130888
  13 H :    0.158882
  14 H :    0.158882
  15 H :    0.148500
  16 H :    0.148501
  17 H :    0.148499
  18 N :    0.267259
  19 C :   -0.171693
  20 C :   -0.099680
  21 C :   -0.099678
  22 C :   -0.138600
  23 C :   -0.138599
  24 C :   -0.139506
  25 H :    0.152186
  26 H :    0.152184
  27 H :    0.158565
  28 H :    0.158566
  29 H :    0.151453
  30 H :    0.148500
  31 N :    0.267259
  32 C :   -0.171694
  33 C :   -0.099681
  34 C :   -0.099680
  35 C :   -0.138598
  36 H :    0.158566
  37 C :   -0.138599
  38 H :    0.158566
  39 C :   -0.139508
  40 H :    0.152185
  41 H :    0.152183
  42 H :    0.151453
  43 H :    0.158882

  Mayer bond orders larger than 0.100000
B(  0-C ,  1-C ) :   1.3555 B(  0-C ,  5-C ) :   1.4483 B(  0-C , 30-H ) :   0.9887
B(  1-C ,  2-C ) :   1.4362 B(  1-C , 13-H ) :   0.9694 B(  2-C ,  3-C ) :   1.3620
B(  2-C , 18-N ) :   1.0802 B(  3-C ,  4-C ) :   1.4366 B(  3-C , 31-N ) :   1.0799
B(  4-C ,  5-C ) :   1.3559 B(  4-C , 14-H ) :   0.9694 B(  5-C , 15-H ) :   0.9888
B(  6-C ,  7-C ) :   1.3633 B(  6-C , 12-C ) :   1.4354 B(  6-C , 31-N ) :   1.0800
B(  7-C ,  8-C ) :   1.4352 B(  7-C , 18-N ) :   1.0801 B(  8-C ,  9-H ) :   0.9692
B(  8-C , 10-C ) :   1.3556 B( 10-C , 11-C ) :   1.4478 B( 10-C , 16-H ) :   0.9896
B( 11-C , 12-C ) :   1.3559 B( 11-C , 17-H ) :   0.9890 B( 12-C , 43-H ) :   0.9696
B( 18-N , 32-C ) :   0.7064 B( 19-C , 20-C ) :   1.4813 B( 19-C , 21-C ) :   1.4817
B( 19-C , 31-N ) :   0.7063 B( 20-C , 22-C ) :   1.4176 B( 20-C , 27-H ) :   0.9874
B( 21-C , 23-C ) :   1.4168 B( 21-C , 28-H ) :   0.9873 B( 22-C , 24-C ) :   1.3959
B( 22-C , 25-H ) :   0.9797 B( 23-C , 24-C ) :   1.3948 B( 23-C , 26-H ) :   0.9809
B( 24-C , 29-H ) :   0.9773 B( 32-C , 33-C ) :   1.4812 B( 32-C , 34-C ) :   1.4811
B( 33-C , 35-C ) :   1.4177 B( 33-C , 36-H ) :   0.9874 B( 34-C , 37-C ) :   1.4167
B( 34-C , 38-H ) :   0.9874 B( 35-C , 39-C ) :   1.3955 B( 35-C , 40-H ) :   0.9798
B( 37-C , 39-C ) :   1.3944 B( 37-C , 41-H ) :   0.9808 B( 39-C , 42-H ) :   0.9774

MP2 TOTAL ENERGY:    -1033.889206317 Eh

-----------------------------------------------------------------------------
         ABSORPTION SPECTRUM VIA TRANSITION ELECTRIC DIPOLE MOMENTS
-----------------------------------------------------------------------------
State   Energy    Wavelength  fosc         T2        TX        TY        TZ
        (cm-1)      (nm)                 (au**2)    (au)      (au)      (au)
-----------------------------------------------------------------------------
   1   18751.0    533.3   0.000000000   0.00000  -0.00001   0.00000   0.00007
   2   17285.0    578.5   0.157590845   3.00150   0.00003   1.73248  -0.00018
   3   22212.1    450.2   0.000000000   0.00000  -0.00000  -0.00004  -0.00003
   4   18436.1    542.4   0.000000020   0.00000  -0.00060   0.00004   0.00003
   5   18805.1    531.8   0.000000071   0.00000   0.00110  -0.00017   0.00003
   6   20220.4    494.6   0.000000013   0.00000  -0.00001  -0.00004   0.00046
   7   19991.7    500.2   0.031021947   0.51085  -0.00005   0.71474   0.00025
   8   35960.9    278.1   0.009153409   0.08380  -0.00041   0.00026  -0.28948
   9   40012.2    249.9   0.222860797   1.83365   1.35412  -0.00002  -0.00006
  10   30712.9    325.6   0.000001236   0.00001  -0.00032  -0.00079  -0.00354
  11   30757.1    325.1   0.001958026   0.02096   0.00023   0.00048  -0.14477
  12   30584.8    327.0   0.926175572   9.96927   0.00002   3.15741  -0.00011
  13   49537.7    201.9   0.000000023   0.00000  -0.00039   0.00003   0.00005
  14   48975.4    204.2   0.017278227   0.11614   0.34080   0.00003  -0.00003
  15   38676.1    258.6   0.000000023   0.00000   0.00010  -0.00001  -0.00043
  16   39831.8    251.1   1.320752388  10.91608  -3.30395   0.00000   0.00008
  17   37522.4    266.5   0.000000002   0.00000  -0.00007  -0.00004  -0.00009
  18   37646.5    265.6   0.002079557   0.01819   0.00016  -0.00002   0.13485
  19   41473.0    241.1   0.000000071   0.00000  -0.00063   0.00035  -0.00022
  20   47588.4    210.1   0.000001005   0.00001   0.00015  -0.00075   0.00252
  21   41875.2    238.8   0.000002699   0.00002  -0.00459  -0.00002  -0.00043
  22   48176.7    207.6   1.079482276   7.37656  -0.00068   0.00057   2.71598
  23   46055.5    217.1   1.345295935   9.61639   3.10103   0.00000   0.00062
  24   31236.8    320.1   0.000005164   0.00005   0.00737  -0.00000   0.00026
  25   30779.2    324.9   0.000000461   0.00000  -0.00222   0.00004  -0.00007
  26   46401.2    215.5   0.000000017   0.00000  -0.00032  -0.00001  -0.00014
  27   42827.6    233.5   0.000003503   0.00003   0.00518  -0.00037  -0.00002
  28   40565.6    246.5   0.034447244   0.27956  -0.52873   0.00000   0.00002
  29   46074.9    217.0   0.000000010   0.00000  -0.00001  -0.00001  -0.00027
  30   32915.1    303.8   0.002503079   0.02504  -0.00005   0.15823   0.00038

Dispersion correction           -0.043827919
FINAL SINGLE POINT ENERGY     -1031.811358800293

DIPOLE MOMENT
-------------
                                X             Y             Z
Electronic contribution:     -0.00003      -0.00002       0.00044
Nuclear contribution   :     -0.00000      -0.00000      -0.00049
                        -----------------------------------------
Total Dipole Moment    :     -0.00003      -0.00003      -0.00006
                        -----------------------------------------
Magnitude (a.u.)       :      0.00007
Magnitude (Debye)      :      0.00018

Rotational constants in cm-1:     0.013190     0.005068     0.003964
Rotational constants in MHz :   395.437241   151.935170   118.847327

                             ****ORCA TERMINATED NORMALLY****
TOTAL RUN TIME: 0 days 0 hours 54 minutes 36 seconds 986 msec
