 Gaussian 09, Revision E.01,

 ----------------------------------------------------------------------
 #p PBEPBE/def2TZVP opt freq=noraman nosymm int=ultrafine scrf=(SMD,sol
 vent=n,n-DiMethylFormamide) EmpiricalDispersion=GD3BJ
 ----------------------------------------------------------------------

 -----
 Title
 -----
 Symbolic Z-matrix:
 Charge =  0 Multiplicity = 1

 SCF Done:  E(RPBE-PBE) =  -1034.03897267     A.U. after   13 cycles
 SCF Done:  E(RPBE-PBE) =  -1034.03909837     A.U. after    8 cycles
 SCF Done:  E(RPBE-PBE) =  -1034.03911347     A.U. after    8 cycles
 Optimization completed.
    -- Stationary point found.
 Normal termination of Gaussian 09 at Sat Mar 27 11:05:16 2021.

 ---------------------------------------------------------------------
 #P Geom=AllCheck Guess=TCheck SCRF=Check GenChk RPBEPBE/def2TZVP Freq
 ---------------------------------------------------------------------

 Structure from the checkpoint file:  "cp.chk"
 -----
 Title
 -----
 Charge =  0 Multiplicity = 1

 SCF Done:  E(RPBE-PBE) =  -1034.03911347     A.U. after    1 cycles

  Exact polarizability: 555.109  -0.000 548.071   0.004  -0.003 344.777
 Approx polarizability: 704.926  -0.001 713.839   0.007  -0.000 458.765

                      1                      2                      3
                      A                      A                      A
 Frequencies --     18.0685                34.5585                40.1474
 Red. masses --      5.6618                 3.6672                 3.8868
 Frc consts  --      0.0011                 0.0026                 0.0037
 IR Inten    --      0.4287                 0.0000                 0.0000

                      4                      5                      6
                      A                      A                      A
 Frequencies --     42.4729                47.5167                52.5259
 Red. masses --      5.4309                 4.3978                 5.2411
 Frc consts  --      0.0058                 0.0059                 0.0085
 IR Inten    --      0.8250                 0.0000                 1.2748

                      7                      8                      9
                      A                      A                      A
 Frequencies --     71.0090               112.3105               164.3266
 Red. masses --      4.8933                 3.7879                 4.6911
 Frc consts  --      0.0145                 0.0282                 0.0746
 IR Inten    --      0.0000                 0.0000                 0.0000

                     10                     11                     12
                      A                      A                      A
 Frequencies --    202.2468               205.0423               241.8744
 Red. masses --      6.7671                 5.2244                 4.7395
 Frc consts  --      0.1631                 0.1294                 0.1634
 IR Inten    --      0.0000                 0.0052                 4.4478

                     13                     14                     15
                      A                      A                      A
 Frequencies --    247.2338               259.0701               259.4818
 Red. masses --      4.1782                 4.8560                 4.2606
 Frc consts  --      0.1505                 0.1920                 0.1690
 IR Inten    --      0.0000                 0.0000                 0.8276

                     16                     17                     18
                      A                      A                      A
 Frequencies --    393.8557               398.6620               401.9415
 Red. masses --      4.4348                 5.4571                 6.8519
 Frc consts  --      0.4053                 0.5110                 0.6522
 IR Inten    --      7.2730                 8.1506                 0.0000

                     19                     20                     21
                      A                      A                      A
 Frequencies --    403.2434               403.5062               418.4002
 Red. masses --      2.9080                 2.9059                 6.2237
 Frc consts  --      0.2786                 0.2788                 0.6419
 IR Inten    --      0.0000                 0.0000                 0.0000

                     22                     23                     24
                      A                      A                      A
 Frequencies --    435.6998               442.5253               477.2185
 Red. masses --      5.0322                 3.2313                 4.0169
 Frc consts  --      0.5628                 0.3728                 0.5390
 IR Inten    --      0.0000                 0.0000                 3.7623

                     25                     26                     27
                      A                      A                      A
 Frequencies --    487.5783               520.0758               543.2107
 Red. masses --      4.4886                 3.3054                 4.4337
 Frc consts  --      0.6287                 0.5268                 0.7708
 IR Inten    --      0.0000                47.4760                 0.0000

                     28                     29                     30
                      A                      A                      A
 Frequencies --    549.6585               606.2102               608.6623
 Red. masses --      4.8210                 7.3592                 6.4526
 Frc consts  --      0.8582                 1.5934                 1.4084
 IR Inten    --      0.0000                 0.0000                34.5915

                     31                     32                     33
                      A                      A                      A
 Frequencies --    611.2694               611.6746               620.2670
 Red. masses --      6.4565                 6.4863                 4.0468
 Frc consts  --      1.4214                 1.4298                 0.9173
 IR Inten    --      0.6598                 0.0000                 0.0000

                     34                     35                     36
                      A                      A                      A
 Frequencies --    638.7040               677.1869               692.1290
 Red. masses --      6.3485                 5.8989                 4.8895
 Frc consts  --      1.5259                 1.5938                 1.3800
 IR Inten    --     56.5024                 0.0000                 0.0004

                     37                     38                     39
                      A                      A                      A
 Frequencies --    692.2533               692.6615               703.5813
 Red. masses --      1.6532                 1.5498                 4.7889
 Frc consts  --      0.4668                 0.4381                 1.3967
 IR Inten    --    171.6590                 0.0003                 0.0000

                     40                     41                     42
                      A                      A                      A
 Frequencies --    710.4324               715.0766               737.9931
 Red. masses --      1.2304                 1.2275                 5.8729
 Frc consts  --      0.3659                 0.3698                 1.8846
 IR Inten    --    300.6069                 0.0000                 2.4397

                     43                     44                     45
                      A                      A                      A
 Frequencies --    749.4931               770.9700               808.6411
 Red. masses --      2.2172                 2.4578                 1.4498
 Frc consts  --      0.7338                 0.8607                 0.5586
 IR Inten    --     83.2124                 0.0000                 0.0000

                     46                     47                     48
                      A                      A                      A
 Frequencies --    811.4219               827.0583               827.0633
 Red. masses --      1.4351                 1.2461                 1.2467
 Frc consts  --      0.5567                 0.5022                 0.5024
 IR Inten    --      0.0000                 0.0000                 0.0000

                     49                     50                     51
                      A                      A                      A
 Frequencies --    869.3472               869.5649               885.9519
 Red. masses --      1.3742                 1.3627                 1.8655
 Frc consts  --      0.6119                 0.6071                 0.8627
 IR Inten    --     22.0108                 0.0000                 6.1818

                     52                     53                     54
                      A                      A                      A
 Frequencies --    891.3442               892.6082               893.8994
 Red. masses --      2.0347                 6.3896                 1.1856
 Frc consts  --      0.9524                 2.9995                 0.5582
 IR Inten    --      0.0000                 0.0000                 0.0000

                     55                     56                     57
                      A                      A                      A
 Frequencies --    895.6589               927.6115               931.2574
 Red. masses --      1.1843                 6.1959                 2.7379
 Frc consts  --      0.5597                 3.1411                 1.3989
 IR Inten    --      0.0000                 0.0121                 0.0000

                     58                     59                     60
                      A                      A                      A
 Frequencies --    936.2375               944.7680               944.7728
 Red. masses --      2.8762                 1.3672                 1.3673
 Frc consts  --      1.4854                 0.7190                 0.7191
 IR Inten    --      2.1551                 0.0000                 0.0000

                     61                     62                     63
                      A                      A                      A
 Frequencies --    967.1922               967.2004               994.1987
 Red. masses --      1.2929                 1.2896                 6.2230
 Frc consts  --      0.7126                 0.7108                 3.6240
 IR Inten    --      0.0348                 0.0001                 7.4853

                     64                     65                     66
                      A                      A                      A
 Frequencies --    994.3341              1021.4875              1021.8466
 Red. masses --      6.2176                 2.0417                 1.9965
 Frc consts  --      3.6219                 1.2552                 1.2283
 IR Inten    --      0.0000                30.8305                 0.0000

                     67                     68                     69
                      A                      A                      A
 Frequencies --   1045.2572              1053.8416              1065.4456
 Red. masses --      2.2060                 1.7700                 1.4551
 Frc consts  --      1.4200                 1.1582                 0.9732
 IR Inten    --      0.0000                70.0049                40.8816

                     70                     71                     72
                      A                      A                      A
 Frequencies --   1065.4754              1087.1138              1108.8558
 Red. masses --      1.4548                 1.8581                 1.5637
 Frc consts  --      0.9730                 1.2938                 1.1328
 IR Inten    --      0.0075                 0.0000                 6.2883

                     73                     74                     75
                      A                      A                      A
 Frequencies --   1132.3493              1133.8840              1133.8858
 Red. masses --      1.0596                 1.0664                 1.0663
 Frc consts  --      0.8005                 0.8078                 0.8078
 IR Inten    --      0.8170                 0.0142                 0.1979

                     76                     77                     78
                      A                      A                      A
 Frequencies --   1134.5846              1144.5351              1145.0997
 Red. masses --      1.0537                 1.1399                 1.1159
 Frc consts  --      0.7992                 0.8798                 0.8621
 IR Inten    --      0.0000                 0.5178                 0.0000

                     79                     80                     81
                      A                      A                      A
 Frequencies --   1166.3003              1189.4173              1215.6473
 Red. masses --      2.9894                 3.1580                 1.8256
 Frc consts  --      2.3958                 2.6323                 1.5895
 IR Inten    --      7.5916                 0.0000                 0.0000

                     82                     83                     84
                      A                      A                      A
 Frequencies --   1253.3219              1277.4668              1288.4480
 Red. masses --      1.9289                 3.4679                 1.3976
 Frc consts  --      1.7852                 3.3343                 1.3670
 IR Inten    --    103.9373                 0.0000                 0.0001

                     85                     86                     87
                      A                      A                      A
 Frequencies --   1288.4899              1296.4545              1311.8029
 Red. masses --      1.3972                 2.3423                 6.8777
 Frc consts  --      1.3666                 2.3196                 6.9731
 IR Inten    --      1.8479                 0.0000              1383.4141

                     88                     89                     90
                      A                      A                      A
 Frequencies --   1326.6156              1339.6731              1339.6925
 Red. masses --      3.0660                 7.4703                 7.4759
 Frc consts  --      3.1792                 7.8992                 7.9054
 IR Inten    --    213.6791                 0.0006                 6.4512

                     91                     92                     93
                      A                      A                      A
 Frequencies --   1359.4776              1379.1713              1427.5100
 Red. masses --      5.4783                 8.9989                 2.7317
 Frc consts  --      5.9654                10.0850                 3.2798
 IR Inten    --    199.6894                 0.0000                 0.0000

                     94                     95                     96
                      A                      A                      A
 Frequencies --   1434.3751              1434.3887              1440.6550
 Red. masses --      2.3206                 2.3209                 2.6347
 Frc consts  --      2.8130                 2.8134                 3.2218
 IR Inten    --     10.9845                 0.0022                29.2056

                     97                     98                     99
                      A                      A                      A
 Frequencies --   1466.9494              1477.6588              1479.7556
 Red. masses --      3.3149                 2.4426                 2.5499
 Frc consts  --      4.2030                 3.1423                 3.2896
 IR Inten    --   1434.2261                 0.0000               186.6041

                    100                    101                    102
                      A                      A                      A
 Frequencies --   1502.6430              1549.5352              1569.7314
 Red. masses --      3.3210                 5.8306                 6.4895
 Frc consts  --      4.4181                 8.2484                 9.4213
 IR Inten    --      0.0000                 0.0000                 0.1391

                    103                    104                    105
                      A                      A                      A
 Frequencies --   1583.3743              1583.3806              1585.2688
 Red. masses --      6.4133                 6.4129                 6.3709
 Frc consts  --      9.4732                 9.4727                 9.4331
 IR Inten    --      0.0060                10.6931               187.4727

                    106                    107                    108
                      A                      A                      A
 Frequencies --   1591.8180              1604.5084              1605.5592
 Red. masses --      6.3767                 6.8866                 8.0564
 Frc consts  --      9.5199                10.4457                12.2361
 IR Inten    --      0.0000                30.5419                 0.0000

                    109                    110                    111
                      A                      A                      A
 Frequencies --   3106.2078              3106.2123              3109.5319
 Red. masses --      1.0854                 1.0854                 1.0850
 Frc consts  --      6.1701                 6.1701                 6.1814
 IR Inten    --      1.5999                 0.1714                 0.0001

                    112                    113                    114
                      A                      A                      A
 Frequencies --   3109.8209              3112.5709              3112.5737
 Red. masses --      1.0853                 1.0877                 1.0877
 Frc consts  --      6.1839                 6.2086                 6.2087
 IR Inten    --      1.6755                 0.7094                 4.7074

                    115                    116                    117
                      A                      A                      A
 Frequencies --   3119.5697              3119.5765              3122.5144
 Red. masses --      1.0915                 1.0915                 1.0903
 Frc consts  --      6.2582                 6.2582                 6.2635
 IR Inten    --     25.1174                 6.2552                55.4096

                    118                    119                    120
                      A                      A                      A
 Frequencies --   3122.6857              3125.5147              3125.5264
 Red. masses --      1.0904                 1.0952                 1.0952
 Frc consts  --      6.2648                 6.3036                 6.3036
 IR Inten    --      0.0008                 0.5324                37.5457

                    121                    122                    123
                      A                      A                      A
 Frequencies --   3131.7718              3131.7962              3132.9286
 Red. masses --      1.0985                 1.0985                 1.0910
 Frc consts  --      6.3479                 6.3480                 6.3094
 IR Inten    --     20.7731                 0.0688                 0.0002

                    124                    125                    126
                      A                      A                      A
 Frequencies --   3133.4373              3137.1260              3137.5413
 Red. masses --      1.0912                 1.0953                 1.0952
 Frc consts  --      6.3122                 6.3509                 6.3519
 IR Inten    --     20.6672                 8.8542                 0.0000

 - Thermochemistry -
 -------------------
 Temperature   298.150 Kelvin.  Pressure   1.00000 Atm.
 Atom     1 has atomic number  6 and mass  12.00000

 Molecular mass:   334.14700 amu.
 Principal axes and moments of inertia in atomic units:
                           1         2         3
     Eigenvalues --  4611.49804********************
           X            1.00000  -0.00001   0.00000
           Y            0.00001   1.00000   0.00004
           Z           -0.00000  -0.00004   1.00000
 This molecule is an asymmetric top.
 Rotational symmetry number  1.
 Warning -- assumption of classical behavior for rotation
           may cause significant error
 Rotational temperatures (Kelvin)      0.01878     0.00722     0.00565
 Rotational constants (GHZ):           0.39136     0.15048     0.11773
 Zero-point vibrational energy     901098.0 (Joules/Mol)
                                  215.36758 (Kcal/Mol)
 Warning -- explicit consideration of  33 degrees of freedom as
           vibrations may cause significant error
 Vibrational temperatures:     26.00    49.72    57.76    61.11    68.37
          (Kelvin)             75.57   102.17   161.59   236.43   290.99
                              295.01   348.00   355.71   372.74   373.34
                              566.67   573.58   578.30   580.18   580.55
                              601.98   626.87   636.69   686.61   701.52
                              748.27   781.56   790.84   872.20   875.73
                              879.48   880.06   892.42   918.95   974.32
                              995.82   996.00   996.58  1012.30  1022.15
                             1028.83  1061.81  1078.35  1109.25  1163.45
                             1167.45  1189.95  1189.96  1250.80  1251.11
                             1274.69  1282.44  1284.26  1286.12  1288.65
                             1334.62  1339.87  1347.04  1359.31  1359.32
                             1391.57  1391.58  1430.43  1430.62  1469.69
                             1470.21  1503.89  1516.24  1532.94  1532.98
                             1564.11  1595.39  1629.20  1631.40  1631.41
                             1632.41  1646.73  1647.54  1678.04  1711.30
                             1749.04  1803.25  1837.99  1853.79  1853.85
                             1865.31  1887.39  1908.70  1927.49  1927.52
                             1955.98  1984.32  2053.87  2063.74  2063.76
                             2072.78  2110.61  2126.02  2129.04  2161.97
                             2229.43  2258.49  2278.12  2278.13  2280.85
                             2290.27  2308.53  2310.04  4469.13  4469.14
                             4473.92  4474.33  4478.29  4478.29  4488.36
                             4488.37  4492.60  4492.84  4496.91  4496.93
                             4505.92  4505.95  4507.58  4508.31  4513.62
                             4514.22

 Zero-point correction=                           0.343210 (Hartree/Particle)
 Thermal correction to Energy=                    0.363490
 Thermal correction to Enthalpy=                  0.364434
 Thermal correction to Gibbs Free Energy=         0.292208
 Sum of electronic and zero-point Energies=          -1033.695903
 Sum of electronic and thermal Energies=             -1033.675624
 Sum of electronic and thermal Enthalpies=           -1033.674679
 Sum of electronic and thermal Free Energies=        -1033.746905

                     E (Thermal)             CV                S
                      KCal/Mol        Cal/Mol-Kelvin    Cal/Mol-Kelvin
 Total                  228.093             83.358            152.012
 Electronic               0.000              0.000              0.000
 Translational            0.889              2.981             43.314
 Rotational               0.889              2.981             35.093
 Vibrational            226.316             77.396             73.604
 Vibration     1          0.593              1.986              6.836
 Vibration     2          0.594              1.983              5.549
 Vibration     3          0.594              1.981              5.252
 Vibration     4          0.595              1.980              5.140
 Vibration     5          0.595              1.979              4.918
 Vibration     6          0.596              1.977              4.720
 Vibration     7          0.598              1.968              4.125
 Vibration     8          0.607              1.939              3.229
 Vibration     9          0.623              1.886              2.499
 Vibration    10          0.639              1.837              2.113
 Vibration    11          0.640              1.833              2.087
 Vibration    12          0.658              1.776              1.789
 Vibration    13          0.661              1.767              1.750
 Vibration    14          0.668              1.747              1.668
 Vibration    15          0.668              1.747              1.665
 Vibration    16          0.761              1.483              0.986
 Vibration    17          0.765              1.473              0.968
 Vibration    18          0.768              1.466              0.956
 Vibration    19          0.769              1.463              0.951
 Vibration    20          0.769              1.463              0.950
 Vibration    21          0.781              1.430              0.897
 Vibration    22          0.796              1.392              0.840
 Vibration    23          0.802              1.377              0.819
 Vibration    24          0.834              1.301              0.718
 Vibration    25          0.844              1.278              0.690
 Vibration    26          0.875              1.206              0.610
 Vibration    27          0.898              1.155              0.558
 Vibration    28          0.905              1.140              0.545
 Vibration    29          0.965              1.019              0.439
 Vibration    30          0.968              1.013              0.435
 Vibration    31          0.970              1.008              0.431
 Vibration    32          0.971              1.007              0.430
 Vibration    33          0.980              0.989              0.416

 Optimization completed.
    -- Stationary point found.
 Normal termination of Gaussian 09 at Sat Mar 27 14:08:16 2021.
 Gaussian 09:  ES64L-G09RevE.01 30-Nov-2015

 ----------------------------------------------------------------------
 #p PBEPBE chkbasis geom=allcheck Guess=Read int=ultrafine scrf=(SMD,so
 lvent=n,n-DiMethylFormamide) td=(NStates=30) EmpiricalDispersion=GD3BJ
 ----------------------------------------------------------------------

 Structure from the checkpoint file:  "cp.chk"
 -----
 Title
 -----
 Charge =  0 Multiplicity = 1

                         Standard orientation:
 ---------------------------------------------------------------------
 Center     Atomic      Atomic             Coordinates (Angstroms)
 Number     Number       Type             X           Y           Z
 ---------------------------------------------------------------------
      1          6           0        0.694646   -3.664245    0.000113
      2          6           0        1.390316   -2.445664    0.000090
      3          6           0        0.709615   -1.223758    0.000059
      4          6           0       -0.709622   -1.223753    0.000089
      5          6           0       -1.390336   -2.445651    0.000094
      6          6           0       -0.694678   -3.664239    0.000107
      7          6           0       -0.709615    1.223759   -0.000028
      8          6           0        0.709623    1.223754   -0.000097
      9          6           0        1.390336    2.445652   -0.000310
     10          1           0        2.480054    2.444784   -0.000398
     11          6           0        0.694678    3.664240   -0.000396
     12          6           0       -0.694647    3.664246   -0.000284
     13          6           0       -1.390316    2.445664   -0.000111
     14          1           0        2.480034   -2.444808    0.000095
     15          1           0       -2.480054   -2.444783    0.000103
     16          1           0       -1.254844   -4.600534    0.000114
     17          1           0        1.254843    4.600536   -0.000552
     18          1           0       -1.254804    4.600547   -0.000336
     19          7           0        1.396365   -0.000003    0.000045
     20          6           0       -2.830021    0.000005    0.000079
     21          6           0       -3.523524   -0.000013    1.213478
     22          6           0       -3.523415    0.000021   -1.213386
     23          6           0       -4.920023   -0.000013    1.210991
     24          6           0       -4.919913    0.000023   -1.211025
     25          6           0       -5.618407    0.000006   -0.000048
     26          1           0       -5.463857   -0.000026    2.157279
     27          1           0       -5.463662    0.000037   -2.157361
     28          1           0       -2.963155   -0.000025    2.150259
     29          1           0       -2.962964    0.000033   -2.150117
     30          1           0       -6.709925    0.000006   -0.000098
     31          1           0        1.254803   -4.600547    0.000141
     32          7           0       -1.396365    0.000005    0.000150
     33          6           0        2.830021   -0.000005    0.000054
     34          6           0        3.523453    0.000371    1.213496
     35          6           0        3.523486   -0.000379   -1.213368
     36          6           0        4.919951    0.000372    1.211091
     37          1           0        2.963028    0.000654    2.150243
     38          6           0        4.919985   -0.000386   -1.210924
     39          1           0        2.963090   -0.000662   -2.150132
     40          6           0        5.618408   -0.000008    0.000093
     41          1           0        5.463729    0.000664    2.157411
     42          1           0        5.463789   -0.000679   -2.157229
     43          1           0        6.709925   -0.000009    0.000109
     44          1           0       -2.480035    2.444807   -0.000036
 ---------------------------------------------------------------------

 SCF Done:  E(RPBE-PBE) =  -1034.03911347     A.U. after    1 cycles

 Excitation energies and oscillator strengths:

 Excited State   1:      Singlet-A      2.3986 eV  516.89 nm  f=0.0000  <S**2>=0.000
      88 -> 89         0.69581
      88 -> 93        -0.12255
 This state for optimization and/or second-order correction.
 Total Energy, E(TD-HF/TD-KS) =  -1033.95096520
 Copying the excited state density for this state as the 1-particle RhoCI density.

 Excited State   2:      Singlet-A      2.4412 eV  507.88 nm  f=0.0000  <S**2>=0.000
      88 -> 91         0.70710

 Excited State   3:      Singlet-A      2.4515 eV  505.75 nm  f=0.0198  <S**2>=0.000
      88 -> 90         0.69629
      88 -> 94        -0.11707

 Excited State   4:      Singlet-A      2.4737 eV  501.20 nm  f=0.0000  <S**2>=0.000
      88 -> 92         0.70710

 Excited State   5:      Singlet-A      2.8810 eV  430.35 nm  f=0.0000  <S**2>=0.000
      88 -> 89         0.12031
      88 -> 93         0.69485

 Excited State   6:      Singlet-A      3.2976 eV  375.98 nm  f=0.1786  <S**2>=0.000
      87 -> 89         0.20963
      88 -> 94         0.66244

 Excited State   7:      Singlet-A      3.4854 eV  355.72 nm  f=0.0000  <S**2>=0.000
      88 -> 95         0.68988

 Excited State   8:      Singlet-A      3.9845 eV  311.17 nm  f=0.0000  <S**2>=0.000
      87 -> 91         0.70711

 Excited State   9:      Singlet-A      3.9935 eV  310.46 nm  f=0.0000  <S**2>=0.000
      87 -> 90         0.69439
      87 -> 94        -0.12420

 Excited State  10:      Singlet-A      4.0181 eV  308.56 nm  f=0.0000  <S**2>=0.000
      87 -> 92         0.70710

 Excited State  11:      Singlet-A      4.0812 eV  303.79 nm  f=0.1809  <S**2>=0.000
      87 -> 89         0.58987
      87 -> 93        -0.36158
      88 -> 94        -0.13579

 Excited State  12:      Singlet-A      4.2482 eV  291.85 nm  f=0.1036  <S**2>=0.000
      85 -> 89         0.21009
      85 -> 93         0.11414
      88 -> 96         0.65220

 Excited State  13:      Singlet-A      4.6120 eV  268.83 nm  f=0.8426  <S**2>=0.000
      87 -> 89         0.31825
      87 -> 93         0.59672
      88 -> 94        -0.15872

 Excited State  14:      Singlet-A      4.6202 eV  268.35 nm  f=0.0024  <S**2>=0.000
      88 -> 97         0.70562

 Excited State  15:      Singlet-A      4.7690 eV  259.98 nm  f=0.0445  <S**2>=0.000
      82 -> 89         0.13068
      85 -> 89         0.15939
      86 -> 90         0.55099
      87 -> 95        -0.37718

 Excited State  16:      Singlet-A      4.7863 eV  259.04 nm  f=0.0000  <S**2>=0.000
      82 -> 90         0.21357
      86 -> 89         0.65457

 Excited State  17:      Singlet-A      4.8124 eV  257.63 nm  f=0.0005  <S**2>=0.000
      84 -> 89        -0.14757
      85 -> 92         0.11330
      86 -> 91         0.66805

 Excited State  18:      Singlet-A      4.8408 eV  256.12 nm  f=0.0000  <S**2>=0.000
      83 -> 89         0.12149
      85 -> 91         0.19170
      86 -> 92         0.65528

 Excited State  19:      Singlet-A      4.8486 eV  255.71 nm  f=0.0000  <S**2>=0.000
      81 -> 95         0.10261
      86 -> 95        -0.22883
      87 -> 94         0.64985

 Excited State  20:      Singlet-A      4.8776 eV  254.19 nm  f=0.0023  <S**2>=0.000
      84 -> 89         0.18489
      88 -> 98         0.67482

 Excited State  21:      Singlet-A      4.8778 eV  254.18 nm  f=0.0000  <S**2>=0.000
      88 -> 99         0.70046

 Excited State  22:      Singlet-A      4.8880 eV  253.65 nm  f=0.0001  <S**2>=0.000
      83 -> 90         0.29259
      84 -> 89         0.58556
      85 -> 92         0.15935
      88 -> 98        -0.19027

 Excited State  23:      Singlet-A      4.8950 eV  253.29 nm  f=0.0000  <S**2>=0.000
      83 -> 89         0.58231
      84 -> 90         0.30533
      85 -> 91        -0.25303

 Excited State  24:      Singlet-A      4.9044 eV  252.80 nm  f=0.0000  <S**2>=0.000
      81 -> 89         0.14526
      85 -> 90         0.66591
      86 -> 93        -0.14871

 Excited State  25:      Singlet-A      4.9050 eV  252.77 nm  f=0.0066  <S**2>=0.000
      81 -> 90         0.13135
      82 -> 89         0.21513
      85 -> 89         0.35433
      85 -> 93        -0.11285
      86 -> 90         0.19473
      86 -> 94        -0.17110
      87 -> 95         0.46435

 Excited State  26:      Singlet-A      4.9186 eV  252.07 nm  f=0.0000  <S**2>=0.000
      82 -> 91        -0.11800
      83 -> 89         0.12401
      84 -> 90         0.27695
      85 -> 91         0.60387
      86 -> 92        -0.15266

 Excited State  27:      Singlet-A      4.9438 eV  250.79 nm  f=0.0001  <S**2>=0.000
      82 -> 92        -0.10109
      83 -> 90        -0.21130
      85 -> 92         0.65584

 Excited State  28:      Singlet-A      4.9982 eV  248.06 nm  f=0.0000  <S**2>=0.000
      83 -> 92         0.48720
      84 -> 91         0.51222

 Excited State  29:      Singlet-A      4.9985 eV  248.04 nm  f=0.0000  <S**2>=0.000
      83 -> 91         0.50159
      84 -> 92         0.49835

 Excited State  30:      Singlet-A      5.0166 eV  247.15 nm  f=0.1635  <S**2>=0.000
      82 -> 89        -0.21196
      82 -> 93         0.16108
      85 -> 89         0.43995
      85 -> 93        -0.31916
      86 -> 90        -0.23053
      86 -> 94         0.15562
      87 -> 95        -0.19154
      88 -> 96        -0.10212

 The electronic state is 1-A.
 Alpha  occ. eigenvalues --  -14.02816 -14.02814  -9.93269  -9.93266  -9.93240
 Alpha  occ. eigenvalues --   -9.93239  -9.92842  -9.92841  -9.89177  -9.89177
 Alpha  occ. eigenvalues --   -9.89177  -9.89176  -9.89100  -9.89100  -9.89093
 Alpha  occ. eigenvalues --   -9.89093  -9.89014  -9.89014  -9.87990  -9.87990
 Alpha  occ. eigenvalues --   -9.87988  -9.87988  -9.87695  -9.87695  -9.87656
 Alpha  occ. eigenvalues --   -9.87656  -0.91498  -0.87805  -0.78642  -0.78437
 Alpha  occ. eigenvalues --   -0.77671  -0.75320  -0.69879  -0.68964  -0.68462
 Alpha  occ. eigenvalues --   -0.68051  -0.68049  -0.67563  -0.65362  -0.62758
 Alpha  occ. eigenvalues --   -0.58670  -0.57841  -0.55336  -0.55230  -0.55189
 Alpha  occ. eigenvalues --   -0.53653  -0.52000  -0.51246  -0.50023  -0.48186
 Alpha  occ. eigenvalues --   -0.48056  -0.44496  -0.43692  -0.43044  -0.42567
 Alpha  occ. eigenvalues --   -0.41735  -0.41301  -0.41234  -0.39659  -0.38734
 Alpha  occ. eigenvalues --   -0.38540  -0.38216  -0.38045  -0.37669  -0.37534
 Alpha  occ. eigenvalues --   -0.37238  -0.37138  -0.33867  -0.33496  -0.33062
 Alpha  occ. eigenvalues --   -0.32661  -0.32196  -0.31882  -0.31661  -0.30674
 Alpha  occ. eigenvalues --   -0.30635  -0.30498  -0.29374  -0.29049  -0.28199
 Alpha  occ. eigenvalues --   -0.24325  -0.23888  -0.23572  -0.23498  -0.23216
 Alpha  occ. eigenvalues --   -0.22807  -0.19868  -0.14192
 Alpha virt. eigenvalues --   -0.05637  -0.05389  -0.05225  -0.05106  -0.03996
 Alpha virt. eigenvalues --   -0.03080  -0.02831   0.00151   0.02770   0.03660
 Alpha virt. eigenvalues --    0.03718   0.05040   0.05405   0.05667   0.06586

 Mulliken charges:
               1
     1  C   -0.200988
     2  C   -0.209291
     3  C    0.027417
     4  C    0.027421
     5  C   -0.209290
     6  C   -0.200988
     7  C    0.027417
     8  C    0.027421
     9  C   -0.209291
    10  H    0.148852
    11  C   -0.200988
    12  C   -0.200988
    13  C   -0.209290
    14  H    0.148851
    15  H    0.148852
    16  H    0.136217
    17  H    0.136217
    18  H    0.136217
    19  N    0.183116
    20  C    0.055030
    21  C   -0.200884
    22  C   -0.200925
    23  C   -0.125267
    24  C   -0.125261
    25  C   -0.111342
    26  H    0.145511
    27  H    0.145512
    28  H    0.141447
    29  H    0.141449
    30  H    0.147196
    31  H    0.136217
    32  N    0.183116
    33  C    0.055031
    34  C   -0.200902
    35  C   -0.200908
    36  C   -0.125265
    37  H    0.141448
    38  C   -0.125262
    39  H    0.141447
    40  C   -0.111343
    41  H    0.145511
    42  H    0.145512
    43  H    0.147196
    44  H    0.148851
 Sum of Mulliken charges =  -0.00000

 Dipole moment (field-independent basis, Debye):
    X=             -0.0000    Y=             -0.0000    Z=             -0.0001  Tot=              0.0001
 Quadrupole moment (field-independent basis, Debye-Ang):
   XX=           -111.3395   YY=           -156.9441   ZZ=           -144.4893
   XY=             -0.0000   XZ=             -0.0004   YZ=              0.0024

 Normal termination of Gaussian 09 at Sat Mar 27 15:42:30 2021.
