 Gaussian 09, Revision E.01,

 ----------------------------------------------------------------------
 #p TPSSTPSS/def2TZVP opt freq=noraman nosymm int=ultrafine scrf=(SMD,s
 olvent=n,n-DiMethylFormamide)
 ----------------------------------------------------------------------

 -----
 Title
 -----
 Symbolic Z-matrix:
 Charge =  0 Multiplicity = 1

 SCF Done:  E(RTPSS-TPSS) =  -1035.46882307     A.U. after   13 cycles
 SCF Done:  E(RTPSS-TPSS) =  -1035.46938506     A.U. after    9 cycles
 SCF Done:  E(RTPSS-TPSS) =  -1035.46940682     A.U. after    8 cycles
 Optimization completed.
    -- Stationary point found.
 Normal termination of Gaussian 09 at Tue Mar 30 20:46:16 2021.

 ----------------------------------------------------------------------
 #P Geom=AllCheck Guess=TCheck SCRF=Check GenChk RTPSSTPSS/def2TZVP Fre
 q
 ----------------------------------------------------------------------

 Structure from the checkpoint file:  "cp.chk"
 -----
 Title
 -----
 Charge =  0 Multiplicity = 1

 SCF Done:  E(RTPSS-TPSS) =  -1035.46940682     A.U. after    1 cycles

  Exact polarizability: 549.134  -0.000 535.617   0.004  -0.001 341.999
 Approx polarizability: 675.272  -0.001 675.432   0.008   0.002 440.246

                      1                      2                      3
                      A                      A                      A
 Frequencies --     16.3153                35.0822                40.0398
 Red. masses --      5.6961                 3.6723                 3.8926
 Frc consts  --      0.0009                 0.0027                 0.0037
 IR Inten    --      0.3386                 0.0000                 0.0000

                      4                      5                      6
                      A                      A                      A
 Frequencies --     42.0053                46.4749                54.4178
 Red. masses --      5.4407                 4.3910                 5.2726
 Frc consts  --      0.0057                 0.0056                 0.0092
 IR Inten    --      1.1143                 0.0000                 1.2205

                      7                      8                      9
                      A                      A                      A
 Frequencies --     73.6641               112.4521               165.7042
 Red. masses --      4.9119                 3.7832                 4.7112
 Frc consts  --      0.0157                 0.0282                 0.0762
 IR Inten    --      0.0000                 0.0000                 0.0000

                     10                     11                     12
                      A                      A                      A
 Frequencies --    200.6029               203.4565               244.1422
 Red. masses --      6.7762                 5.2267                 4.7607
 Frc consts  --      0.1607                 0.1275                 0.1672
 IR Inten    --      0.0000                 0.0113                 3.9299

                     13                     14                     15
                      A                      A                      A
 Frequencies --    247.6873               260.6972               262.8403
 Red. masses --      4.2059                 4.2909                 4.8691
 Frc consts  --      0.1520                 0.1718                 0.1982
 IR Inten    --      0.0000                 1.2154                 0.0000

                     16                     17                     18
                      A                      A                      A
 Frequencies --    391.2405               397.3439               399.1295
 Red. masses --      4.7188                 5.4705                 6.8505
 Frc consts  --      0.4256                 0.5089                 0.6430
 IR Inten    --      7.5754                 8.4557                 0.0000

                     19                     20                     21
                      A                      A                      A
 Frequencies --    409.5210               409.6977               412.0170
 Red. masses --      2.9247                 2.9229                 6.3253
 Frc consts  --      0.2890                 0.2891                 0.6326
 IR Inten    --      0.0000                 0.0000                 0.0000

                     22                     23                     24
                      A                      A                      A
 Frequencies --    435.7816               446.4519               473.3147
 Red. masses --      5.1039                 3.2816                 3.9131
 Frc consts  --      0.5711                 0.3854                 0.5165
 IR Inten    --      0.0000                 0.0000                 2.8596

                     25                     26                     27
                      A                      A                      A
 Frequencies --    491.6447               525.1017               549.2202
 Red. masses --      4.5832                 3.4050                 4.4294
 Frc consts  --      0.6527                 0.5532                 0.7872
 IR Inten    --      0.0000                46.7879                 0.0000

                     28                     29                     30
                      A                      A                      A
 Frequencies --    552.6237               605.9141               611.8697
 Red. masses --      4.7722                 7.3722                 6.4884
 Frc consts  --      0.8587                 1.5947                 1.4312
 IR Inten    --      0.0000                 0.0000                35.2640

                     31                     32                     33
                      A                      A                      A
 Frequencies --    613.8288               614.2963               622.6320
 Red. masses --      6.4674                 6.4834                 4.2078
 Frc consts  --      1.4357                 1.4415                 0.9611
 IR Inten    --      0.3618                 0.0000                 0.0000

                     34                     35                     36
                      A                      A                      A
 Frequencies --    639.8865               675.9858               696.9385
 Red. masses --      6.3890                 5.9701                 5.4648
 Frc consts  --      1.5413                 1.6073                 1.5639
 IR Inten    --     59.1127                 0.0000                 0.0000

                     37                     38                     39
                      A                      A                      A
 Frequencies --    704.2708               704.9591               705.4205
 Red. masses --      1.8319                 5.5729                 1.6521
 Frc consts  --      0.5353                 1.6318                 0.4844
 IR Inten    --    148.8779                 0.0000                 0.0000

                     40                     41                     42
                      A                      A                      A
 Frequencies --    728.7658               733.7978               737.4005
 Red. masses --      1.2232                 1.2244                 5.9504
 Frc consts  --      0.3827                 0.3884                 1.9063
 IR Inten    --    301.7087                 0.0000                 2.5949

                     43                     44                     45
                      A                      A                      A
 Frequencies --    759.9401               779.8536               824.6071
 Red. masses --      1.9935                 2.2684                 1.3836
 Frc consts  --      0.6783                 0.8128                 0.5543
 IR Inten    --    101.1555                 0.0000                 0.0000

                     46                     47                     48
                      A                      A                      A
 Frequencies --    827.8191               848.5720               848.5828
 Red. masses --      1.3873                 1.2456                 1.2453
 Frc consts  --      0.5601                 0.5285                 0.5283
 IR Inten    --      0.0000                 0.0000                 0.0000

                     49                     50                     51
                      A                      A                      A
 Frequencies --    891.3020               891.9201               892.1223
 Red. masses --      6.5693                 1.3668                 1.3568
 Frc consts  --      3.0748                 0.6406                 0.6362
 IR Inten    --      0.0001                19.9680                 0.0000

                     52                     53                     54
                      A                      A                      A
 Frequencies --    896.4204               906.4819               921.1532
 Red. masses --      2.4113                 2.4264                 1.1902
 Frc consts  --      1.1416                 1.1747                 0.5950
 IR Inten    --      4.2390                 0.0000                 0.0000

                     55                     56                     57
                      A                      A                      A
 Frequencies --    922.7987               933.6877               946.0276
 Red. masses --      1.1890                 6.2459                 2.1675
 Frc consts  --      0.5966                 3.2081                 1.1429
 IR Inten    --      0.0000                 0.3365                 0.0000

                     58                     59                     60
                      A                      A                      A
 Frequencies --    946.6723               971.1053               971.1141
 Red. masses --      2.0930                 1.3634                 1.3635
 Frc consts  --      1.1052                 0.7576                 0.7576
 IR Inten    --      0.7882                 0.0000                 0.0000

                     61                     62                     63
                      A                      A                      A
 Frequencies --    992.2476               992.3072              1003.6987
 Red. masses --      1.2800                 1.2791                 6.2823
 Frc consts  --      0.7425                 0.7421                 3.7289
 IR Inten    --      0.0455                 0.0000                 0.0000

                     64                     65                     66
                      A                      A                      A
 Frequencies --   1003.7776              1030.8281              1031.2468
 Red. masses --      6.2919                 2.1808                 2.1343
 Frc consts  --      3.7351                 1.3653                 1.3373
 IR Inten    --      4.5988                32.8782                 0.0000

                     67                     68                     69
                      A                      A                      A
 Frequencies --   1051.1913              1062.8137              1078.6956
 Red. masses --      2.4008                 1.8645                 1.5381
 Frc consts  --      1.5630                 1.2409                 1.0545
 IR Inten    --      0.0000                67.3426                34.2347

                     70                     71                     72
                      A                      A                      A
 Frequencies --   1078.7229              1098.1181              1121.7840
 Red. masses --      1.5378                 2.1048                 1.7943
 Frc consts  --      1.0543                 1.4954                 1.3303
 IR Inten    --      0.0003                 0.0000                 2.1344

                     73                     74                     75
                      A                      A                      A
 Frequencies --   1154.9293              1156.9505              1156.9514
 Red. masses --      1.0745                 1.0805                 1.0805
 Frc consts  --      0.8444                 0.8522                 0.8522
 IR Inten    --      0.5945                 0.0041                 0.1843

                     76                     77                     78
                      A                      A                      A
 Frequencies --   1157.3662              1164.5096              1168.4929
 Red. masses --      1.0660                 1.6749                 1.1721
 Frc consts  --      0.8413                 1.3382                 0.9429
 IR Inten    --      0.0000                 6.3331                 0.0000

                     79                     80                     81
                      A                      A                      A
 Frequencies --   1173.6630              1187.8873              1223.6636
 Red. masses --      1.5625                 2.9830                 2.0087
 Frc consts  --      1.2681                 2.4800                 1.7721
 IR Inten    --      3.9344                 0.0000                 0.0000

                     82                     83                     84
                      A                      A                      A
 Frequencies --   1258.9654              1272.4713              1300.6668
 Red. masses --      2.7134                 3.5649                 7.4683
 Frc consts  --      2.5339                 3.4009                 7.4440
 IR Inten    --    254.2784                 0.0000              1524.7764

                     85                     86                     87
                      A                      A                      A
 Frequencies --   1305.6121              1312.5174              1312.5608
 Red. masses --      2.2478                 2.2257                 2.2254
 Frc consts  --      2.2575                 2.2590                 2.2589
 IR Inten    --      0.0000                 0.0000                 5.8657

                     88                     89                     90
                      A                      A                      A
 Frequencies --   1335.1286              1336.1227              1336.1337
 Red. masses --      2.2507                 2.5365                 2.5361
 Frc consts  --      2.3638                 2.6679                 2.6676
 IR Inten    --    149.2110                 0.0002                 3.4008

                     91                     92                     93
                      A                      A                      A
 Frequencies --   1355.2367              1370.5720              1446.8343
 Red. masses --      6.1203                 8.9569                 2.2684
 Frc consts  --      6.6229                 9.9131                 2.7978
 IR Inten    --    406.8308                 0.0000                 0.0000

                     94                     95                     96
                      A                      A                      A
 Frequencies --   1458.5875              1458.6091              1463.2988
 Red. masses --      2.1338                 2.1341                 2.3753
 Frc consts  --      2.6747                 2.6751                 2.9967
 IR Inten    --      9.6356                 0.0001                26.3138

                     97                     98                     99
                      A                      A                      A
 Frequencies --   1479.4377              1501.5837              1502.5692
 Red. masses --      2.7986                 2.2071                 2.2520
 Frc consts  --      3.6090                 2.9320                 2.9956
 IR Inten    --   1114.4596                 0.0000               162.7339

                    100                    101                    102
                      A                      A                      A
 Frequencies --   1516.3905              1560.4126              1582.3461
 Red. masses --      2.8693                 5.1581                 5.7215
 Frc consts  --      3.8873                 7.3997                 8.4404
 IR Inten    --      0.0000                 0.0000                 0.0893

                    103                    104                    105
                      A                      A                      A
 Frequencies --   1594.6691              1594.6702              1594.8811
 Red. masses --      5.7411                 5.7403                 5.7991
 Frc consts  --      8.6017                 8.6006                 8.6910
 IR Inten    --      0.2458                10.2507               190.6886

                    106                    107                    108
                      A                      A                      A
 Frequencies --   1602.1634              1612.6071              1614.7770
 Red. masses --      5.7645                 6.1550                 7.3655
 Frc consts  --      8.7181                 9.4304                11.3156
 IR Inten    --      0.0000                23.5920                 0.0000

                    109                    110                    111
                      A                      A                      A
 Frequencies --   3135.6140              3135.6180              3137.9729
 Red. masses --      1.0854                 1.0854                 1.0851
 Frc consts  --      6.2874                 6.2874                 6.2955
 IR Inten    --      1.5239                 0.0174                 0.0000

                    112                    113                    114
                      A                      A                      A
 Frequencies --   3138.2139              3142.5085              3142.5115
 Red. masses --      1.0853                 1.0878                 1.0878
 Frc consts  --      6.2977                 6.3293                 6.3293
 IR Inten    --      3.3533                 0.0744                 9.0644

                    115                    116                    117
                      A                      A                      A
 Frequencies --   3150.4288              3150.4347              3152.0497
 Red. masses --      1.0915                 1.0915                 1.0909
 Frc consts  --      6.3828                 6.3828                 6.3860
 IR Inten    --     51.0351                 0.5494                78.7586

                    118                    119                    120
                      A                      A                      A
 Frequencies --   3152.2017              3156.6074              3156.6226
 Red. masses --      1.0910                 1.0949                 1.0949
 Frc consts  --      6.3871                 6.4280                 6.4280
 IR Inten    --      0.0001                 0.0370                63.3562

                    121                    122                    123
                      A                      A                      A
 Frequencies --   3162.7018              3162.7343              3164.9401
 Red. masses --      1.0979                 1.0980                 1.0908
 Frc consts  --      6.4706                 6.4708                 6.4374
 IR Inten    --     27.1423                 0.0044                 0.0001

                    124                    125                    126
                      A                      A                      A
 Frequencies --   3165.4794              3168.7571              3169.2912
 Red. masses --      1.0909                 1.0942                 1.0941
 Frc consts  --      6.4405                 6.4734                 6.4751
 IR Inten    --     42.8731                13.8421                 0.0000

 - Thermochemistry -
 -------------------
 Temperature   298.150 Kelvin.  Pressure   1.00000 Atm.
 Atom     1 has atomic number  6 and mass  12.00000

 Molecular mass:   334.14700 amu.
 Principal axes and moments of inertia in atomic units:
                           1         2         3
     Eigenvalues --  4615.07462********************
           X            1.00000  -0.00001   0.00000
           Y            0.00001   1.00000   0.00004
           Z           -0.00000  -0.00004   1.00000
 This molecule is an asymmetric top.
 Rotational symmetry number  1.
 Warning -- assumption of classical behavior for rotation
           may cause significant error
 Rotational temperatures (Kelvin)      0.01877     0.00719     0.00563
 Rotational constants (GHZ):           0.39105     0.14983     0.11728
 Zero-point vibrational energy     910293.4 (Joules/Mol)
                                  217.56535 (Kcal/Mol)
 Warning -- explicit consideration of  32 degrees of freedom as
           vibrations may cause significant error
 Vibrational temperatures:     23.47    50.48    57.61    60.44    66.87
          (Kelvin)             78.30   105.99   161.79   238.41   288.62
                              292.73   351.27   356.37   375.08   378.17
                              562.91   571.69   574.26   589.21   589.46
                              592.80   626.99   642.34   680.99   707.37
                              755.50   790.20   795.10   871.77   880.34
                              883.16   883.83   895.83   920.65   972.59
                             1002.74  1013.29  1014.28  1014.94  1048.53
                             1055.77  1060.95  1093.38  1122.03  1186.42
                             1191.05  1220.90  1220.92  1282.38  1283.27
                             1283.56  1289.75  1304.22  1325.33  1327.70
                             1343.37  1361.12  1362.05  1397.20  1397.21
                             1427.62  1427.71  1444.10  1444.21  1483.13
                             1483.73  1512.43  1529.15  1552.00  1552.04
                             1579.95  1613.99  1661.68  1664.59  1664.59
                             1665.19  1675.47  1681.20  1688.64  1709.10
                             1760.58  1811.37  1830.80  1871.37  1878.48
                             1888.42  1888.48  1920.95  1922.38  1922.40
                             1949.88  1971.94  2081.67  2098.58  2098.61
                             2105.36  2128.58  2160.44  2161.86  2181.74
                             2245.08  2276.64  2294.37  2294.37  2294.68
                             2305.15  2320.18  2323.30  4511.44  4511.45
                             4514.84  4515.18  4521.36  4521.37  4532.76
                             4532.77  4535.09  4535.31  4541.65  4541.67
                             4550.42  4550.46  4553.64  4554.41  4559.13
                             4559.90

 Zero-point correction=                           0.346712 (Hartree/Particle)
 Thermal correction to Energy=                    0.366832
 Thermal correction to Enthalpy=                  0.367777
 Thermal correction to Gibbs Free Energy=         0.295716
 Sum of electronic and zero-point Energies=          -1035.122694
 Sum of electronic and thermal Energies=             -1035.102574
 Sum of electronic and thermal Enthalpies=           -1035.101630
 Sum of electronic and thermal Free Energies=        -1035.173691

                     E (Thermal)             CV                S
                      KCal/Mol        Cal/Mol-Kelvin    Cal/Mol-Kelvin
 Total                  230.191             82.382            151.665
 Electronic               0.000              0.000              0.000
 Translational            0.889              2.981             43.314
 Rotational               0.889              2.981             35.102
 Vibrational            228.413             76.420             73.249
 Vibration     1          0.593              1.986              7.039
 Vibration     2          0.594              1.982              5.519
 Vibration     3          0.594              1.981              5.257
 Vibration     4          0.595              1.980              5.162
 Vibration     5          0.595              1.979              4.962
 Vibration     6          0.596              1.976              4.650
 Vibration     7          0.599              1.966              4.053
 Vibration     8          0.607              1.939              3.226
 Vibration     9          0.624              1.885              2.484
 Vibration    10          0.638              1.839              2.128
 Vibration    11          0.639              1.835              2.102
 Vibration    12          0.659              1.772              1.772
 Vibration    13          0.661              1.767              1.747
 Vibration    14          0.669              1.745              1.657
 Vibration    15          0.670              1.741              1.643
 Vibration    16          0.759              1.489              0.995
 Vibration    17          0.764              1.476              0.972
 Vibration    18          0.765              1.472              0.966
 Vibration    19          0.774              1.450              0.928
 Vibration    20          0.774              1.449              0.928
 Vibration    21          0.776              1.444              0.920
 Vibration    22          0.796              1.392              0.840
 Vibration    23          0.806              1.369              0.807
 Vibration    24          0.830              1.309              0.728
 Vibration    25          0.847              1.269              0.679
 Vibration    26          0.880              1.194              0.598
 Vibration    27          0.904              1.141              0.546
 Vibration    28          0.908              1.134              0.539
 Vibration    29          0.965              1.019              0.440
 Vibration    30          0.971              1.007              0.430
 Vibration    31          0.973              1.003              0.426
 Vibration    32          0.974              1.002              0.426

 Optimization completed.
    -- Stationary point found.
 Normal termination of Gaussian 09 at Wed Mar 31 00:32:17 2021.
 Gaussian 09:  ES64L-G09RevE.01 30-Nov-2015

 ----------------------------------------------------------------------
 #p TPSSTPSS chkbasis geom=allcheck Guess=Read int=ultrafine scrf=(SMD,
 solvent=n,n-DiMethylFormamide) td=(NStates=30)
 ----------------------------------------------------------------------

 Structure from the checkpoint file:  "cp.chk"
 -----
 Title
 -----
 Charge =  0 Multiplicity = 1

                         Standard orientation:
 ---------------------------------------------------------------------
 Center     Atomic      Atomic             Coordinates (Angstroms)
 Number     Number       Type             X           Y           Z
 ---------------------------------------------------------------------
      1          6           0        0.693965   -3.666010    0.000102
      2          6           0        1.388398   -2.447825    0.000080
      3          6           0        0.709038   -1.226264    0.000053
      4          6           0       -0.709044   -1.226260    0.000088
      5          6           0       -1.388415   -2.447814    0.000090
      6          6           0       -0.693992   -3.666004    0.000098
      7          6           0       -0.709038    1.226264   -0.000023
      8          6           0        0.709045    1.226260   -0.000100
      9          6           0        1.388415    2.447815   -0.000319
     10          1           0        2.473231    2.448473   -0.000416
     11          6           0        0.693991    3.666005   -0.000400
     12          6           0       -0.693966    3.666010   -0.000276
     13          6           0       -1.388398    2.447825   -0.000098
     14          1           0        2.473214   -2.448494    0.000083
     15          1           0       -2.473232   -2.448472    0.000103
     16          1           0       -1.252586   -4.597761    0.000104
     17          1           0        1.252585    4.597761   -0.000560
     18          1           0       -1.252554    4.597770   -0.000320
     19          7           0        1.400812   -0.000003    0.000040
     20          6           0       -2.840431    0.000005    0.000081
     21          6           0       -3.535698   -0.000017    1.212555
     22          6           0       -3.535587    0.000024   -1.212459
     23          6           0       -4.931603   -0.000017    1.209742
     24          6           0       -4.931491    0.000026   -1.209773
     25          6           0       -5.630164    0.000006   -0.000047
     26          1           0       -5.472541   -0.000033    2.152167
     27          1           0       -5.472344    0.000042   -2.152247
     28          1           0       -2.981768   -0.000031    2.147380
     29          1           0       -2.981575    0.000038   -2.147235
     30          1           0       -6.716879    0.000006   -0.000097
     31          1           0        1.252552   -4.597771    0.000126
     32          7           0       -1.400812    0.000004    0.000157
     33          6           0        2.840431   -0.000005    0.000053
     34          6           0        3.535622    0.000391    1.212572
     35          6           0        3.535663   -0.000398   -1.212443
     36          6           0        4.931526    0.000393    1.209846
     37          1           0        2.981634    0.000687    2.147361
     38          6           0        4.931568   -0.000404   -1.209669
     39          1           0        2.981710   -0.000693   -2.147253
     40          6           0        5.630164   -0.000007    0.000100
     41          1           0        5.472407    0.000699    2.152305
     42          1           0        5.472479   -0.000710   -2.152110
     43          1           0        6.716879   -0.000007    0.000119
     44          1           0       -2.473215    2.448493   -0.000015
 ---------------------------------------------------------------------

 SCF Done:  E(RTPSS-TPSS) =  -1035.46940682     A.U. after    1 cycles

 Excitation energies and oscillator strengths:

 Excited State   1:      Singlet-A      2.5404 eV  488.04 nm  f=0.0000  <S**2>=0.000
      88 -> 89         0.69773
      88 -> 93         0.11071
 This state for optimization and/or second-order correction.
 Total Energy, E(TD-HF/TD-KS) =  -1035.37604717
 Copying the excited state density for this state as the 1-particle RhoCI density.

 Excited State   2:      Singlet-A      2.5809 eV  480.39 nm  f=0.0000  <S**2>=0.000
      88 -> 91         0.70710

 Excited State   3:      Singlet-A      2.6030 eV  476.32 nm  f=0.0229  <S**2>=0.000
      88 -> 90         0.69649
      88 -> 94        -0.11500

 Excited State   4:      Singlet-A      2.6119 eV  474.70 nm  f=0.0000  <S**2>=0.000
      88 -> 92         0.70710

 Excited State   5:      Singlet-A      3.0113 eV  411.73 nm  f=0.0000  <S**2>=0.000
      88 -> 89        -0.10844
      88 -> 93         0.69687

 Excited State   6:      Singlet-A      3.4148 eV  363.08 nm  f=0.1886  <S**2>=0.000
      87 -> 89        -0.20215
      88 -> 94         0.66517

 Excited State   7:      Singlet-A      3.5885 eV  345.50 nm  f=0.0000  <S**2>=0.000
      88 -> 95         0.69030

 Excited State   8:      Singlet-A      4.1374 eV  299.67 nm  f=0.0000  <S**2>=0.000
      87 -> 91         0.70710

 Excited State   9:      Singlet-A      4.1573 eV  298.23 nm  f=0.0000  <S**2>=0.000
      87 -> 90         0.69452
      87 -> 94        -0.12334

 Excited State  10:      Singlet-A      4.1694 eV  297.37 nm  f=0.0000  <S**2>=0.000
      87 -> 92         0.70710

 Excited State  11:      Singlet-A      4.2374 eV  292.60 nm  f=0.2035  <S**2>=0.000
      87 -> 89         0.59641
      87 -> 93         0.35161
      88 -> 94         0.13192

 Excited State  12:      Singlet-A      4.3833 eV  282.85 nm  f=0.1171  <S**2>=0.000
      85 -> 89        -0.20082
      85 -> 93         0.10869
      88 -> 96         0.65602

 Excited State  13:      Singlet-A      4.7389 eV  261.63 nm  f=0.8370  <S**2>=0.000
      87 -> 89        -0.31003
      87 -> 93         0.60278
      88 -> 94        -0.15224

 Excited State  14:      Singlet-A      4.8710 eV  254.54 nm  f=0.0023  <S**2>=0.000
      88 -> 97         0.70383

 Excited State  15:      Singlet-A      4.9279 eV  251.60 nm  f=0.0366  <S**2>=0.000
      82 -> 89        -0.11493
      85 -> 89        -0.12786
      86 -> 90         0.50868
      87 -> 95        -0.44367

 Excited State  16:      Singlet-A      4.9479 eV  250.58 nm  f=0.0000  <S**2>=0.000
      82 -> 90        -0.21267
      86 -> 89         0.65488

 Excited State  17:      Singlet-A      4.9723 eV  249.35 nm  f=0.0006  <S**2>=0.000
      84 -> 89        -0.18164
      86 -> 91         0.66486

 Excited State  18:      Singlet-A      4.9846 eV  248.73 nm  f=0.0000  <S**2>=0.000
      81 -> 95         0.10239
      86 -> 95        -0.21364
      87 -> 94         0.65476

 Excited State  19:      Singlet-A      5.0000 eV  247.97 nm  f=0.0000  <S**2>=0.000
      83 -> 89        -0.15578
      85 -> 91        -0.15139
      86 -> 92         0.65973

 Excited State  20:      Singlet-A      5.0496 eV  245.53 nm  f=0.0012  <S**2>=0.000
      81 -> 90         0.11227
      82 -> 89        -0.22095
      85 -> 89        -0.36444
      86 -> 90         0.27403
      86 -> 94        -0.15822
      87 -> 95         0.42970

 Excited State  21:      Singlet-A      5.0506 eV  245.48 nm  f=0.0006  <S**2>=0.000
      83 -> 90        -0.25003
      84 -> 89         0.61843
      85 -> 92        -0.19068

 Excited State  22:      Singlet-A      5.0582 eV  245.12 nm  f=0.0000  <S**2>=0.000
      83 -> 89         0.55472
      84 -> 90        -0.18599
      85 -> 91        -0.39514

 Excited State  23:      Singlet-A      5.0731 eV  244.39 nm  f=0.0000  <S**2>=0.000
      81 -> 89        -0.16712
      85 -> 90         0.66061
      86 -> 93        -0.15059

 Excited State  24:      Singlet-A      5.0793 eV  244.10 nm  f=0.0000  <S**2>=0.000
      83 -> 89         0.24980
      84 -> 90        -0.36796
      85 -> 91         0.52613
      86 -> 92         0.11108

 Excited State  25:      Singlet-A      5.0996 eV  243.12 nm  f=0.0012  <S**2>=0.000
      83 -> 90        -0.23395
      85 -> 92         0.59706
      88 -> 98        -0.27686

 Excited State  26:      Singlet-A      5.1148 eV  242.40 nm  f=0.0011  <S**2>=0.000
      83 -> 90        -0.14135
      85 -> 92         0.23323
      88 -> 98         0.64569

 Excited State  27:      Singlet-A      5.1154 eV  242.37 nm  f=0.0000  <S**2>=0.000
      88 -> 99         0.70104

 Excited State  28:      Singlet-A      5.1592 eV  240.32 nm  f=0.0000  <S**2>=0.000
      83 -> 92        -0.48610
      84 -> 91         0.51320

 Excited State  29:      Singlet-A      5.1596 eV  240.30 nm  f=0.0000  <S**2>=0.000
      83 -> 91         0.50111
      84 -> 92        -0.49884

 Excited State  30:      Singlet-A      5.1764 eV  239.52 nm  f=0.0000  <S**2>=0.000
      81 -> 92        -0.10183
      82 -> 91        -0.43154
      83 -> 89         0.22514
      84 -> 90         0.46635
      85 -> 91         0.11330

 The electronic state is 1-A.
 Alpha  occ. eigenvalues --  -14.13878 -14.13877 -10.03338 -10.03337 -10.03307
 Alpha  occ. eigenvalues --  -10.03307 -10.02935 -10.02935  -9.99322  -9.99322
 Alpha  occ. eigenvalues --   -9.99322  -9.99321  -9.99219  -9.99219  -9.99209
 Alpha  occ. eigenvalues --   -9.99209  -9.99140  -9.99140  -9.98144  -9.98144
 Alpha  occ. eigenvalues --   -9.98143  -9.98143  -9.97851  -9.97851  -9.97811
 Alpha  occ. eigenvalues --   -9.97810  -0.92626  -0.88879  -0.80091  -0.79868
 Alpha  occ. eigenvalues --   -0.79132  -0.76761  -0.71017  -0.70180  -0.69702
 Alpha  occ. eigenvalues --   -0.69501  -0.69499  -0.68880  -0.66753  -0.63975
 Alpha  occ. eigenvalues --   -0.59505  -0.58510  -0.56276  -0.56243  -0.56123
 Alpha  occ. eigenvalues --   -0.54713  -0.52992  -0.51376  -0.51003  -0.48723
 Alpha  occ. eigenvalues --   -0.48712  -0.45357  -0.44358  -0.43891  -0.42740
 Alpha  occ. eigenvalues --   -0.41923  -0.41900  -0.41738  -0.40565  -0.39485
 Alpha  occ. eigenvalues --   -0.39171  -0.38499  -0.38435  -0.38423  -0.38207
 Alpha  occ. eigenvalues --   -0.37704  -0.37438  -0.34018  -0.33695  -0.33320
 Alpha  occ. eigenvalues --   -0.33300  -0.32759  -0.32255  -0.32157  -0.31153
 Alpha  occ. eigenvalues --   -0.31075  -0.31037  -0.29763  -0.29268  -0.28305
 Alpha  occ. eigenvalues --   -0.24196  -0.23768  -0.23494  -0.23417  -0.23144
 Alpha  occ. eigenvalues --   -0.22743  -0.19763  -0.14046
 Alpha virt. eigenvalues --   -0.04945  -0.04674  -0.04551  -0.04438  -0.03307
 Alpha virt. eigenvalues --   -0.02416  -0.02204   0.00844   0.03857   0.04698
 Alpha virt. eigenvalues --    0.04743   0.06079   0.06445   0.06812   0.07625

 Mulliken charges:
               1
     1  C   -0.189078
     2  C   -0.205573
     3  C    0.058515
     4  C    0.058518
     5  C   -0.205572
     6  C   -0.189078
     7  C    0.058515
     8  C    0.058518
     9  C   -0.205572
    10  H    0.149209
    11  C   -0.189078
    12  C   -0.189078
    13  C   -0.205573
    14  H    0.149209
    15  H    0.149210
    16  H    0.132450
    17  H    0.132450
    18  H    0.132450
    19  N    0.096944
    20  C   -0.003368
    21  C   -0.168287
    22  C   -0.168318
    23  C   -0.115828
    24  C   -0.115821
    25  C   -0.105384
    26  H    0.140798
    27  H    0.140800
    28  H    0.132130
    29  H    0.132130
    30  H    0.143154
    31  H    0.132450
    32  N    0.096943
    33  C   -0.003367
    34  C   -0.168304
    35  C   -0.168301
    36  C   -0.115826
    37  H    0.132131
    38  C   -0.115822
    39  H    0.132128
    40  C   -0.105384
    41  H    0.140799
    42  H    0.140799
    43  H    0.143154
    44  H    0.149209
 Sum of Mulliken charges =  -0.00000

 Dipole moment (field-independent basis, Debye):
    X=             -0.0000    Y=             -0.0000    Z=             -0.0001  Tot=              0.0001
 Quadrupole moment (field-independent basis, Debye-Ang):
   XX=           -110.9646   YY=           -155.7755   ZZ=           -143.9600
   XY=             -0.0000   XZ=             -0.0004   YZ=              0.0025

 1\1\GINC-CN017\SP\RTPSSTPSS TD-FC\Gen\C24H18N2\PNG4RJV\31-Mar-2021\0\\
 #p TPSSTPSS chkbasis geom=allcheck Guess=Read int=ultrafine scrf=(SMD,
 solvent=n,n-DiMethylFormamide) td=(NStates=30)\\Title\\0,1\C,0,0.69393
 61582,3.6660137525,-0.0000919242\C,0,1.3883791935,2.4478346151,-0.0000
 700102\C,0,0.7090282139,1.226267812,-0.0000429739\C,0,-0.7090535759,1.
 2262530465,-0.0000775063\C,0,-1.3884343391,2.447802275,-0.0000800997\C
 ,0,-0.694020864,3.6659977756,-0.0000879892\C,0,-0.7090282638,-1.226270
 3799,0.0000331054\C,0,0.7090540277,-1.2262554054,0.0001102503\C,0,1.38

 Normal termination of Gaussian 09 at Wed Mar 31 02:56:30 2021.
