 Gaussian 09, Revision E.01,

 ----------------------------------------------------------------------
 #p b3lyp/def2TZVP opt freq=noraman nosymm int=ultrafine scrf=(SMD,solv
 ent=n,n-DiMethylFormamide) EmpiricalDispersion=GD3BJ
 ----------------------------------------------------------------------

 -----
 Title
 -----
 Symbolic Z-matrix:
 Charge =  0 Multiplicity = 1

 SCF Done:  E(RB3LYP) =  -1035.40129148     A.U. after   12 cycles
 SCF Done:  E(RB3LYP) =  -1035.40359962     A.U. after    9 cycles
 SCF Done:  E(RB3LYP) =  -1035.40362977     A.U. after    7 cycles
 Optimization completed.
    -- Stationary point found.
 Normal termination of Gaussian 09 at Sun Feb 14 22:17:01 2021.

 --------------------------------------------------------------------
 #P Geom=AllCheck Guess=TCheck SCRF=Check GenChk RB3LYP/def2TZVP Freq
 --------------------------------------------------------------------

 Structure from the checkpoint file:  "cp.chk"
 -----
 Title
 -----
 Charge =  0 Multiplicity = 1

 SCF Done:  E(RB3LYP) =  -1035.40362977     A.U. after    1 cycles

  Exact polarizability: 527.474  -0.000 501.696   0.005  -0.001 335.761
 Approx polarizability: 547.620  -0.000 518.934   0.007   0.003 378.728

                      1                      2                      3
                      A                      A                      A
 Frequencies --     16.0925                35.1562                38.3427
 Red. masses --      5.7222                 5.4162                 3.6620
 Frc consts  --      0.0009                 0.0039                 0.0032
 IR Inten    --      0.2631                 1.2088                 0.0000

                      4                      5                      6
                      A                      A                      A
 Frequencies --     43.4446                45.4919                54.7764
 Red. masses --      4.4412                 3.8724                 5.2412
 Frc consts  --      0.0049                 0.0047                 0.0093
 IR Inten    --      0.0000                 0.0000                 1.2558

                      7                      8                      9
                      A                      A                      A
 Frequencies --     73.8908               117.5615               170.0721
 Red. masses --      4.8958                 3.7918                 4.6942
 Frc consts  --      0.0157                 0.0309                 0.0800
 IR Inten    --      0.0000                 0.0000                 0.0000

                     10                     11                     12
                      A                      A                      A
 Frequencies --    208.7307               212.8427               250.8099
 Red. masses --      6.7722                 5.2437                 4.7789
 Frc consts  --      0.1738                 0.1400                 0.1771
 IR Inten    --      0.0000                 0.0568                 3.8985

                     13                     14                     15
                      A                      A                      A
 Frequencies --    260.0229               268.0735               272.2803
 Red. masses --      4.1719                 4.8900                 4.2559
 Frc consts  --      0.1662                 0.2070                 0.1859
 IR Inten    --      0.0000                 0.0000                 0.9128

                     16                     17                     18
                      A                      A                      A
 Frequencies --    410.8471               412.2623               412.2906
 Red. masses --      4.5551                 6.8807                 5.4610
 Frc consts  --      0.4530                 0.6890                 0.5469
 IR Inten    --      7.7475                 0.0005                 8.5960

                     19                     20                     21
                      A                      A                      A
 Frequencies --    422.1550               422.2913               431.1608
 Red. masses --      2.8870                 2.8850                 6.2227
 Frc consts  --      0.3031                 0.3031                 0.6816
 IR Inten    --      0.0000                 0.0000                 0.0000

                     22                     23                     24
                      A                      A                      A
 Frequencies --    451.3658               461.2651               490.9316
 Red. masses --      5.1335                 3.1986                 3.8658
 Frc consts  --      0.6162                 0.4010                 0.5489
 IR Inten    --      0.0000                 0.0000                 3.1998

                     25                     26                     27
                      A                      A                      A
 Frequencies --    508.8032               542.7174               564.1061
 Red. masses --      4.3732                 3.2985                 4.2292
 Frc consts  --      0.6670                 0.5724                 0.7929
 IR Inten    --      0.0000                52.3845                 0.0000

                     28                     29                     30
                      A                      A                      A
 Frequencies --    570.9716               631.7955               633.7206
 Red. masses --      4.5886                 7.4258                 6.5177
 Frc consts  --      0.8814                 1.7464                 1.5422
 IR Inten    --      0.0000                 0.0000                32.9372

                     31                     32                     33
                      A                      A                      A
 Frequencies --    635.7295               636.1368               645.1310
 Red. masses --      6.4746                 6.4886                 4.1821
 Frc consts  --      1.5417                 1.5470                 1.0255
 IR Inten    --      0.5540                 0.0000                 0.0000

                     34                     35                     36
                      A                      A                      A
 Frequencies --    661.8742               701.5982               717.2821
 Red. masses --      6.4022                 5.9481                 1.6408
 Frc consts  --      1.6524                 1.7251                 0.4974
 IR Inten    --     53.5569                 0.0000               181.2919

                     37                     38                     39
                      A                      A                      A
 Frequencies --    718.0526               722.7416               733.1812
 Red. masses --      1.5205                 4.8946                 4.7603
 Frc consts  --      0.4619                 1.5064                 1.5077
 IR Inten    --      0.0000                 0.0000                 0.0000

                     40                     41                     42
                      A                      A                      A
 Frequencies --    743.6669               747.5055               762.5451
 Red. masses --      1.2282                 1.2254                 5.9560
 Frc consts  --      0.4002                 0.4034                 2.0405
 IR Inten    --    312.6815                 0.0000                 2.8622

                     43                     44                     45
                      A                      A                      A
 Frequencies --    779.2115               801.0265               850.2336
 Red. masses --      2.1567                 2.3985                 1.4400
 Frc consts  --      0.7715                 0.9067                 0.6133
 IR Inten    --     77.3954                 0.0000                 0.0000

                     46                     47                     48
                      A                      A                      A
 Frequencies --    852.5359               861.6337               861.6355
 Red. masses --      1.4251                 1.2470                 1.2469
 Frc consts  --      0.6103                 0.5454                 0.5454
 IR Inten    --      0.0000                 0.0000                 0.0000

                     49                     50                     51
                      A                      A                      A
 Frequencies --    917.4055               918.3475               919.0907
 Red. masses --      2.1272                 6.4727                 1.3799
 Frc consts  --      1.0548                 3.2163                 0.6868
 IR Inten    --      2.2705                 0.0001                23.2773

                     52                     53                     54
                      A                      A                      A
 Frequencies --    919.2656               924.5388               943.5154
 Red. masses --      1.3692                 2.2509                 1.2074
 Frc consts  --      0.6817                 1.1336                 0.6333
 IR Inten    --      0.0000                 0.0000                 0.0000

                     55                     56                     57
                      A                      A                      A
 Frequencies --    945.0302               958.8781               970.4478
 Red. masses --      1.2065                 6.1878                 2.4458
 Frc consts  --      0.6349                 3.3521                 1.3571
 IR Inten    --      0.0000                 0.5781                 0.0000

                     58                     59                     60
                      A                      A                      A
 Frequencies --    971.9768               991.3447               991.3510
 Red. masses --      2.4693                 1.3718                 1.3719
 Frc consts  --      1.3745                 0.7943                 0.7944
 IR Inten    --      0.4125                 0.0000                 0.0000

                     61                     62                     63
                      A                      A                      A
 Frequencies --   1012.7326              1012.8009              1026.8099
 Red. masses --      1.3153                 1.3137                 6.1986
 Frc consts  --      0.7948                 0.7939                 3.8505
 IR Inten    --      0.0757                 0.0000                 0.0000

                     64                     65                     66
                      A                      A                      A
 Frequencies --   1026.9154              1049.4108              1049.7430
 Red. masses --      6.2084                 2.1018                 2.0663
 Frc consts  --      3.8574                 1.3638                 1.3416
 IR Inten    --      2.4804                31.6673                 0.0000

                     67                     68                     69
                      A                      A                      A
 Frequencies --   1074.4279              1086.4464              1096.7686
 Red. masses --      2.3700                 1.8438                 1.5129
 Frc consts  --      1.6119                 1.2823                 1.0722
 IR Inten    --      0.0000                63.7949                36.4566

                     70                     71                     72
                      A                      A                      A
 Frequencies --   1096.7979              1121.8897              1146.1927
 Red. masses --      1.5126                 2.0032                 1.6378
 Frc consts  --      1.0721                 1.4855                 1.2677
 IR Inten    --      0.0002                 0.0000                 4.6253

                     73                     74                     75
                      A                      A                      A
 Frequencies --   1172.7633              1172.7654              1174.6988
 Red. masses --      1.0981                 1.0981                 1.0929
 Frc consts  --      0.8899                 0.8898                 0.8885
 IR Inten    --      0.0001                 0.3382                 6.3750

                     76                     77                     78
                      A                      A                      A
 Frequencies --   1177.1889              1185.0035              1185.4617
 Red. masses --      1.0902                 1.1485                 1.1248
 Frc consts  --      0.8901                 0.9502                 0.9313
 IR Inten    --      0.0000                 0.4892                 0.0000

                     79                     80                     81
                      A                      A                      A
 Frequencies --   1201.1727              1219.9368              1253.9877
 Red. masses --      3.1153                 3.0670                 2.0376
 Frc consts  --      2.6482                 2.6893                 1.8878
 IR Inten    --      3.5272                 0.0000                 0.0000

                     82                     83                     84
                      A                      A                      A
 Frequencies --   1295.2366              1307.7406              1312.9652
 Red. masses --      2.2593                 7.8138                 3.6164
 Frc consts  --      2.2332                 7.8733                 3.6731
 IR Inten    --    193.0416              1049.9961                 0.0000

                     85                     86                     87
                      A                      A                      A
 Frequencies --   1317.7342              1317.7779              1336.1419
 Red. masses --      4.1163                 4.1199                 2.1992
 Frc consts  --      4.2113                 4.2153                 2.3132
 IR Inten    --      0.0002                 9.4994                 0.0000

                     88                     89                     90
                      A                      A                      A
 Frequencies --   1350.1041              1350.1242              1371.9526
 Red. masses --      1.5972                 1.5963                 7.7059
 Frc consts  --      1.7153                 1.7144                 8.5458
 IR Inten    --      0.0000                 0.6295                 0.0000

                     91                     92                     93
                      A                      A                      A
 Frequencies --   1373.3424              1375.5236              1474.3954
 Red. masses --      2.5006                 5.2371                 2.3936
 Frc consts  --      2.7787                 5.8381                 3.0657
 IR Inten    --    190.6015               912.8965                 0.0000

                     94                     95                     96
                      A                      A                      A
 Frequencies --   1482.8798              1482.8856              1490.0901
 Red. masses --      2.2023                 2.2025                 2.4794
 Frc consts  --      2.8533                 2.8535                 3.2436
 IR Inten    --     11.4812                 0.0000                30.8919

                     97                     98                     99
                      A                      A                      A
 Frequencies --   1511.9838              1528.7642              1530.9315
 Red. masses --      2.8245                 2.3236                 2.4181
 Frc consts  --      3.8044                 3.1996                 3.3392
 IR Inten    --   1260.1196                 0.0000               188.2581

                    100                    101                    102
                      A                      A                      A
 Frequencies --   1550.1445              1596.2594              1616.1956
 Red. masses --      2.9576                 5.2615                 5.9615
 Frc consts  --      4.1873                 7.8989                 9.1747
 IR Inten    --      0.0000                 0.0000                 0.2968

                    103                    104                    105
                      A                      A                      A
 Frequencies --   1627.1927              1627.2023              1630.8714
 Red. masses --      5.9426                 5.9425                 5.8945
 Frc consts  --      9.2705                 9.2705                 9.2371
 IR Inten    --      0.0042                10.9173               202.4213

                    106                    107                    108
                      A                      A                      A
 Frequencies --   1638.8079              1650.0831              1650.5868
 Red. masses --      5.9769                 7.5315                 6.3254
 Frc consts  --      9.4576                12.0822                10.1535
 IR Inten    --      0.0000                 0.0000                16.6253

                    109                    110                    111
                      A                      A                      A
 Frequencies --   3175.7339              3175.7377              3178.5040
 Red. masses --      1.0863                 1.0863                 1.0863
 Frc consts  --      6.4548                 6.4549                 6.4659
 IR Inten    --      1.1326                 0.0011                 0.0000

                    112                    113                    114
                      A                      A                      A
 Frequencies --   3178.7289              3182.5790              3182.5813
 Red. masses --      1.0865                 1.0884                 1.0884
 Frc consts  --      6.4680                 6.4953                 6.4953
 IR Inten    --      3.5000                 0.0107                 6.8256

                    115                    116                    117
                      A                      A                      A
 Frequencies --   3189.7358              3189.7407              3193.1058
 Red. masses --      1.0918                 1.0918                 1.0929
 Frc consts  --      6.5449                 6.5449                 6.5654
 IR Inten    --     39.1802                 0.0890                64.9621

                    118                    119                    120
                      A                      A                      A
 Frequencies --   3193.2194              3195.7911              3195.8037
 Red. masses --      1.0929                 1.0950                 1.0950
 Frc consts  --      6.5660                 6.5890                 6.5891
 IR Inten    --      0.0000                 0.0020                42.4706

                    121                    122                    123
                      A                      A                      A
 Frequencies --   3201.6230              3201.6470              3211.6085
 Red. masses --      1.0982                 1.0982                 1.0908
 Frc consts  --      6.6326                 6.6327                 6.6290
 IR Inten    --     16.5075                 0.0001                 0.0000

                    124                    125                    126
                      A                      A                      A
 Frequencies --   3212.2274              3214.2318              3214.7999
 Red. masses --      1.0909                 1.0931                 1.0931
 Frc consts  --      6.6323                 6.6538                 6.6559
 IR Inten    --     23.4452                 1.3093                 0.0000

 - Thermochemistry -
 -------------------
 Temperature   298.150 Kelvin.  Pressure   1.00000 Atm.
 Atom     1 has atomic number  6 and mass  12.00000

 Molecular mass:   334.14700 amu.
 Principal axes and moments of inertia in atomic units:
                           1         2         3
     Eigenvalues --  4575.06610********************
           X            1.00000  -0.00001   0.00000
           Y            0.00001   1.00000   0.00004
           Z           -0.00000  -0.00004   1.00000
 This molecule is an asymmetric top.
 Rotational symmetry number  1.
 Warning -- assumption of classical behavior for rotation
           may cause significant error
 Rotational temperatures (Kelvin)      0.01893     0.00727     0.00569
 Rotational constants (GHZ):           0.39447     0.15157     0.11856
 Zero-point vibrational energy     927503.1 (Joules/Mol)
                                  221.67857 (Kcal/Mol)
 Warning -- explicit consideration of  28 degrees of freedom as
           vibrations may cause significant error
 Vibrational temperatures:     23.15    50.58    55.17    62.51    65.45
          (Kelvin)             78.81   106.31   169.14   244.70   300.32
                              306.23   360.86   374.11   385.70   391.75
                              591.12   593.15   593.19   607.39   607.58
                              620.34   649.41   663.66   706.34   732.05
                              780.85   811.62   821.50   909.01   911.78
                              914.67   915.26   928.20   952.29  1009.44
                             1032.01  1033.12  1039.86  1054.88  1069.97
                             1075.49  1097.13  1121.11  1152.50  1223.29
                             1226.61  1239.70  1239.70  1319.94  1321.30
                             1322.36  1322.62  1330.20  1357.51  1359.69
                             1379.61  1396.26  1398.46  1426.32  1426.33
                             1457.09  1457.19  1477.35  1477.50  1509.87
                             1510.34  1545.86  1563.15  1578.00  1578.05
                             1614.15  1649.11  1687.34  1687.35  1690.13
                             1693.71  1704.95  1705.61  1728.22  1755.21
                             1804.21  1863.55  1881.54  1889.06  1895.92
                             1895.99  1922.41  1942.50  1942.53  1973.93
                             1975.93  1979.07  2121.32  2133.53  2133.54
                             2143.90  2175.40  2199.55  2202.67  2230.31
                             2296.66  2325.34  2341.16  2341.18  2346.46
                             2357.88  2374.10  2374.82  4569.17  4569.17
                             4573.15  4573.48  4579.02  4579.02  4589.31
                             4589.32  4594.16  4594.32  4598.02  4598.04
                             4606.42  4606.45  4620.78  4621.67  4624.56
                             4625.37

 Zero-point correction=                           0.353267 (Hartree/Particle)
 Thermal correction to Energy=                    0.372852
 Thermal correction to Enthalpy=                  0.373796
 Thermal correction to Gibbs Free Energy=         0.302627
 Sum of electronic and zero-point Energies=          -1035.050362
 Sum of electronic and thermal Energies=             -1035.030778
 Sum of electronic and thermal Enthalpies=           -1035.029834
 Sum of electronic and thermal Free Energies=        -1035.101002

                     E (Thermal)             CV                S
                      KCal/Mol        Cal/Mol-Kelvin    Cal/Mol-Kelvin
 Total                  233.968             80.123            149.787
 Electronic               0.000              0.000              0.000
 Translational            0.889              2.981             43.314
 Rotational               0.889              2.981             35.071
 Vibrational            232.191             74.161             71.402
 Vibration     1          0.593              1.986              7.066
 Vibration     2          0.594              1.982              5.515
 Vibration     3          0.594              1.982              5.343
 Vibration     4          0.595              1.980              5.095
 Vibration     5          0.595              1.979              5.004
 Vibration     6          0.596              1.976              4.637
 Vibration     7          0.599              1.966              4.047
 Vibration     8          0.608              1.935              3.140
 Vibration     9          0.625              1.879              2.435
 Vibration    10          0.642              1.827              2.055
 Vibration    11          0.644              1.821              2.019
 Vibration    12          0.663              1.761              1.725
 Vibration    13          0.668              1.746              1.662
 Vibration    14          0.673              1.732              1.609
 Vibration    15          0.675              1.724              1.582
 Vibration    16          0.775              1.447              0.924
 Vibration    17          0.776              1.444              0.919
 Vibration    18          0.776              1.444              0.919
 Vibration    19          0.784              1.422              0.885
 Vibration    20          0.785              1.422              0.884
 Vibration    21          0.792              1.402              0.855
 Vibration    22          0.810              1.358              0.792
 Vibration    23          0.819              1.336              0.762
 Vibration    24          0.847              1.270              0.681
 Vibration    25          0.864              1.230              0.636
 Vibration    26          0.898              1.156              0.559
 Vibration    27          0.920              1.109              0.516
 Vibration    28          0.927              1.094              0.502

 Optimization completed.
    -- Stationary point found.
 Normal termination of Gaussian 09 at Mon Feb 15 02:42:47 2021.
 Gaussian 09:  ES64L-G09RevE.01 30-Nov-2015

 ----------------------------------------------------------------------
 #p b3lyp chkbasis geom=allcheck Guess=Read int=ultrafine scrf=(SMD,sol
 vent=n,n-DiMethylFormamide) td=(NStates=30) EmpiricalDispersion=GD3BJ
 ----------------------------------------------------------------------

 Structure from the checkpoint file:  "cp.chk"
 -----
 Title
 -----
 Charge =  0 Multiplicity = 1

                         Standard orientation:
 ---------------------------------------------------------------------
 Center     Atomic      Atomic             Coordinates (Angstroms)
 Number     Number       Type             X           Y           Z
 ---------------------------------------------------------------------
      1          6           0        0.690845   -3.649993    0.000111
      2          6           0        1.382938   -2.437026    0.000090
      3          6           0        0.706012   -1.221710    0.000065
      4          6           0       -0.706019   -1.221706    0.000110
      5          6           0       -1.382957   -2.437014    0.000111
      6          6           0       -0.690877   -3.649987    0.000111
      7          6           0       -0.706012    1.221710    0.000002
      8          6           0        0.706020    1.221705   -0.000093
      9          6           0        1.382956    2.437015   -0.000329
     10          1           0        2.462739    2.439412   -0.000440
     11          6           0        0.690875    3.649988   -0.000407
     12          6           0       -0.690847    3.649993   -0.000261
     13          6           0       -1.382938    2.437026   -0.000068
     14          1           0        2.462720   -2.439437    0.000091
     15          1           0       -2.462740   -2.439411    0.000130
     16          1           0       -1.246093   -4.578892    0.000115
     17          1           0        1.246091    4.578893   -0.000580
     18          1           0       -1.246056    4.578902   -0.000302
     19          7           0        1.392666   -0.000004    0.000049
     20          6           0       -2.821745    0.000005    0.000095
     21          6           0       -3.513024   -0.000018    1.206250
     22          6           0       -3.512867    0.000026   -1.206153
     23          6           0       -4.902935   -0.000018    1.205019
     24          6           0       -4.902776    0.000029   -1.205104
     25          6           0       -5.598434    0.000006   -0.000087
     26          1           0       -5.442214   -0.000035    2.143582
     27          1           0       -5.441933    0.000046   -2.143737
     28          1           0       -2.957429   -0.000034    2.135196
     29          1           0       -2.957154    0.000042   -2.135028
     30          1           0       -6.680982    0.000007   -0.000159
     31          1           0        1.246054   -4.578903    0.000131
     32          7           0       -1.392665    0.000004    0.000194
     33          6           0        2.821745   -0.000004    0.000050
     34          6           0        3.512937    0.000376    1.206256
     35          6           0        3.512955   -0.000385   -1.206147
     36          6           0        4.902847    0.000380    1.205127
     37          1           0        2.957274    0.000664    2.135161
     38          6           0        4.902866   -0.000391   -1.204995
     39          1           0        2.957310   -0.000672   -2.135062
     40          6           0        5.598434   -0.000007    0.000071
     41          1           0        5.442058    0.000676    2.143729
     42          1           0        5.442090   -0.000688   -2.143590
     43          1           0        6.680983   -0.000008    0.000080
     44          1           0       -2.462720    2.439434    0.000031
 ---------------------------------------------------------------------

 SCF Done:  E(RB3LYP) =  -1035.40362977     A.U. after    1 cycles

 Excitation energies and oscillator strengths:

 Excited State   1:      Singlet-A      2.9315 eV  422.93 nm  f=0.0000  <S**2>=0.000
      88 -> 89         0.69478
      88 -> 93        -0.12133
 This state for optimization and/or second-order correction.
 Total Energy, E(TD-HF/TD-KS) =  -1035.29589733
 Copying the excited state density for this state as the 1-particle RhoCI density.

 Excited State   2:      Singlet-A      3.1329 eV  395.74 nm  f=0.0664  <S**2>=0.000
      88 -> 90         0.70194

 Excited State   3:      Singlet-A      3.1629 eV  391.99 nm  f=0.0000  <S**2>=0.000
      88 -> 91         0.70383

 Excited State   4:      Singlet-A      3.1986 eV  387.62 nm  f=0.0000  <S**2>=0.000
      88 -> 92         0.70362

 Excited State   5:      Singlet-A      3.5078 eV  353.45 nm  f=0.0000  <S**2>=0.000
      88 -> 89         0.12245
      88 -> 93         0.69294

 Excited State   6:      Singlet-A      3.8377 eV  323.07 nm  f=0.1985  <S**2>=0.000
      87 -> 89        -0.14343
      88 -> 94         0.68469

 Excited State   7:      Singlet-A      3.8816 eV  319.41 nm  f=0.0000  <S**2>=0.000
      88 -> 95         0.69215

 Excited State   8:      Singlet-A      4.8519 eV  255.54 nm  f=0.0000  <S**2>=0.000
      87 -> 90         0.70107

 Excited State   9:      Singlet-A      4.8603 eV  255.10 nm  f=0.6898  <S**2>=0.000
      87 -> 89         0.68225
      88 -> 94         0.13816

 Excited State  10:      Singlet-A      4.8704 eV  254.57 nm  f=0.2186  <S**2>=0.000
      85 -> 89        -0.10763
      88 -> 96         0.68264

 Excited State  11:      Singlet-A      4.8892 eV  253.59 nm  f=0.0000  <S**2>=0.000
      87 -> 91         0.70314

 Excited State  12:      Singlet-A      4.9253 eV  251.73 nm  f=0.0000  <S**2>=0.000
      87 -> 92         0.70331

 Excited State  13:      Singlet-A      4.9957 eV  248.18 nm  f=0.0038  <S**2>=0.000
      88 -> 97         0.67356
      88 -> 99         0.13981
      88 ->101         0.15530

 Excited State  14:      Singlet-A      5.2450 eV  236.39 nm  f=0.4066  <S**2>=0.000
      87 -> 93         0.69222
      88 -> 94        -0.10430

 Excited State  15:      Singlet-A      5.3276 eV  232.72 nm  f=0.0008  <S**2>=0.000
      81 -> 91        -0.16563
      82 -> 92         0.23162
      83 -> 90         0.33351
      84 -> 89         0.31765
      84 -> 93         0.16400
      85 -> 92        -0.20480
      86 -> 91        -0.33181
      88 -> 99         0.13371

 Excited State  16:      Singlet-A      5.3300 eV  232.61 nm  f=0.0000  <S**2>=0.000
      81 -> 92        -0.16846
      82 -> 91         0.24370
      83 -> 89         0.31465
      83 -> 93         0.16589
      84 -> 90         0.35233
      85 -> 91        -0.22061
      86 -> 92        -0.31842

 Excited State  17:      Singlet-A      5.3491 eV  231.78 nm  f=0.0010  <S**2>=0.000
      88 -> 97        -0.15278
      88 -> 99         0.67293

 Excited State  18:      Singlet-A      5.5114 eV  224.96 nm  f=0.0000  <S**2>=0.000
      88 -> 98         0.69708

 Excited State  19:      Singlet-A      5.5414 eV  223.74 nm  f=0.0000  <S**2>=0.000
      81 -> 89        -0.11221
      82 -> 90         0.13625
      85 -> 90         0.32320
      85 -> 94         0.13165
      86 -> 89         0.56352

 Excited State  20:      Singlet-A      5.5497 eV  223.41 nm  f=0.0002  <S**2>=0.000
      85 -> 89        -0.14937
      87 -> 95         0.67704

 Excited State  21:      Singlet-A      5.6189 eV  220.65 nm  f=0.0000  <S**2>=0.000
      87 -> 94         0.69419

 Excited State  22:      Singlet-A      5.7048 eV  217.33 nm  f=0.1083  <S**2>=0.000
      85 -> 89        -0.19729
      86 -> 90         0.65086

 Excited State  23:      Singlet-A      5.7366 eV  216.13 nm  f=0.0000  <S**2>=0.000
      88 ->100         0.70373

 Excited State  24:      Singlet-A      5.8166 eV  213.15 nm  f=0.0119  <S**2>=0.000
      81 -> 91        -0.11379
      83 -> 90        -0.19248
      84 -> 89         0.55056
      84 -> 93        -0.18379
      86 -> 91         0.32980

 Excited State  25:      Singlet-A      5.8223 eV  212.95 nm  f=0.2704  <S**2>=0.000
      82 -> 89        -0.19794
      83 -> 91         0.12896
      84 -> 92         0.12176
      85 -> 89         0.60841
      86 -> 90         0.12086

 Excited State  26:      Singlet-A      5.8231 eV  212.92 nm  f=0.0000  <S**2>=0.000
      81 -> 89        -0.16521
      81 -> 93         0.11155
      82 -> 90         0.14383
      85 -> 90         0.49280
      86 -> 89        -0.39484
      86 -> 93        -0.11145
      87 -> 96        -0.15173

 Excited State  27:      Singlet-A      5.8360 eV  212.45 nm  f=0.0000  <S**2>=0.000
      83 -> 89         0.58184
      83 -> 93        -0.19330
      84 -> 90        -0.27532
      86 -> 92         0.20419

 Excited State  28:      Singlet-A      5.8600 eV  211.58 nm  f=0.0035  <S**2>=0.000
      81 -> 91        -0.27790
      82 -> 92         0.14022
      83 -> 90         0.31148
      84 -> 89        -0.20261
      84 -> 93         0.12538
      85 -> 92        -0.11760
      86 -> 91         0.48268

 Excited State  29:      Singlet-A      5.8785 eV  210.91 nm  f=0.0007  <S**2>=0.000
      88 -> 97        -0.14469
      88 ->101         0.67795

 Excited State  30:      Singlet-A      5.8802 eV  210.85 nm  f=0.0000  <S**2>=0.000
      81 -> 92        -0.27606
      82 -> 91         0.13380
      84 -> 90         0.25829
      85 -> 91        -0.11943
      86 -> 92         0.55922

 The electronic state is 1-A.
 Alpha  occ. eigenvalues --  -14.35268 -14.35266 -10.22150 -10.22147 -10.22101
 Alpha  occ. eigenvalues --  -10.22101 -10.21477 -10.21476 -10.17828 -10.17827
 Alpha  occ. eigenvalues --  -10.17823 -10.17823 -10.17778 -10.17778 -10.17762
 Alpha  occ. eigenvalues --  -10.17762 -10.17703 -10.17703 -10.16709 -10.16709
 Alpha  occ. eigenvalues --  -10.16707 -10.16707 -10.16463 -10.16463 -10.16403
 Alpha  occ. eigenvalues --  -10.16403  -0.99808  -0.95853  -0.86650  -0.86508
 Alpha  occ. eigenvalues --   -0.85606  -0.83212  -0.77135  -0.76295  -0.75805
 Alpha  occ. eigenvalues --   -0.75414  -0.75412  -0.74823  -0.72616  -0.69691
 Alpha  occ. eigenvalues --   -0.65052  -0.64056  -0.61569  -0.61526  -0.61413
 Alpha  occ. eigenvalues --   -0.59980  -0.58088  -0.56622  -0.56053  -0.53661
 Alpha  occ. eigenvalues --   -0.53650  -0.50020  -0.48999  -0.48368  -0.47820
 Alpha  occ. eigenvalues --   -0.46995  -0.46696  -0.46574  -0.44964  -0.43916
 Alpha  occ. eigenvalues --   -0.43680  -0.43303  -0.42996  -0.42924  -0.42665
 Alpha  occ. eigenvalues --   -0.42192  -0.42104  -0.38026  -0.37756  -0.37572
 Alpha  occ. eigenvalues --   -0.37208  -0.37012  -0.36443  -0.36397  -0.35364
 Alpha  occ. eigenvalues --   -0.35279  -0.35203  -0.33954  -0.33318  -0.32053
 Alpha  occ. eigenvalues --   -0.27201  -0.26660  -0.26286  -0.26211  -0.26034
 Alpha  occ. eigenvalues --   -0.25567  -0.22611  -0.16542
 Alpha virt. eigenvalues --   -0.02892  -0.02610  -0.02229  -0.02106  -0.00981
 Alpha virt. eigenvalues --   -0.00117  -0.00052   0.03162   0.04696   0.05765
 Alpha virt. eigenvalues --    0.05814   0.07037   0.07248   0.07618   0.08395

 Mulliken charges:
               1
     1  C   -0.199489
     2  C   -0.199632
     3  C    0.064593
     4  C    0.064597
     5  C   -0.199633
     6  C   -0.199489
     7  C    0.064594
     8  C    0.064596
     9  C   -0.199633
    10  H    0.160889
    11  C   -0.199489
    12  C   -0.199489
    13  C   -0.199633
    14  H    0.160889
    15  H    0.160889
    16  H    0.140899
    17  H    0.140899
    18  H    0.140899
    19  N    0.026138
    20  C    0.081499
    21  C   -0.210618
    22  C   -0.210669
    23  C   -0.121768
    24  C   -0.121763
    25  C   -0.121623
    26  H    0.149994
    27  H    0.149995
    28  H    0.146291
    29  H    0.146294
    30  H    0.151707
    31  H    0.140899
    32  N    0.026138
    33  C    0.081499
    34  C   -0.210640
    35  C   -0.210647
    36  C   -0.121767
    37  H    0.146293
    38  C   -0.121765
    39  H    0.146293
    40  C   -0.121623
    41  H    0.149994
    42  H    0.149995
    43  H    0.151707
    44  H    0.160889
 Sum of Mulliken charges =  -0.00000

 Dipole moment (field-independent basis, Debye):
    X=             -0.0000    Y=             -0.0000    Z=             -0.0002  Tot=              0.0002
 Quadrupole moment (field-independent basis, Debye-Ang):
   XX=           -114.2279   YY=           -156.8604   ZZ=           -145.2649
   XY=             -0.0000   XZ=             -0.0006   YZ=              0.0024

 Normal termination of Gaussian 09 at Mon Feb 15 05:00:07 2021.
