                         Program Version 5.0.2 -  RELEASE  -
|  1> %maxcore 3200
|  2> %pal
|  3>  nprocs= 8
|  4> end
|  5> ! RI-wB2PLYP def2-TZVP def2/J def2-TZVP/C RIJCOSX CPCM TightSCF
|  6> %TDDFT DCORR 1
|  7>    NROOTS   30
|  8>
|  9>    TDA      FALSE
| 10> END
| 11>
| 12> %CPCM
| 13>    SMD          TRUE
| 14>    SMDsolvent   "N,N-DIMETHYLFORMAMIDE"
| 15> END
| 16>
| 17>
| 18> * xyz 0 1
| 19> C                   0.68932400   -3.64378400    0.00004200
| 20> C                   1.38003700   -2.43359300    0.00004800
| 21> C                   0.70476900   -1.21932900    0.00003100
| 22> C                  -0.70477600   -1.21932500    0.00005900
| 23> C                  -1.38005700   -2.43358000    0.00003100
| 24> C                  -0.68935600   -3.64377700    0.00001900
| 25> C                  -0.70476900    1.21932900   -0.00000200
| 26> C                   0.70477700    1.21932400   -0.00009000
| 27> C                   1.38005600    2.43358200   -0.00030700
| 28> H                   2.46138000    2.43402900   -0.00042300
| 29> C                   0.68935500    3.64377800   -0.00036700
| 30> C                  -0.68932600    3.64378300   -0.00022100
| 31> C                  -1.38003800    2.43359200   -0.00005200
| 32> H                   2.46136100   -2.43405500    0.00007000
| 33> H                  -2.46138100   -2.43402700    0.00003600
| 34> H                  -1.24454000   -4.57263300   -0.00000100
| 35> H                   1.24453800    4.57263400   -0.00052600
| 36> H                  -1.24450200    4.57264300   -0.00024400
| 37> N                   1.38907800   -0.00000400    0.00003800
| 38> C                  -2.81718700    0.00000400    0.00008900
| 39> C                  -3.50829500   -0.00010200    1.20463900
| 40> C                  -3.50818700    0.00011100   -1.20452700
| 41> C                  -4.89502400   -0.00010300    1.20212500
| 42> C                  -4.89491500    0.00011400   -1.20213700
| 43> C                  -5.58872000    0.00000700   -0.00003600
| 44> H                  -5.43460900   -0.00018700    2.14065000
| 45> H                  -5.43441600    0.00019900   -2.14071000
| 46> H                  -2.95224600   -0.00018600    2.13431600
| 47> H                  -2.95205700    0.00019300   -2.13415600
| 48> H                  -6.67129700    0.00000800   -0.00008600
| 49> H                   1.24449900   -4.57264400    0.00005700
| 50> N                  -1.38907700    0.00000400    0.00016300
| 51> C                   2.81718700   -0.00000400    0.00005600
| 52> C                   3.50821800    0.00061200    1.20465200
| 53> C                   3.50826600   -0.00062100   -1.20451300
| 54> C                   4.89494600    0.00062000    1.20222900
| 55> H                   2.95210800    0.00109100    2.13429300
| 56> C                   4.89499500   -0.00063200   -1.20203300
| 57> H                   2.95219700   -0.00109900   -2.13417800
| 58> C                   5.58872100   -0.00000700    0.00011200
| 59> H                   5.43447100    0.00110500    2.14078800
| 60> H                   5.43455600   -0.00111800   -2.14057100
| 61> H                   6.67129800   -0.00000800    0.00013500
| 62> H                  -2.46136100    2.43405200    0.00004800
| 63> *
| 64>
| 65>
| 66>                          ****END OF INPUT****

CARTESIAN COORDINATES (ANGSTROEM)
---------------------------------
  C      0.689324   -3.643784    0.000042
  C      1.380037   -2.433593    0.000048
  C      0.704769   -1.219329    0.000031
  C     -0.704776   -1.219325    0.000059
  C     -1.380057   -2.433580    0.000031
  C     -0.689356   -3.643777    0.000019
  C     -0.704769    1.219329   -0.000002
  C      0.704777    1.219324   -0.000090
  C      1.380056    2.433582   -0.000307
  H      2.461380    2.434029   -0.000423
  C      0.689355    3.643778   -0.000367
  C     -0.689326    3.643783   -0.000221
  C     -1.380038    2.433592   -0.000052
  H      2.461361   -2.434055    0.000070
  H     -2.461381   -2.434027    0.000036
  H     -1.244540   -4.572633   -0.000001
  H      1.244538    4.572634   -0.000526
  H     -1.244502    4.572643   -0.000244
  N      1.389078   -0.000004    0.000038
  C     -2.817187    0.000004    0.000089
  C     -3.508295   -0.000102    1.204639
  C     -3.508187    0.000111   -1.204527
  C     -4.895024   -0.000103    1.202125
  C     -4.894915    0.000114   -1.202137
  C     -5.588720    0.000007   -0.000036
  H     -5.434609   -0.000187    2.140650
  H     -5.434416    0.000199   -2.140710
  H     -2.952246   -0.000186    2.134316
  H     -2.952057    0.000193   -2.134156
  H     -6.671297    0.000008   -0.000086
  H      1.244499   -4.572644    0.000057
  N     -1.389077    0.000004    0.000163
  C      2.817187   -0.000004    0.000056
  C      3.508218    0.000612    1.204652
  C      3.508266   -0.000621   -1.204513
  C      4.894946    0.000620    1.202229
  H      2.952108    0.001091    2.134293
  C      4.894995   -0.000632   -1.202033
  H      2.952197   -0.001099   -2.134178
  C      5.588721   -0.000007    0.000112
  H      5.434471    0.001105    2.140788
  H      5.434556   -0.001118   -2.140571
  H      6.671298   -0.000008    0.000135
  H     -2.461361    2.434052    0.000048

 Total Charge           Charge          ....    0
 Multiplicity           Mult            ....    1
 Number of Electrons    NEL             ....  176
 Basis Dimension        Dim             ....  914

ORBITAL ENERGIES
----------------

  NO   OCC          E(Eh)            E(eV)
   0   2.0000     -14.939091      -406.5133
   1   2.0000     -14.939083      -406.5131
   2   2.0000     -10.738508      -292.2097
   3   2.0000     -10.738478      -292.2088
   4   2.0000     -10.737723      -292.1883
   5   2.0000     -10.737717      -292.1881
   6   2.0000     -10.727740      -291.9167
   7   2.0000     -10.727737      -291.9166
   8   2.0000     -10.690392      -290.9004
   9   2.0000     -10.690389      -290.9003
  10   2.0000     -10.690256      -290.8967
  11   2.0000     -10.690256      -290.8967
  12   2.0000     -10.689655      -290.8803
  13   2.0000     -10.689654      -290.8803
  14   2.0000     -10.689327      -290.8714
  15   2.0000     -10.689327      -290.8714
  16   2.0000     -10.688737      -290.8553
  17   2.0000     -10.688736      -290.8553
  18   2.0000     -10.681650      -290.6625
  19   2.0000     -10.681649      -290.6625
  20   2.0000     -10.681637      -290.6621
  21   2.0000     -10.681635      -290.6621
  22   2.0000     -10.678855      -290.5864
  23   2.0000     -10.678855      -290.5864
  24   2.0000     -10.677931      -290.5613
  25   2.0000     -10.677931      -290.5613
  26   2.0000      -1.216099       -33.0917
  27   2.0000      -1.170222       -31.8434
  28   2.0000      -1.074139       -29.2288
  29   2.0000      -1.073733       -29.2178
  30   2.0000      -1.061633       -28.8885
  31   2.0000      -1.036580       -28.2068
  32   2.0000      -0.963428       -26.2162
  33   2.0000      -0.956441       -26.0261
  34   2.0000      -0.951476       -25.8910
  35   2.0000      -0.945911       -25.7395
  36   2.0000      -0.945884       -25.7388
  37   2.0000      -0.938542       -25.5390
  38   2.0000      -0.915411       -24.9096
  39   2.0000      -0.879401       -23.9297
  40   2.0000      -0.822307       -22.3761
  41   2.0000      -0.810563       -22.0565
  42   2.0000      -0.783055       -21.3080
  43   2.0000      -0.782477       -21.2923
  44   2.0000      -0.778796       -21.1921
  45   2.0000      -0.766885       -20.8680
  46   2.0000      -0.742319       -20.1995
  47   2.0000      -0.720729       -19.6120
  48   2.0000      -0.718457       -19.5502
  49   2.0000      -0.687654       -18.7120
  50   2.0000      -0.685461       -18.6523
  51   2.0000      -0.647241       -17.6123
  52   2.0000      -0.634620       -17.2689
  53   2.0000      -0.626273       -17.0417
  54   2.0000      -0.625717       -17.0266
  55   2.0000      -0.614156       -16.7120
  56   2.0000      -0.611482       -16.6393
  57   2.0000      -0.608725       -16.5642
  58   2.0000      -0.589238       -16.0340
  59   2.0000      -0.575862       -15.6700
  60   2.0000      -0.575430       -15.6583
  61   2.0000      -0.570636       -15.5278
  62   2.0000      -0.568329       -15.4650
  63   2.0000      -0.566572       -15.4172
  64   2.0000      -0.561724       -15.2853
  65   2.0000      -0.557998       -15.1839
  66   2.0000      -0.554656       -15.0929
  67   2.0000      -0.509278       -13.8582
  68   2.0000      -0.509162       -13.8550
  69   2.0000      -0.505877       -13.7656
  70   2.0000      -0.498731       -13.5712
  71   2.0000      -0.497520       -13.5382
  72   2.0000      -0.492976       -13.4146
  73   2.0000      -0.489236       -13.3128
  74   2.0000      -0.478858       -13.0304
  75   2.0000      -0.477345       -12.9892
  76   2.0000      -0.476876       -12.9765
  77   2.0000      -0.461004       -12.5446
  78   2.0000      -0.455982       -12.4079
  79   2.0000      -0.440747       -11.9933
  80   2.0000      -0.367820       -10.0089
  81   2.0000      -0.360160        -9.8005
  82   2.0000      -0.353501        -9.6192
  83   2.0000      -0.352677        -9.5968
  84   2.0000      -0.352169        -9.5830
  85   2.0000      -0.346515        -9.4292
  86   2.0000      -0.317169        -8.6306
  87   2.0000      -0.247292        -6.7292
  88   0.0000       0.066475         1.8089
  89   0.0000       0.069908         1.9023
  90   0.0000       0.078624         2.1395
  91   0.0000       0.080456         2.1893
  92   0.0000       0.093712         2.5500

MULLIKEN ATOMIC CHARGES
-----------------------
   0 C :   -0.220096
   1 C :   -0.239947
   2 C :    0.098382
   3 C :    0.099142
   4 C :   -0.239969
   5 C :   -0.220677
   6 C :    0.100711
   7 C :    0.099390
   8 C :   -0.239729
   9 H :    0.192598
  10 C :   -0.222340
  11 C :   -0.220333
  12 C :   -0.241061
  13 H :    0.191706
  14 H :    0.191677
  15 H :    0.174249
  16 H :    0.174132
  17 H :    0.174149
  18 N :   -0.025211
  19 C :    0.020461
  20 C :   -0.235046
  21 C :   -0.234423
  22 C :   -0.146935
  23 C :   -0.147645
  24 C :   -0.146700
  25 H :    0.181551
  26 H :    0.180816
  27 H :    0.180961
  28 H :    0.180971
  29 H :    0.182171
  30 H :    0.174297
  31 N :   -0.025132
  32 C :    0.021029
  33 C :   -0.236111
  34 C :   -0.235487
  35 C :   -0.145525
  36 H :    0.180941
  37 C :   -0.146448
  38 H :    0.180958
  39 C :   -0.148012
  40 H :    0.181559
  41 H :    0.180840
  42 H :    0.182159
  43 H :    0.191975
Sum of atomic charges:   -0.0000000

LOEWDIN ATOMIC CHARGES
----------------------
   0 C :   -0.175054
   1 C :   -0.133790
   2 C :   -0.133898
   3 C :   -0.133897
   4 C :   -0.133789
   5 C :   -0.175057
   6 C :   -0.133896
   7 C :   -0.133893
   8 C :   -0.133793
   9 H :    0.163088
  10 C :   -0.175059
  11 C :   -0.175056
  12 C :   -0.133792
  13 H :    0.163086
  14 H :    0.163086
  15 H :    0.152887
  16 H :    0.152888
  17 H :    0.152886
  18 N :    0.271097
  19 C :   -0.178672
  20 C :   -0.103624
  21 C :   -0.103622
  22 C :   -0.142009
  23 C :   -0.142008
  24 C :   -0.142828
  25 H :    0.156568
  26 H :    0.156565
  27 H :    0.163127
  28 H :    0.163127
  29 H :    0.155820
  30 H :    0.152886
  31 N :    0.271097
  32 C :   -0.178672
  33 C :   -0.103626
  34 C :   -0.103624
  35 C :   -0.142007
  36 H :    0.163127
  37 C :   -0.142008
  38 H :    0.163128
  39 C :   -0.142831
  40 H :    0.156568
  41 H :    0.156564
  42 H :    0.155820
  43 H :    0.163086

  Mayer bond orders larger than 0.100000
B(  0-C ,  1-C ) :   1.3634 B(  0-C ,  5-C ) :   1.4546 B(  0-C , 30-H ) :   0.9798
B(  1-C ,  2-C ) :   1.4121 B(  1-C , 13-H ) :   0.9589 B(  2-C ,  3-C ) :   1.3420
B(  2-C , 18-N ) :   1.0800 B(  3-C ,  4-C ) :   1.4123 B(  3-C , 31-N ) :   1.0798
B(  4-C ,  5-C ) :   1.3639 B(  4-C , 14-H ) :   0.9590 B(  5-C , 15-H ) :   0.9798
B(  6-C ,  7-C ) :   1.3436 B(  6-C , 12-C ) :   1.4111 B(  6-C , 31-N ) :   1.0798
B(  7-C ,  8-C ) :   1.4110 B(  7-C , 18-N ) :   1.0799 B(  8-C ,  9-H ) :   0.9585
B(  8-C , 10-C ) :   1.3636 B( 10-C , 11-C ) :   1.4540 B( 10-C , 16-H ) :   0.9808
B( 11-C , 12-C ) :   1.3639 B( 11-C , 17-H ) :   0.9800 B( 12-C , 43-H ) :   0.9590
B( 18-N , 32-C ) :   0.7104 B( 19-C , 20-C ) :   1.4696 B( 19-C , 21-C ) :   1.4700
B( 19-C , 31-N ) :   0.7102 B( 20-C , 22-C ) :   1.4080 B( 20-C , 27-H ) :   0.9771
B( 21-C , 23-C ) :   1.4070 B( 21-C , 28-H ) :   0.9770 B( 22-C , 24-C ) :   1.3953
B( 22-C , 25-H ) :   0.9723 B( 23-C , 24-C ) :   1.3941 B( 23-C , 26-H ) :   0.9736
B( 24-C , 29-H ) :   0.9701 B( 32-C , 33-C ) :   1.4695 B( 32-C , 34-C ) :   1.4694
B( 33-C , 35-C ) :   1.4081 B( 33-C , 36-H ) :   0.9771 B( 34-C , 37-C ) :   1.4068
B( 34-C , 38-H ) :   0.9771 B( 35-C , 39-C ) :   1.3950 B( 35-C , 40-H ) :   0.9722
B( 37-C , 39-C ) :   1.3936 B( 37-C , 41-H ) :   0.9736 B( 39-C , 42-H ) :   0.9702

MP2 TOTAL ENERGY:    -1033.192636979 Eh

-----------------------------------------------------------------------------
         ABSORPTION SPECTRUM VIA TRANSITION ELECTRIC DIPOLE MOMENTS
-----------------------------------------------------------------------------
State   Energy    Wavelength  fosc         T2        TX        TY        TZ
        (cm-1)      (nm)                 (au**2)    (au)      (au)      (au)
-----------------------------------------------------------------------------
   1   28271.6    353.7   0.000000000   0.00000  -0.00002  -0.00000   0.00007
   2   31460.7    317.9   0.306450617   3.20677  -0.00002  -1.79075   0.00018
   3   34507.9    289.8   0.000000000   0.00000  -0.00000  -0.00006  -0.00003
   4   35712.6    280.0   0.000000051   0.00000  -0.00069   0.00005   0.00003
   5   36119.2    276.9   0.000000181   0.00000   0.00128  -0.00014   0.00003
   6   39707.5    251.8   0.000000130   0.00000  -0.00000  -0.00005   0.00104
   7   43484.1    230.0   0.008289722   0.06276   0.00031   0.00112   0.25052
   8   43326.4    230.8   0.000001669   0.00001  -0.00005   0.00317   0.00162
   9   43384.4    230.5   0.006065124   0.04602  -0.00014   0.00147  -0.21453
  10   40283.5    248.2   0.006637283   0.05424   0.00011  -0.23290  -0.00034
  11   46170.9    216.6   0.262590014   1.87234   1.36834  -0.00003  -0.00007
  12   44310.9    225.7   1.410478643  10.47927  -0.00002  -3.23717   0.00010
  13   50002.5    200.0   0.000000031   0.00000  -0.00045   0.00002   0.00005
  14   49975.2    200.1   0.014837522   0.09774  -0.31264  -0.00004   0.00003
  15   48487.2    206.2   0.000000019   0.00000   0.00016   0.00000  -0.00033
  16   50331.5    198.7   2.022380137  13.22812  -3.63705  -0.00000   0.00008
  17   50250.1    199.0   0.000000016   0.00000  -0.00031  -0.00006  -0.00009
  18   51527.2    194.1   0.007262578   0.04640   0.00009   0.00002   0.21541
  19   54527.4    183.4   0.000001719   0.00001   0.00039  -0.00085   0.00308
  20   54645.5    183.0   1.250105767   7.53127   0.00011  -0.00060  -2.74432
  21   54639.7    183.0   1.157372458   6.97333   2.64071   0.00001   0.00015
  22   55473.6    180.3   0.000000028   0.00000  -0.00040  -0.00000  -0.00009
  23   54481.9    183.5   0.000000002   0.00000   0.00001   0.00012  -0.00004
  24   55656.1    179.7   0.000000002   0.00000  -0.00012   0.00000  -0.00001
  25   54642.1    183.0   0.000000087   0.00000  -0.00072   0.00006  -0.00004
  26   57527.9    173.8   0.000000007   0.00000  -0.00004  -0.00000  -0.00020
  27   56871.5    175.8   0.000000018   0.00000  -0.00013   0.00029  -0.00000
  28   56182.9    178.0   0.086623769   0.50758   0.71245  -0.00001  -0.00002
  29   54336.1    184.0   0.000001617   0.00001  -0.00313  -0.00004   0.00002
  30   58879.1    169.8   0.000000013   0.00000  -0.00003   0.00026   0.00003

FINAL SINGLE POINT ENERGY     -1031.843354149639

DIPOLE MOMENT
-------------
                                X             Y             Z
Electronic contribution:     -0.00003      -0.00003       0.00043
Nuclear contribution   :     -0.00000      -0.00000      -0.00049
                        -----------------------------------------
Total Dipole Moment    :     -0.00004      -0.00003      -0.00006
                        -----------------------------------------
Magnitude (a.u.)       :      0.00008
Magnitude (Debye)      :      0.00019

Rotational constants in cm-1:     0.013190     0.005068     0.003964
Rotational constants in MHz :   395.437241   151.935170   118.847327

                             ****ORCA TERMINATED NORMALLY****
TOTAL RUN TIME: 0 days 0 hours 55 minutes 19 seconds 414 msec
