                         Program Version 5.0.2 -  RELEASE  -
|  1> %maxcore 32000
|  2> %pal
|  3>  nprocs= 4
|  4> end
|  5> !STEOM-DLPNO-CCSD DEF2-TZVP DEF2-TZVP/C def2/J TightSCF TightPNO CPCM
|  6> %MDCI
|  7>    Dorootwise true
|  8>    OTHRESH 0.005
|  9>    VTHRESH 0.005
| 10>    TCutPNOSingles 1e-11
| 11>    DTol 1e-5
| 12>    NROOTS  25
| 13>    DOSOLV  TRUE
| 14>    MAXITER 500
| 15> END
| 16> %CPCM
| 17>    SMD          TRUE
| 18>    SMDsolvent   "N,N-DIMETHYLFORMAMIDE"
| 19> END
| 20>
| 21>
| 22> * xyz 0 1
| 23> C                   0.68932400   -3.64378400    0.00004200
| 24> C                   1.38003700   -2.43359300    0.00004800
| 25> C                   0.70476900   -1.21932900    0.00003100
| 26> C                  -0.70477600   -1.21932500    0.00005900
| 27> C                  -1.38005700   -2.43358000    0.00003100
| 28> C                  -0.68935600   -3.64377700    0.00001900
| 29> C                  -0.70476900    1.21932900   -0.00000200
| 30> C                   0.70477700    1.21932400   -0.00009000
| 31> C                   1.38005600    2.43358200   -0.00030700
| 32> H                   2.46138000    2.43402900   -0.00042300
| 33> C                   0.68935500    3.64377800   -0.00036700
| 34> C                  -0.68932600    3.64378300   -0.00022100
| 35> C                  -1.38003800    2.43359200   -0.00005200
| 36> H                   2.46136100   -2.43405500    0.00007000
| 37> H                  -2.46138100   -2.43402700    0.00003600
| 38> H                  -1.24454000   -4.57263300   -0.00000100
| 39> H                   1.24453800    4.57263400   -0.00052600
| 40> H                  -1.24450200    4.57264300   -0.00024400
| 41> N                   1.38907800   -0.00000400    0.00003800
| 42> C                  -2.81718700    0.00000400    0.00008900
| 43> C                  -3.50829500   -0.00010200    1.20463900
| 44> C                  -3.50818700    0.00011100   -1.20452700
| 45> C                  -4.89502400   -0.00010300    1.20212500
| 46> C                  -4.89491500    0.00011400   -1.20213700
| 47> C                  -5.58872000    0.00000700   -0.00003600
| 48> H                  -5.43460900   -0.00018700    2.14065000
| 49> H                  -5.43441600    0.00019900   -2.14071000
| 50> H                  -2.95224600   -0.00018600    2.13431600
| 51> H                  -2.95205700    0.00019300   -2.13415600
| 52> H                  -6.67129700    0.00000800   -0.00008600
| 53> H                   1.24449900   -4.57264400    0.00005700
| 54> N                  -1.38907700    0.00000400    0.00016300
| 55> C                   2.81718700   -0.00000400    0.00005600
| 56> C                   3.50821800    0.00061200    1.20465200
| 57> C                   3.50826600   -0.00062100   -1.20451300
| 58> C                   4.89494600    0.00062000    1.20222900
| 59> H                   2.95210800    0.00109100    2.13429300
| 60> C                   4.89499500   -0.00063200   -1.20203300
| 61> H                   2.95219700   -0.00109900   -2.13417800
| 62> C                   5.58872100   -0.00000700    0.00011200
| 63> H                   5.43447100    0.00110500    2.14078800
| 64> H                   5.43455600   -0.00111800   -2.14057100
| 65> H                   6.67129800   -0.00000800    0.00013500
| 66> H                  -2.46136100    2.43405200    0.00004800
| 67> *
| 68>
| 69>
| 70>                          ****END OF INPUT****

CARTESIAN COORDINATES (ANGSTROEM)
---------------------------------
  C      0.689324   -3.643784    0.000042
  C      1.380037   -2.433593    0.000048
  C      0.704769   -1.219329    0.000031
  C     -0.704776   -1.219325    0.000059
  C     -1.380057   -2.433580    0.000031
  C     -0.689356   -3.643777    0.000019
  C     -0.704769    1.219329   -0.000002
  C      0.704777    1.219324   -0.000090
  C      1.380056    2.433582   -0.000307
  H      2.461380    2.434029   -0.000423
  C      0.689355    3.643778   -0.000367
  C     -0.689326    3.643783   -0.000221
  C     -1.380038    2.433592   -0.000052
  H      2.461361   -2.434055    0.000070
  H     -2.461381   -2.434027    0.000036
  H     -1.244540   -4.572633   -0.000001
  H      1.244538    4.572634   -0.000526
  H     -1.244502    4.572643   -0.000244
  N      1.389078   -0.000004    0.000038
  C     -2.817187    0.000004    0.000089
  C     -3.508295   -0.000102    1.204639
  C     -3.508187    0.000111   -1.204527
  C     -4.895024   -0.000103    1.202125
  C     -4.894915    0.000114   -1.202137
  C     -5.588720    0.000007   -0.000036
  H     -5.434609   -0.000187    2.140650
  H     -5.434416    0.000199   -2.140710
  H     -2.952246   -0.000186    2.134316
  H     -2.952057    0.000193   -2.134156
  H     -6.671297    0.000008   -0.000086
  H      1.244499   -4.572644    0.000057
  N     -1.389077    0.000004    0.000163
  C      2.817187   -0.000004    0.000056
  C      3.508218    0.000612    1.204652
  C      3.508266   -0.000621   -1.204513
  C      4.894946    0.000620    1.202229
  H      2.952108    0.001091    2.134293
  C      4.894995   -0.000632   -1.202033
  H      2.952197   -0.001099   -2.134178
  C      5.588721   -0.000007    0.000112
  H      5.434471    0.001105    2.140788
  H      5.434556   -0.001118   -2.140571
  H      6.671298   -0.000008    0.000135
  H     -2.461361    2.434052    0.000048

 Total Charge           Charge          ....    0
 Multiplicity           Mult            ....    1
 Number of Electrons    NEL             ....  176
 Basis Dimension        Dim             ....  914

ORBITAL ENERGIES
----------------

  NO   OCC          E(Eh)            E(eV)
   0   2.0000     -15.587144      -424.1478
   1   2.0000     -15.587142      -424.1477
   2   2.0000     -11.282813      -307.0209
   3   2.0000     -11.282786      -307.0202
   4   2.0000     -11.281678      -306.9901
   5   2.0000     -11.281668      -306.9898
   6   2.0000     -11.270183      -306.6773
   7   2.0000     -11.270183      -306.6773
   8   2.0000     -11.233343      -305.6748
   9   2.0000     -11.233343      -305.6748
  10   2.0000     -11.232947      -305.6640
  11   2.0000     -11.232947      -305.6640
  12   2.0000     -11.232072      -305.6402
  13   2.0000     -11.232072      -305.6402
  14   2.0000     -11.231618      -305.6279
  15   2.0000     -11.231618      -305.6279
  16   2.0000     -11.231133      -305.6147
  17   2.0000     -11.231133      -305.6147
  18   2.0000     -11.224767      -305.4414
  19   2.0000     -11.224767      -305.4414
  20   2.0000     -11.224729      -305.4404
  21   2.0000     -11.224729      -305.4404
  22   2.0000     -11.222447      -305.3783
  23   2.0000     -11.222447      -305.3783
  24   2.0000     -11.221182      -305.3439
  25   2.0000     -11.221182      -305.3439
  26   2.0000      -1.317592       -35.8535
  27   2.0000      -1.267650       -34.4945
  28   2.0000      -1.161729       -31.6123
  29   2.0000      -1.160947       -31.5910
  30   2.0000      -1.147907       -31.2361
  31   2.0000      -1.120610       -30.4934
  32   2.0000      -1.036925       -28.2162
  33   2.0000      -1.030737       -28.0478
  34   2.0000      -1.026271       -27.9263
  35   2.0000      -1.020624       -27.7726
  36   2.0000      -1.020600       -27.7719
  37   2.0000      -1.012720       -27.5575
  38   2.0000      -0.987468       -26.8704
  39   2.0000      -0.946045       -25.7432
  40   2.0000      -0.875073       -23.8119
  41   2.0000      -0.862533       -23.4707
  42   2.0000      -0.834983       -22.7211
  43   2.0000      -0.834470       -22.7071
  44   2.0000      -0.828973       -22.5575
  45   2.0000      -0.818700       -22.2780
  46   2.0000      -0.789327       -21.4787
  47   2.0000      -0.767492       -20.8845
  48   2.0000      -0.749618       -20.3981
  49   2.0000      -0.720873       -19.6160
  50   2.0000      -0.716928       -19.5086
  51   2.0000      -0.680266       -18.5110
  52   2.0000      -0.670019       -18.2322
  53   2.0000      -0.660235       -17.9659
  54   2.0000      -0.654991       -17.8232
  55   2.0000      -0.644045       -17.5253
  56   2.0000      -0.642187       -17.4748
  57   2.0000      -0.638067       -17.3627
  58   2.0000      -0.620977       -16.8976
  59   2.0000      -0.604246       -16.4424
  60   2.0000      -0.601727       -16.3738
  61   2.0000      -0.597585       -16.2611
  62   2.0000      -0.595626       -16.2078
  63   2.0000      -0.591788       -16.1034
  64   2.0000      -0.588690       -16.0191
  65   2.0000      -0.581636       -15.8271
  66   2.0000      -0.579685       -15.7740
  67   2.0000      -0.531258       -14.4563
  68   2.0000      -0.521060       -14.1787
  69   2.0000      -0.518151       -14.0996
  70   2.0000      -0.515780       -14.0351
  71   2.0000      -0.515087       -14.0162
  72   2.0000      -0.511929       -13.9303
  73   2.0000      -0.506993       -13.7960
  74   2.0000      -0.498954       -13.5772
  75   2.0000      -0.497714       -13.5435
  76   2.0000      -0.495666       -13.4878
  77   2.0000      -0.481296       -13.0967
  78   2.0000      -0.473865       -12.8945
  79   2.0000      -0.445412       -12.1203
  80   2.0000      -0.357626        -9.7315
  81   2.0000      -0.349039        -9.4978
  82   2.0000      -0.342013        -9.3066
  83   2.0000      -0.341368        -9.2891
  84   2.0000      -0.340251        -9.2587
  85   2.0000      -0.334976        -9.1152
  86   2.0000      -0.308807        -8.4031
  87   2.0000      -0.238569        -6.4918
  88   0.0000       0.104290         2.8379
  89   0.0000       0.106952         2.9103
  90   0.0000       0.117049         3.1851
  91   0.0000       0.119298         3.2463
  92   0.0000       0.132853         3.6151

E(0)                                       ...  -1028.587537484
E(0)                                       ...  -1028.587537484
E(CORR)(strong-pairs)                      ...     -4.152464864
E(CORR)(weak-pairs)                        ...     -0.008676883
E(CORR)(corrected)                         ...     -4.161141747
E(TOT)                                     ...  -1032.748679231

MULLIKEN ATOMIC CHARGES
-----------------------
   0 C :   -0.201006
   1 C :   -0.234171
   2 C :    0.077713
   3 C :    0.077720
   4 C :   -0.234170
   5 C :   -0.201005
   6 C :    0.077708
   7 C :    0.077718
   8 C :   -0.234165
   9 H :    0.173338
  10 C :   -0.201007
  11 C :   -0.201004
  12 C :   -0.234168
  13 H :    0.173342
  14 H :    0.173339
  15 H :    0.164659
  16 H :    0.164659
  17 H :    0.164659
  18 N :    0.011977
  19 C :    0.114138
  20 C :   -0.274966
  21 C :   -0.278294
  22 C :   -0.118170
  23 C :   -0.121244
  24 C :   -0.143679
  25 H :    0.171013
  26 H :    0.171755
  27 H :    0.167315
  28 H :    0.166211
  29 H :    0.172865
  30 H :    0.164659
  31 N :    0.011974
  32 C :    0.114138
  33 C :   -0.275000
  34 C :   -0.278254
  35 C :   -0.118166
  36 H :    0.167318
  37 C :   -0.121253
  38 H :    0.166208
  39 C :   -0.143678
  40 H :    0.171014
  41 H :    0.171754
  42 H :    0.172865
  43 H :    0.173340
Sum of atomic charges:   -0.0000000

LOEWDIN ATOMIC CHARGES
----------------------
   0 C :   -0.176307
   1 C :   -0.136339
   2 C :   -0.139450
   3 C :   -0.139450
   4 C :   -0.136339
   5 C :   -0.176307
   6 C :   -0.139450
   7 C :   -0.139450
   8 C :   -0.136340
   9 H :    0.163874
  10 C :   -0.176308
  11 C :   -0.176307
  12 C :   -0.136340
  13 H :    0.163874
  14 H :    0.163874
  15 H :    0.154064
  16 H :    0.154064
  17 H :    0.154064
  18 N :    0.284589
  19 C :   -0.176581
  20 C :   -0.105690
  21 C :   -0.105784
  22 C :   -0.142400
  23 C :   -0.142516
  24 C :   -0.143748
  25 H :    0.157753
  26 H :    0.157808
  27 H :    0.163967
  28 H :    0.163930
  29 H :    0.156990
  30 H :    0.154064
  31 N :    0.284588
  32 C :   -0.176582
  33 C :   -0.105689
  34 C :   -0.105785
  35 C :   -0.142400
  36 H :    0.163968
  37 C :   -0.142517
  38 H :    0.163930
  39 C :   -0.143748
  40 H :    0.157753
  41 H :    0.157808
  42 H :    0.156990
  43 H :    0.163873

  Mayer bond orders larger than 0.100000
B(  0-C ,  1-C ) :   1.2501 B(  0-C ,  5-C ) :   1.3226 B(  0-C , 30-H ) :   0.9377
B(  1-C ,  2-C ) :   1.3185 B(  1-C , 13-H ) :   0.9217 B(  2-C ,  3-C ) :   1.2548
B(  2-C , 18-N ) :   1.0556 B(  3-C ,  4-C ) :   1.3185 B(  3-C , 31-N ) :   1.0556
B(  4-C ,  5-C ) :   1.2501 B(  4-C , 14-H ) :   0.9217 B(  5-C , 15-H ) :   0.9377
B(  6-C ,  7-C ) :   1.2548 B(  6-C , 12-C ) :   1.3185 B(  6-C , 31-N ) :   1.0556
B(  7-C ,  8-C ) :   1.3185 B(  7-C , 18-N ) :   1.0556 B(  8-C ,  9-H ) :   0.9217
B(  8-C , 10-C ) :   1.2501 B( 10-C , 11-C ) :   1.3226 B( 10-C , 16-H ) :   0.9377
B( 11-C , 12-C ) :   1.2501 B( 11-C , 17-H ) :   0.9377 B( 12-C , 43-H ) :   0.9217
B( 18-N , 32-C ) :   0.6536 B( 19-C , 20-C ) :   1.3752 B( 19-C , 21-C ) :   1.3648
B( 19-C , 31-N ) :   0.6536 B( 20-C , 22-C ) :   1.3151 B( 20-C , 27-H ) :   0.9396
B( 21-C , 23-C ) :   1.3065 B( 21-C , 28-H ) :   0.9433 B( 22-C , 24-C ) :   1.2795
B( 22-C , 25-H ) :   0.9295 B( 23-C , 24-C ) :   1.2858 B( 23-C , 26-H ) :   0.9291
B( 24-C , 29-H ) :   0.9296 B( 32-C , 33-C ) :   1.3752 B( 32-C , 34-C ) :   1.3648
B( 33-C , 35-C ) :   1.3151 B( 33-C , 36-H ) :   0.9396 B( 34-C , 37-C ) :   1.3064
B( 34-C , 38-H ) :   0.9433 B( 35-C , 39-C ) :   1.2795 B( 35-C , 40-H ) :   0.9295
B( 37-C , 39-C ) :   1.2858 B( 37-C , 41-H ) :   0.9291 B( 39-C , 42-H ) :   0.9296

-----------------------------------------------------------------------------
         ABSORPTION SPECTRUM VIA TRANSITION ELECTRIC DIPOLE MOMENTS
-----------------------------------------------------------------------------
State   Energy  Wavelength   fosc         T2         TX        TY        TZ
        (cm-1)    (nm)                  (au**2)     (au)      (au)      (au)
-----------------------------------------------------------------------------
   1   24464.1    408.8   0.000000294   0.00000   0.00009   0.00154   0.00030
   2   27778.6    360.0   0.121783344   1.44329   0.00013   1.20137   0.00016
   3   31006.1    322.5   0.000000490   0.00001   0.00071   0.00006   0.00215
   4   29515.5    338.8   0.000000098   0.00000   0.00100   0.00019   0.00003
   5   29941.6    334.0   0.000003452   0.00004   0.00220   0.00380   0.00027
   6   33018.3    302.9   0.000000602   0.00001   0.00047   0.00088   0.00127
   7   34190.6    292.5   0.002660065   0.02561   0.00032   0.16001   0.00067
   8   39151.5    255.4   0.000020799   0.00017   0.01317   0.00004   0.00086
   9   39152.1    255.4   0.000467724   0.00393   0.00022   0.00006   0.06271
  10   40135.8    249.2   0.003272737   0.02684   0.00055   0.00046   0.16380
  11   42617.9    234.6   1.190163097   9.19369   0.00005   3.03211   0.00039
  12   43235.3    231.3   0.293790949   2.23705   1.49568   0.00006   0.00011
  13   46830.5    213.5   0.000007961   0.00006   0.00453   0.00009   0.00430
  14   47156.6    212.1   0.000081967   0.00057   0.00177   0.01163   0.00057
  15   46228.7    216.3   0.000836012   0.00595   0.00029   0.00112   0.07701
  16   49600.4    201.6   0.238186511   1.58091   1.25734   0.00016   0.00024
  17   47783.8    209.3   0.000000322   0.00000   0.00022   0.00012   0.00078
  18   48553.0    206.0   0.000004083   0.00003   0.00173   0.00272   0.00114
  19   51462.3    194.3   0.000036091   0.00023   0.00315   0.00010   0.01418
  20   51556.3    194.0   0.012098233   0.07725   0.27794   0.00009   0.00020
  21   49994.1    200.0   0.000000258   0.00000   0.00025   0.00089   0.00060
  22   53321.8    187.5   0.000004610   0.00003   0.00123   0.00086   0.00136
  23   55250.3    181.0   1.741110476  10.37451   3.22095   0.00015   0.00025
  24   56891.8    175.8   0.574616693   3.32509   0.00016   0.00152   1.82348
  25   57151.6    175.0   0.000008979   0.00005   0.00205   0.00562   0.00275

FINAL SINGLE POINT ENERGY     -1032.637212684215

DIPOLE MOMENT
-------------
                                X             Y             Z
Electronic contribution:      0.00000      -0.00001       0.00209
Nuclear contribution   :     -0.00000      -0.00000      -0.00049
                        -----------------------------------------
Total Dipole Moment    :     -0.00000      -0.00001       0.00160
                        -----------------------------------------
Magnitude (a.u.)       :      0.00160
Magnitude (Debye)      :      0.00406

Rotational constants in cm-1:     0.013190     0.005068     0.003964
Rotational constants in MHz :   395.437241   151.935170   118.847327

                             ****ORCA TERMINATED NORMALLY****
TOTAL RUN TIME: 0 days 8 hours 11 minutes 35 seconds 0 msec
