                         Program Version 5.0.2 -  RELEASE  -
|  1> %maxcore 3200
|  2> %pal
|  3>  nprocs= 8
|  4> end
|  5> ! RI-B2PLYP D3BJ def2-TZVP def2/J def2-TZVP/C RIJCOSX CPCM TightSCF
|  6> %TDDFT DCORR 4
|  7>    NROOTS   30
|  8>
|  9>    TDA      FALSE
| 10> END
| 11>
| 12> %CPCM
| 13>    SMD          TRUE
| 14>    SMDsolvent   "N,N-DIMETHYLFORMAMIDE"
| 15> END
| 16>
| 17>
| 18> * xyz 0 1
| 19> C                   0.68932400   -3.64378400    0.00004200
| 20> C                   1.38003700   -2.43359300    0.00004800
| 21> C                   0.70476900   -1.21932900    0.00003100
| 22> C                  -0.70477600   -1.21932500    0.00005900
| 23> C                  -1.38005700   -2.43358000    0.00003100
| 24> C                  -0.68935600   -3.64377700    0.00001900
| 25> C                  -0.70476900    1.21932900   -0.00000200
| 26> C                   0.70477700    1.21932400   -0.00009000
| 27> C                   1.38005600    2.43358200   -0.00030700
| 28> H                   2.46138000    2.43402900   -0.00042300
| 29> C                   0.68935500    3.64377800   -0.00036700
| 30> C                  -0.68932600    3.64378300   -0.00022100
| 31> C                  -1.38003800    2.43359200   -0.00005200
| 32> H                   2.46136100   -2.43405500    0.00007000
| 33> H                  -2.46138100   -2.43402700    0.00003600
| 34> H                  -1.24454000   -4.57263300   -0.00000100
| 35> H                   1.24453800    4.57263400   -0.00052600
| 36> H                  -1.24450200    4.57264300   -0.00024400
| 37> N                   1.38907800   -0.00000400    0.00003800
| 38> C                  -2.81718700    0.00000400    0.00008900
| 39> C                  -3.50829500   -0.00010200    1.20463900
| 40> C                  -3.50818700    0.00011100   -1.20452700
| 41> C                  -4.89502400   -0.00010300    1.20212500
| 42> C                  -4.89491500    0.00011400   -1.20213700
| 43> C                  -5.58872000    0.00000700   -0.00003600
| 44> H                  -5.43460900   -0.00018700    2.14065000
| 45> H                  -5.43441600    0.00019900   -2.14071000
| 46> H                  -2.95224600   -0.00018600    2.13431600
| 47> H                  -2.95205700    0.00019300   -2.13415600
| 48> H                  -6.67129700    0.00000800   -0.00008600
| 49> H                   1.24449900   -4.57264400    0.00005700
| 50> N                  -1.38907700    0.00000400    0.00016300
| 51> C                   2.81718700   -0.00000400    0.00005600
| 52> C                   3.50821800    0.00061200    1.20465200
| 53> C                   3.50826600   -0.00062100   -1.20451300
| 54> C                   4.89494600    0.00062000    1.20222900
| 55> H                   2.95210800    0.00109100    2.13429300
| 56> C                   4.89499500   -0.00063200   -1.20203300
| 57> H                   2.95219700   -0.00109900   -2.13417800
| 58> C                   5.58872100   -0.00000700    0.00011200
| 59> H                   5.43447100    0.00110500    2.14078800
| 60> H                   5.43455600   -0.00111800   -2.14057100
| 61> H                   6.67129800   -0.00000800    0.00013500
| 62> H                  -2.46136100    2.43405200    0.00004800
| 63> *
| 64>
| 65>
| 66>                          ****END OF INPUT****

CARTESIAN COORDINATES (ANGSTROEM)
---------------------------------
  C      0.689324   -3.643784    0.000042
  C      1.380037   -2.433593    0.000048
  C      0.704769   -1.219329    0.000031
  C     -0.704776   -1.219325    0.000059
  C     -1.380057   -2.433580    0.000031
  C     -0.689356   -3.643777    0.000019
  C     -0.704769    1.219329   -0.000002
  C      0.704777    1.219324   -0.000090
  C      1.380056    2.433582   -0.000307
  H      2.461380    2.434029   -0.000423
  C      0.689355    3.643778   -0.000367
  C     -0.689326    3.643783   -0.000221
  C     -1.380038    2.433592   -0.000052
  H      2.461361   -2.434055    0.000070
  H     -2.461381   -2.434027    0.000036
  H     -1.244540   -4.572633   -0.000001
  H      1.244538    4.572634   -0.000526
  H     -1.244502    4.572643   -0.000244
  N      1.389078   -0.000004    0.000038
  C     -2.817187    0.000004    0.000089
  C     -3.508295   -0.000102    1.204639
  C     -3.508187    0.000111   -1.204527
  C     -4.895024   -0.000103    1.202125
  C     -4.894915    0.000114   -1.202137
  C     -5.588720    0.000007   -0.000036
  H     -5.434609   -0.000187    2.140650
  H     -5.434416    0.000199   -2.140710
  H     -2.952246   -0.000186    2.134316
  H     -2.952057    0.000193   -2.134156
  H     -6.671297    0.000008   -0.000086
  H      1.244499   -4.572644    0.000057
  N     -1.389077    0.000004    0.000163
  C      2.817187   -0.000004    0.000056
  C      3.508218    0.000612    1.204652
  C      3.508266   -0.000621   -1.204513
  C      4.894946    0.000620    1.202229
  H      2.952108    0.001091    2.134293
  C      4.894995   -0.000632   -1.202033
  H      2.952197   -0.001099   -2.134178
  C      5.588721   -0.000007    0.000112
  H      5.434471    0.001105    2.140788
  H      5.434556   -0.001118   -2.140571
  H      6.671298   -0.000008    0.000135
  H     -2.461361    2.434052    0.000048

 Total Charge           Charge          ....    0
 Multiplicity           Mult            ....    1
 Number of Electrons    NEL             ....  176
 Basis Dimension        Dim             ....  914

ORBITAL ENERGIES
----------------

  NO   OCC          E(Eh)            E(eV)
   0   2.0000     -14.868453      -404.5912
   1   2.0000     -14.868445      -404.5910
   2   2.0000     -10.665360      -290.2192
   3   2.0000     -10.665335      -290.2185
   4   2.0000     -10.664586      -290.1981
   5   2.0000     -10.664579      -290.1980
   6   2.0000     -10.656010      -289.9648
   7   2.0000     -10.656007      -289.9647
   8   2.0000     -10.619086      -288.9600
   9   2.0000     -10.619084      -288.9600
  10   2.0000     -10.618949      -288.9563
  11   2.0000     -10.618949      -288.9563
  12   2.0000     -10.618343      -288.9398
  13   2.0000     -10.618342      -288.9398
  14   2.0000     -10.618039      -288.9315
  15   2.0000     -10.618039      -288.9315
  16   2.0000     -10.617425      -288.9148
  17   2.0000     -10.617424      -288.9148
  18   2.0000     -10.609395      -288.6963
  19   2.0000     -10.609394      -288.6963
  20   2.0000     -10.609392      -288.6962
  21   2.0000     -10.609391      -288.6962
  22   2.0000     -10.606859      -288.6273
  23   2.0000     -10.606859      -288.6273
  24   2.0000     -10.605949      -288.6026
  25   2.0000     -10.605949      -288.6026
  26   2.0000      -1.131715       -30.7955
  27   2.0000      -1.087446       -29.5909
  28   2.0000      -0.989707       -26.9313
  29   2.0000      -0.989378       -26.9223
  30   2.0000      -0.978220       -26.6187
  31   2.0000      -0.952948       -25.9310
  32   2.0000      -0.882236       -24.0069
  33   2.0000      -0.874788       -23.8042
  34   2.0000      -0.870317       -23.6825
  35   2.0000      -0.865365       -23.5478
  36   2.0000      -0.865343       -23.5472
  37   2.0000      -0.858475       -23.3603
  38   2.0000      -0.835316       -22.7301
  39   2.0000      -0.800817       -21.7913
  40   2.0000      -0.744725       -20.2650
  41   2.0000      -0.733710       -19.9653
  42   2.0000      -0.707153       -19.2426
  43   2.0000      -0.706679       -19.2297
  44   2.0000      -0.703753       -19.1501
  45   2.0000      -0.691254       -18.8100
  46   2.0000      -0.667850       -18.1731
  47   2.0000      -0.646874       -17.6023
  48   2.0000      -0.643676       -17.5153
  49   2.0000      -0.613997       -16.7077
  50   2.0000      -0.612312       -16.6619
  51   2.0000      -0.575492       -15.6599
  52   2.0000      -0.565003       -15.3745
  53   2.0000      -0.556899       -15.1540
  54   2.0000      -0.552385       -15.0312
  55   2.0000      -0.542873       -14.7723
  56   2.0000      -0.540530       -14.7086
  57   2.0000      -0.537948       -14.6383
  58   2.0000      -0.520719       -14.1695
  59   2.0000      -0.507686       -13.8148
  60   2.0000      -0.505551       -13.7568
  61   2.0000      -0.502112       -13.6632
  62   2.0000      -0.498357       -13.5610
  63   2.0000      -0.497631       -13.5412
  64   2.0000      -0.494079       -13.4446
  65   2.0000      -0.488833       -13.3018
  66   2.0000      -0.487163       -13.2564
  67   2.0000      -0.440317       -11.9816
  68   2.0000      -0.437818       -11.9136
  69   2.0000      -0.436146       -11.8681
  70   2.0000      -0.432689       -11.7741
  71   2.0000      -0.428433       -11.6583
  72   2.0000      -0.426910       -11.6168
  73   2.0000      -0.425216       -11.5707
  74   2.0000      -0.414687       -11.2842
  75   2.0000      -0.412686       -11.2298
  76   2.0000      -0.412382       -11.2215
  77   2.0000      -0.398063       -10.8319
  78   2.0000      -0.391101       -10.6424
  79   2.0000      -0.373118       -10.1531
  80   2.0000      -0.308685        -8.3997
  81   2.0000      -0.301927        -8.2159
  82   2.0000      -0.296592        -8.0707
  83   2.0000      -0.295864        -8.0509
  84   2.0000      -0.295014        -8.0277
  85   2.0000      -0.289858        -7.8874
  86   2.0000      -0.261165        -7.1067
  87   2.0000      -0.195094        -5.3088
  88   0.0000       0.025681         0.6988
  89   0.0000       0.028876         0.7858
  90   0.0000       0.035586         0.9683
  91   0.0000       0.037204         1.0124
  92   0.0000       0.049554         1.3484

MULLIKEN ATOMIC CHARGES
-----------------------
   0 C :   -0.202178
   1 C :   -0.227501
   2 C :    0.092608
   3 C :    0.092968
   4 C :   -0.227375
   5 C :   -0.202673
   6 C :    0.094065
   7 C :    0.093368
   8 C :   -0.227494
   9 H :    0.168016
  10 C :   -0.203555
  11 C :   -0.202392
  12 C :   -0.228198
  13 H :    0.167454
  14 H :    0.167476
  15 H :    0.151677
  16 H :    0.151596
  17 H :    0.151595
  18 N :   -0.009762
  19 C :    0.126349
  20 C :   -0.247147
  21 C :   -0.246676
  22 C :   -0.125257
  23 C :   -0.125807
  24 C :   -0.127027
  25 H :    0.159091
  26 H :    0.158589
  27 H :    0.156680
  28 H :    0.156696
  29 H :    0.159995
  30 H :    0.151703
  31 N :   -0.009747
  32 C :    0.126518
  33 C :   -0.247684
  34 C :   -0.247270
  35 C :   -0.124390
  36 H :    0.156684
  37 C :   -0.125031
  38 H :    0.156701
  39 C :   -0.127954
  40 H :    0.159052
  41 H :    0.158643
  42 H :    0.159979
  43 H :    0.167612
Sum of atomic charges:   -0.0000000

LOEWDIN ATOMIC CHARGES
----------------------
   0 C :   -0.173309
   1 C :   -0.132048
   2 C :   -0.132683
   3 C :   -0.132684
   4 C :   -0.132048
   5 C :   -0.173311
   6 C :   -0.132682
   7 C :   -0.132680
   8 C :   -0.132051
   9 H :    0.159194
  10 C :   -0.173313
  11 C :   -0.173311
  12 C :   -0.132050
  13 H :    0.159192
  14 H :    0.159193
  15 H :    0.148552
  16 H :    0.148553
  17 H :    0.148551
  18 N :    0.274960
  19 C :   -0.172573
  20 C :   -0.099950
  21 C :   -0.099947
  22 C :   -0.138508
  23 C :   -0.138508
  24 C :   -0.139552
  25 H :    0.152535
  26 H :    0.152533
  27 H :    0.158898
  28 H :    0.158899
  29 H :    0.151809
  30 H :    0.148552
  31 N :    0.274960
  32 C :   -0.172573
  33 C :   -0.099950
  34 C :   -0.099949
  35 C :   -0.138507
  36 H :    0.158899
  37 C :   -0.138507
  38 H :    0.158899
  39 C :   -0.139553
  40 H :    0.152535
  41 H :    0.152533
  42 H :    0.151809
  43 H :    0.159192

  Mayer bond orders larger than 0.100000
B(  0-C ,  1-C ) :   1.3514 B(  0-C ,  5-C ) :   1.4409 B(  0-C , 30-H ) :   0.9891
B(  1-C ,  2-C ) :   1.4142 B(  1-C , 13-H ) :   0.9673 B(  2-C ,  3-C ) :   1.3517
B(  2-C , 18-N ) :   1.0822 B(  3-C ,  4-C ) :   1.4145 B(  3-C , 31-N ) :   1.0820
B(  4-C ,  5-C ) :   1.3518 B(  4-C , 14-H ) :   0.9673 B(  5-C , 15-H ) :   0.9891
B(  6-C ,  7-C ) :   1.3529 B(  6-C , 12-C ) :   1.4135 B(  6-C , 31-N ) :   1.0820
B(  7-C ,  8-C ) :   1.4135 B(  7-C , 18-N ) :   1.0821 B(  8-C ,  9-H ) :   0.9671
B(  8-C , 10-C ) :   1.3515 B( 10-C , 11-C ) :   1.4404 B( 10-C , 16-H ) :   0.9897
B( 11-C , 12-C ) :   1.3517 B( 11-C , 17-H ) :   0.9893 B( 12-C , 43-H ) :   0.9675
B( 18-N , 32-C ) :   0.7050 B( 19-C , 20-C ) :   1.4670 B( 19-C , 21-C ) :   1.4674
B( 19-C , 31-N ) :   0.7050 B( 20-C , 22-C ) :   1.4068 B( 20-C , 27-H ) :   0.9875
B( 21-C , 23-C ) :   1.4061 B( 21-C , 28-H ) :   0.9875 B( 22-C , 24-C ) :   1.3897
B( 22-C , 25-H ) :   0.9790 B( 23-C , 24-C ) :   1.3888 B( 23-C , 26-H ) :   0.9800
B( 24-C , 29-H ) :   0.9760 B( 32-C , 33-C ) :   1.4670 B( 32-C , 34-C ) :   1.4669
B( 33-C , 35-C ) :   1.4068 B( 33-C , 36-H ) :   0.9875 B( 34-C , 37-C ) :   1.4061
B( 34-C , 38-H ) :   0.9875 B( 35-C , 39-C ) :   1.3894 B( 35-C , 40-H ) :   0.9791
B( 37-C , 39-C ) :   1.3884 B( 37-C , 41-H ) :   0.9799 B( 39-C , 42-H ) :   0.9761

MP2 TOTAL ENERGY:    -1034.382060555 Eh

-----------------------------------------------------------------------------
         ABSORPTION SPECTRUM VIA TRANSITION ELECTRIC DIPOLE MOMENTS
-----------------------------------------------------------------------------
State   Energy    Wavelength  fosc         T2        TX        TY        TZ
        (cm-1)      (nm)                 (au**2)    (au)      (au)      (au)
-----------------------------------------------------------------------------
   1   24782.1    403.5   0.000000000   0.00000   0.00001  -0.00001  -0.00008
   2   26819.8    372.9   0.207875033   2.55166  -0.00003  -1.59739   0.00018
   3   27963.3    357.6   0.000000024   0.00000  -0.00053   0.00004   0.00001
   4   28327.0    353.0   0.000000083   0.00000  -0.00096   0.00022  -0.00002
   5   31306.1    319.4   0.000000000   0.00000   0.00000  -0.00002  -0.00003
   6   30724.5    325.5   0.000000008   0.00000   0.00000   0.00002  -0.00029
   7   31985.8    312.6   0.102241314   1.05231  -0.00003   1.02582   0.00009
   8   40531.3    246.7   0.009207158   0.07478   0.00030  -0.00012   0.27347
   9   41975.7    238.2   0.330883547   2.59509  -1.61093   0.00030   0.00006
  10   40168.1    249.0   1.147323682   9.40331   0.00017   3.06648  -0.00024
  11   41994.4    238.1   0.000009989   0.00008   0.00005  -0.00509   0.00724
  12   41993.2    238.1   0.001669466   0.01309  -0.00005  -0.00338  -0.11435
  13   43113.9    231.9   0.000000026   0.00000  -0.00007   0.00000   0.00044
  14   49371.5    202.5   0.000007744   0.00005   0.00719  -0.00001  -0.00006
  15   49112.8    203.6   0.036738000   0.24626   0.49625   0.00001  -0.00003
  16   44272.7    225.9   0.001745861   0.01298  -0.00007  -0.00002   0.11394
  17   46503.3    215.0   0.673091792   4.76503   2.18289  -0.00001  -0.00005
  18   46210.7    216.4   0.000000001   0.00000  -0.00005   0.00003   0.00009
  19   42704.7    234.2   0.000004283   0.00003   0.00575   0.00002   0.00002
  20   43072.5    232.2   0.000000985   0.00001   0.00274   0.00005   0.00001
  21   46745.8    213.9   0.000000007   0.00000  -0.00019   0.00013   0.00000
  22   48003.9    208.3   0.000000009   0.00000  -0.00025   0.00003   0.00001
  23   45273.7    220.9   0.024461056   0.17787   0.00005   0.42175  -0.00084
  24   50660.1    197.4   2.041894067  13.26913  -3.64268   0.00001   0.00026
  25   47720.5    209.6   0.000000032   0.00000  -0.00041  -0.00001  -0.00024
  26   51940.6    192.5   0.000000708   0.00000  -0.00032   0.00093  -0.00188
  27   52180.8    191.6   0.988181099   6.23449   0.00036   0.00068   2.49690
  28   49532.5    201.9   0.000000670   0.00000  -0.00012   0.00049   0.00205
  29   50543.1    197.9   0.149070993   0.97097   0.98538  -0.00000   0.00007
  30   51758.9    193.2   0.000000010   0.00000  -0.00025  -0.00002   0.00003

Dispersion correction           -0.053853538
FINAL SINGLE POINT ENERGY     -1032.966647804638

DIPOLE MOMENT
-------------
                                X             Y             Z
Electronic contribution:     -0.00002      -0.00002       0.00044
Nuclear contribution   :     -0.00000      -0.00000      -0.00049
                        -----------------------------------------
Total Dipole Moment    :     -0.00002      -0.00002      -0.00005
                        -----------------------------------------
Magnitude (a.u.)       :      0.00006
Magnitude (Debye)      :      0.00015

Rotational constants in cm-1:     0.013190     0.005068     0.003964
Rotational constants in MHz :   395.437241   151.935170   118.847327

                             ****ORCA TERMINATED NORMALLY****
TOTAL RUN TIME: 0 days 0 hours 52 minutes 31 seconds 124 msec
