 Gaussian 09, Revision E.01,

 ----------------------------------------------------------------------
 #p m06/def2TZVP opt=tight freq=noraman nosymm int=ultrafine scrf=(SMD,
 solvent=n,n-DiMethylFormamide)
 ----------------------------------------------------------------------

 -----
 Title
 -----
 Symbolic Z-matrix:
 Charge =  0 Multiplicity = 1

 SCF Done:  E(RM06) =  -1034.48719286     A.U. after   13 cycles
 SCF Done:  E(RM06) =  -1034.48736713     A.U. after   10 cycles
 SCF Done:  E(RM06) =  -1034.48742085     A.U. after    9 cycles
 SCF Done:  E(RM06) =  -1034.48744752     A.U. after   10 cycles
 SCF Done:  E(RM06) =  -1034.48745302     A.U. after    8 cycles
 SCF Done:  E(RM06) =  -1034.48745364     A.U. after    7 cycles
 SCF Done:  E(RM06) =  -1034.48745370     A.U. after    6 cycles
 SCF Done:  E(RM06) =  -1034.48745374     A.U. after    6 cycles
 SCF Done:  E(RM06) =  -1034.48745375     A.U. after    6 cycles
 SCF Done:  E(RM06) =  -1034.48745376     A.U. after    5 cycles
 SCF Done:  E(RM06) =  -1034.48746661     A.U. after    5 cycles
 SCF Done:  E(RM06) =  -1034.48746662     A.U. after    5 cycles
 SCF Done:  E(RM06) =  -1034.48746662     A.U. after    5 cycles
 SCF Done:  E(RM06) =  -1034.48746662     A.U. after    3 cycles
 SCF Done:  E(RM06) =  -1034.48746662     A.U. after    4 cycles
 SCF Done:  E(RM06) =  -1034.48746662     A.U. after    3 cycles
 SCF Done:  E(RM06) =  -1034.48746662     A.U. after    3 cycles
 SCF Done:  E(RM06) =  -1034.48746662     A.U. after    2 cycles
 Optimization completed.
    -- Stationary point found.
 Normal termination of Gaussian 09 at Tue Nov 23 13:34:31 2021.

 ------------------------------------------------------------------
 #P Geom=AllCheck Guess=TCheck SCRF=Check GenChk RM06/def2TZVP Freq
 ------------------------------------------------------------------

 Structure from the checkpoint file:  "cp.chk"
 -----
 Title
 -----
 Charge =  0 Multiplicity = 1

 SCF Done:  E(RM06) =  -1034.48746662     A.U. after    2 cycles

  Exact polarizability: 528.418   0.000 497.410  -0.003   2.691 344.128
 Approx polarizability: 518.319   0.000 479.003  -0.003   2.042 361.711

                      1                      2                      3
                      A                      A                      A
 Frequencies --     15.7723                33.7137                34.2345
 Red. masses --      5.7871                 3.6301                 5.2878
 Frc consts  --      0.0008                 0.0024                 0.0037
 IR Inten    --      0.1785                 0.0012                 0.8643

                      4                      5                      6
                      A                      A                      A
 Frequencies --     40.2869                42.3194                52.9049
 Red. masses --      3.8622                 4.4273                 5.2272
 Frc consts  --      0.0037                 0.0047                 0.0086
 IR Inten    --      0.0185                 0.0162                 0.9842

                      7                      8                      9
                      A                      A                      A
 Frequencies --     68.4917               117.3918               169.9184
 Red. masses --      4.8975                 3.7821                 4.6528
 Frc consts  --      0.0135                 0.0307                 0.0791
 IR Inten    --      0.0000                 0.0000                 0.0059

                     10                     11                     12
                      A                      A                      A
 Frequencies --    205.4184               211.0948               251.0964
 Red. masses --      6.7688                 5.2496                 4.7550
 Frc consts  --      0.1683                 0.1378                 0.1766
 IR Inten    --      0.0010                 0.0246                 4.4777

                     13                     14                     15
                      A                      A                      A
 Frequencies --    258.3421               266.2652               270.4541
 Red. masses --      4.1265                 4.7483                 4.2997
 Frc consts  --      0.1623                 0.1983                 0.1853
 IR Inten    --      0.0002                 0.3060                 0.5084

                     16                     17                     18
                      A                      A                      A
 Frequencies --    407.8847               409.5959               412.2766
 Red. masses --      5.4374                 6.8502                 4.3528
 Frc consts  --      0.5330                 0.6771                 0.4359
 IR Inten    --      9.4681                 0.0375                 7.3407

                     19                     20                     21
                      A                      A                      A
 Frequencies --    417.5650               417.8488               433.5304
 Red. masses --      2.8350                 2.8330                 6.1152
 Frc consts  --      0.2912                 0.2914                 0.6772
 IR Inten    --      0.0085                 0.0006                 0.0176

                     22                     23                     24
                      A                      A                      A
 Frequencies --    446.8838               456.8997               489.6147
 Red. masses --      5.1295                 3.1904                 3.9879
 Frc consts  --      0.6036                 0.3924                 0.5633
 IR Inten    --      0.0002                 0.1192                 2.5102

                     25                     26                     27
                      A                      A                      A
 Frequencies --    503.0059               538.9200               562.9168
 Red. masses --      4.4093                 3.2526                 4.0884
 Frc consts  --      0.6573                 0.5566                 0.7633
 IR Inten    --      0.0000                48.0760                 0.0005

                     28                     29                     30
                      A                      A                      A
 Frequencies --    573.1376               618.7618               622.8853
 Red. masses --      4.4490                 7.3196                 6.4506
 Frc consts  --      0.8611                 1.6512                 1.4746
 IR Inten    --      0.0093                 0.0659                31.2831

                     31                     32                     33
                      A                      A                      A
 Frequencies --    625.1988               626.1737               633.3000
 Red. masses --      6.4337                 6.4200                 4.0076
 Frc consts  --      1.4817                 1.4831                 0.9470
 IR Inten    --      0.5111                 0.0553                 0.0002

                     34                     35                     36
                      A                      A                      A
 Frequencies --    651.6800               691.8734               712.3557
 Red. masses --      6.3300                 5.8795                 1.5664
 Frc consts  --      1.5839                 1.6582                 0.4683
 IR Inten    --     55.8534                 0.0006               165.8338

                     37                     38                     39
                      A                      A                      A
 Frequencies --    712.5717               725.8523               737.6609
 Red. masses --      1.5049                 4.4866                 4.2379
 Frc consts  --      0.4502                 1.3927                 1.3587
 IR Inten    --      0.0002                 0.0002                 0.1217

                     40                     41                     42
                      A                      A                      A
 Frequencies --    742.4967               745.8256               751.5652
 Red. masses --      1.2329                 1.2271                 5.8516
 Frc consts  --      0.4005                 0.4022                 1.9474
 IR Inten    --    284.3285                 0.0284                 2.3380

                     43                     44                     45
                      A                      A                      A
 Frequencies --    777.2985               796.1803               848.6665
 Red. masses --      2.2545                 2.4140                 1.4645
 Frc consts  --      0.8026                 0.9016                 0.6214
 IR Inten    --     58.4366                 0.0003                 0.0174

                     46                     47                     48
                      A                      A                      A
 Frequencies --    849.7953               854.8572               854.9415
 Red. masses --      1.4320                 1.2521                 1.2521
 Frc consts  --      0.6093                 0.5391                 0.5392
 IR Inten    --      0.0000                 0.0037                 0.0001

                     49                     50                     51
                      A                      A                      A
 Frequencies --    913.1462               914.6446               915.9086
 Red. masses --      1.9679                 2.3367                 5.2143
 Frc consts  --      0.9668                 1.1518                 2.5772
 IR Inten    --      1.2385                 0.0001                 1.2593

                     52                     53                     54
                      A                      A                      A
 Frequencies --    918.1909               918.4415               948.7463
 Red. masses --      1.3778                 1.4414                 6.1406
 Frc consts  --      0.6844                 0.7164                 3.2566
 IR Inten    --      2.0145                19.8734                 0.1427

                     55                     56                     57
                      A                      A                      A
 Frequencies --    959.5504               960.0826               961.3355
 Red. masses --      2.3812                 1.2471                 1.2425
 Frc consts  --      1.2918                 0.6773                 0.6766
 IR Inten    --      0.0000                 0.0000                 0.0010

                     58                     59                     60
                      A                      A                      A
 Frequencies --    966.2603               993.8138               993.8195
 Red. masses --      2.7244                 1.3831                 1.3834
 Frc consts  --      1.4987                 0.8048                 0.8050
 IR Inten    --      0.3968                 0.0028                 0.0095

                     61                     62                     63
                      A                      A                      A
 Frequencies --   1016.3290              1016.5690              1017.4939
 Red. masses --      6.0127                 6.0027                 1.3307
 Frc consts  --      3.6592                 3.6549                 0.8117
 IR Inten    --      8.6103                 0.0008                 0.1096

                     64                     65                     66
                      A                      A                      A
 Frequencies --   1017.5630              1045.9766              1046.2772
 Red. masses --      1.3293                 1.9822                 1.9407
 Frc consts  --      0.8109                 1.2777                 1.2517
 IR Inten    --      0.0006                24.5593                 0.0002

                     67                     68                     69
                      A                      A                      A
 Frequencies --   1075.0001              1083.5463              1087.1946
 Red. masses --      2.1530                 1.7380                 1.4017
 Frc consts  --      1.4659                 1.2022                 0.9762
 IR Inten    --      0.2991                65.1014                 0.0278

                     70                     71                     72
                      A                      A                      A
 Frequencies --   1087.1999              1112.6094              1133.2146
 Red. masses --      1.4019                 1.8196                 1.5523
 Frc consts  --      0.9763                 1.3271                 1.1745
 IR Inten    --     36.3315                 0.0015                 5.6670

                     73                     74                     75
                      A                      A                      A
 Frequencies --   1148.8109              1148.8120              1150.8400
 Red. masses --      1.0875                 1.0875                 1.0721
 Frc consts  --      0.8456                 0.8457                 0.8366
 IR Inten    --      0.7799                 0.0944                 6.2765

                     76                     77                     78
                      A                      A                      A
 Frequencies --   1153.3463              1162.3269              1162.6261
 Red. masses --      1.0638                 1.1160                 1.1064
 Frc consts  --      0.8337                 0.8883                 0.8812
 IR Inten    --      0.1226                 0.2503                 0.0179

                     79                     80                     81
                      A                      A                      A
 Frequencies --   1192.1395              1215.8326              1240.5217
 Red. masses --      3.0652                 3.0340                 1.8741
 Frc consts  --      2.5666                 2.6425                 1.6992
 IR Inten    --      1.5452                 0.0185                 0.0044

                     82                     83                     84
                      A                      A                      A
 Frequencies --   1282.5776              1309.4678              1309.5038
 Red. masses --      1.8354                 1.6784                 1.6822
 Frc consts  --      1.7789                 1.6957                 1.6996
 IR Inten    --    121.6398                 0.0365                 5.0150

                     85                     86                     87
                      A                      A                      A
 Frequencies --   1312.9776              1316.2306              1324.5528
 Red. masses --      3.5380                 8.0997                 2.2166
 Frc consts  --      3.5935                 8.2677                 2.2913
 IR Inten    --      3.8767              1065.1944                 0.0510

                     88                     89                     90
                      A                      A                      A
 Frequencies --   1341.0822              1341.1159              1363.7192
 Red. masses --      3.7182                 3.7143                 3.1425
 Frc consts  --      3.9399                 3.9360                 3.4433
 IR Inten    --      0.0419                 6.2547               280.5255

                     91                     92                     93
                      A                      A                      A
 Frequencies --   1378.6198              1381.2759              1466.4409
 Red. masses --      7.9760                 4.5343                 2.7991
 Frc consts  --      8.9315                 5.0971                 3.5465
 IR Inten    --      0.1536               702.1523                 0.0004

                     94                     95                     96
                      A                      A                      A
 Frequencies --   1472.4924              1472.5037              1479.3486
 Red. masses --      2.4218                 2.4214                 2.7251
 Frc consts  --      3.0938                 3.0934                 3.5138
 IR Inten    --      0.2448                 7.7636                28.9550

                     97                     98                     99
                      A                      A                      A
 Frequencies --   1511.0925              1519.0633              1522.4068
 Red. masses --      3.4351                 2.6018                 2.7588
 Frc consts  --      4.6213                 3.5373                 3.7673
 IR Inten    --   1583.4913                 0.4427               219.0728

                    100                    101                    102
                      A                      A                      A
 Frequencies --   1548.7220              1609.4887              1628.9496
 Red. masses --      3.4903                 6.1967                 6.7785
 Frc consts  --      4.9325                 9.4577                10.5974
 IR Inten    --      0.1623                 0.0021                 4.3393

                    103                    104                    105
                      A                      A                      A
 Frequencies --   1640.6687              1640.7055              1643.3044
 Red. masses --      6.6882                 6.6880                 6.6484
 Frc consts  --     10.6072                10.6074                10.5780
 IR Inten    --      3.7598                12.1707               201.4053

                    106                    107                    108
                      A                      A                      A
 Frequencies --   1651.1889              1662.3717              1662.9264
 Red. masses --      6.6692                 8.1161                 7.0825
 Frc consts  --     10.7131                13.2147                11.5395
 IR Inten    --      0.1483                 0.0022                15.0215

                    109                    110                    111
                      A                      A                      A
 Frequencies --   3167.5976              3167.5999              3170.5472
 Red. masses --      1.0866                 1.0866                 1.0890
 Frc consts  --      6.4235                 6.4235                 6.4498
 IR Inten    --      4.9223                 0.1671                 0.0034

                    112                    113                    114
                      A                      A                      A
 Frequencies --   3170.5558              3173.8591              3174.1914
 Red. masses --      1.0890                 1.0852                 1.0854
 Frc consts  --      6.4498                 6.4406                 6.4434
 IR Inten    --      0.7122                 0.0016                 0.1483

                    115                    116                    117
                      A                      A                      A
 Frequencies --   3176.6505              3176.6519              3183.7960
 Red. masses --      1.0914                 1.0914                 1.0894
 Frc consts  --      6.4888                 6.4889                 6.5065
 IR Inten    --     20.3917                 0.0780                28.5864

                    118                    119                    120
                      A                      A                      A
 Frequencies --   3184.1646              3185.1702              3185.1781
 Red. masses --      1.0896                 1.0954                 1.0954
 Frc consts  --      6.5090                 6.5474                 6.5475
 IR Inten    --      0.5805                 0.0304                43.2943

                    121                    122                    123
                      A                      A                      A
 Frequencies --   3190.4166              3190.9906              3192.7539
 Red. masses --      1.0922                 1.0923                 1.0992
 Frc consts  --      6.5502                 6.5529                 6.6015
 IR Inten    --      0.9771                31.1898                25.6364

                    124                    125                    126
                      A                      A                      A
 Frequencies --   3192.7730              3196.6792              3197.0254
 Red. masses --      1.0992                 1.0980                 1.0978
 Frc consts  --      6.6016                 6.6107                 6.6110
 IR Inten    --      0.0052                22.8343                 0.0829

 - Thermochemistry -
 -------------------
 Temperature   298.150 Kelvin.  Pressure   1.00000 Atm.
 Atom     1 has atomic number  6 and mass  12.00000

 Molecular mass:   334.14700 amu.
 Principal axes and moments of inertia in atomic units:
                           1         2         3
     Eigenvalues --  4554.76368********************
           X            1.00000  -0.00000   0.00001
           Y            0.00000   0.99985  -0.01730
           Z           -0.00001   0.01730   0.99985
 This molecule is an asymmetric top.
 Rotational symmetry number  1.
 Warning -- assumption of classical behavior for rotation
           may cause significant error
 Rotational temperatures (Kelvin)      0.01902     0.00732     0.00573
 Rotational constants (GHZ):           0.39623     0.15260     0.11936
 Zero-point vibrational energy     923728.2 (Joules/Mol)
                                  220.77633 (Kcal/Mol)
 Warning -- explicit consideration of  29 degrees of freedom as
           vibrations may cause significant error
 Vibrational temperatures:     22.69    48.51    49.26    57.96    60.89
          (Kelvin)             76.12    98.54   168.90   244.47   295.55
                              303.72   361.27   371.70   383.10   389.12
                              586.85   589.32   593.17   600.78   601.19
                              623.75   642.97   657.38   704.45   723.71
                              775.38   809.91   824.62   890.26   896.19
                              899.52   900.92   911.18   937.62   995.45
                             1024.92  1025.23  1044.34  1061.33  1068.29
                             1073.08  1081.33  1118.36  1145.52  1221.04
                             1222.66  1229.95  1230.07  1313.81  1315.97
                             1317.79  1321.07  1321.43  1365.03  1380.58
                             1381.34  1383.15  1390.23  1429.87  1429.88
                             1462.27  1462.61  1463.94  1464.04  1504.93
                             1505.36  1546.68  1558.98  1564.23  1564.24
                             1600.79  1630.44  1652.88  1652.88  1655.80
                             1659.41  1672.33  1672.76  1715.22  1749.31
                             1784.83  1845.34  1884.03  1884.08  1889.08
                             1893.76  1905.73  1929.52  1929.56  1962.09
                             1983.52  1987.35  2109.88  2118.59  2118.60
                             2128.45  2174.12  2185.59  2190.40  2228.26
                             2315.69  2343.69  2360.55  2360.61  2364.35
                             2375.69  2391.78  2392.58  4557.46  4557.46
                             4561.70  4561.72  4566.47  4566.95  4570.49
                             4570.49  4580.77  4581.30  4582.74  4582.76
                             4590.29  4591.12  4593.66  4593.68  4599.30
                             4599.80

 Zero-point correction=                           0.351829 (Hartree/Particle)
 Thermal correction to Energy=                    0.371568
 Thermal correction to Enthalpy=                  0.372512
 Thermal correction to Gibbs Free Energy=         0.300764
 Sum of electronic and zero-point Energies=          -1034.135637
 Sum of electronic and thermal Energies=             -1034.115899
 Sum of electronic and thermal Enthalpies=           -1034.114955
 Sum of electronic and thermal Free Energies=        -1034.186703

                     E (Thermal)             CV                S
                      KCal/Mol        Cal/Mol-Kelvin    Cal/Mol-Kelvin
 Total                  233.162             80.642            151.007
 Electronic               0.000              0.000              0.000
 Translational            0.889              2.981             43.314
 Rotational               0.889              2.981             35.053
 Vibrational            231.385             74.681             72.639
 Vibration     1          0.593              1.986              7.106
 Vibration     2          0.594              1.983              5.598
 Vibration     3          0.594              1.983              5.568
 Vibration     4          0.594              1.981              5.245
 Vibration     5          0.595              1.980              5.147
 Vibration     6          0.596              1.976              4.706
 Vibration     7          0.598              1.969              4.196
 Vibration     8          0.608              1.935              3.143
 Vibration     9          0.625              1.880              2.436
 Vibration    10          0.640              1.832              2.084
 Vibration    11          0.643              1.824              2.034
 Vibration    12          0.663              1.761              1.723
 Vibration    13          0.667              1.749              1.673
 Vibration    14          0.672              1.735              1.620
 Vibration    15          0.674              1.728              1.593
 Vibration    16          0.772              1.453              0.934
 Vibration    17          0.774              1.449              0.928
 Vibration    18          0.776              1.444              0.919
 Vibration    19          0.781              1.432              0.900
 Vibration    20          0.781              1.431              0.899
 Vibration    21          0.794              1.397              0.847
 Vibration    22          0.806              1.368              0.805
 Vibration    23          0.815              1.346              0.775
 Vibration    24          0.845              1.273              0.685
 Vibration    25          0.858              1.243              0.651
 Vibration    26          0.894              1.164              0.568
 Vibration    27          0.919              1.112              0.518
 Vibration    28          0.929              1.089              0.498
 Vibration    29          0.979              0.992              0.418

 Optimization completed on the basis of negligible forces.
    -- Stationary point found.
 Normal termination of Gaussian 09 at Tue Nov 23 21:07:42 2021.
 Gaussian 09:  ES64L-G09RevE.01 30-Nov-2015

 ----------------------------------------------------------------------
 #p m06 chkbasis geom=allcheck Guess=Read int=ultrafine scrf=(SMD,solve
 nt=n,n-DiMethylFormamide) td=(NStates=30)
 ----------------------------------------------------------------------

 Structure from the checkpoint file:  "cp.chk"
 -----
 Title
 -----
 Charge =  0 Multiplicity = 1

                         Standard orientation:
 ---------------------------------------------------------------------
 Center     Atomic      Atomic             Coordinates (Angstroms)
 Number     Number       Type             X           Y           Z
 ---------------------------------------------------------------------
      1          6           0       -0.687904   -3.639068   -0.063396
      2          6           0       -1.376922   -2.429902   -0.058243
      3          6           0       -0.703763   -1.218594   -0.052953
      4          6           0        0.703762   -1.218594   -0.052942
      5          6           0        1.376921   -2.429903   -0.058217
      6          6           0        0.687902   -3.639069   -0.063382
      7          6           0        0.703777    1.219729   -0.053719
      8          6           0       -0.703776    1.219729   -0.053730
      9          6           0       -1.376932    2.431023   -0.058304
     10          1           0       -2.460058    2.435158   -0.057040
     11          6           0       -0.687901    3.640196   -0.062257
     12          6           0        0.687903    3.640196   -0.062245
     13          6           0        1.376933    2.431023   -0.058281
     14          1           0       -2.460040   -2.434031   -0.057482
     15          1           0        2.460039   -2.434032   -0.057434
     16          1           0        1.244308   -4.568945   -0.067078
     17          1           0       -1.244295    4.570085   -0.064775
     18          1           0        1.244297    4.570084   -0.064752
     19          7           0       -1.388162    0.000577   -0.046667
     20          6           0        2.812899    0.000359    0.006598
     21          6           0        3.549330    0.000425   -1.167211
     22          6           0        3.452502   -0.000605    1.236023
     23          6           0        4.933405   -0.000478   -1.109240
     24          6           0        4.836312   -0.001670    1.290855
     25          6           0        5.576467   -0.001627    0.118692
     26          1           0        5.511710   -0.000272   -2.026062
     27          1           0        5.338525   -0.002516    2.251471
     28          1           0        3.028155    0.001144   -2.119003
     29          1           0        2.856075   -0.000937    2.142623
     30          1           0        6.659625   -0.002459    0.162467
     31          1           0       -1.244310   -4.568945   -0.067104
     32          7           0        1.388161    0.000577   -0.046647
     33          6           0       -2.812899    0.000360    0.006590
     34          6           0       -3.549342    0.000433   -1.167212
     35          6           0       -3.452490   -0.000611    1.236021
     36          6           0       -4.933417   -0.000471   -1.109226
     37          1           0       -3.028177    0.001157   -2.119009
     38          6           0       -4.836299   -0.001676    1.290867
     39          1           0       -2.856054   -0.000948    2.142615
     40          6           0       -5.576466   -0.001627    0.118713
     41          1           0       -5.511731   -0.000258   -2.026042
     42          1           0       -5.338502   -0.002528    2.251489
     43          1           0       -6.659624   -0.002459    0.162499
     44          1           0        2.460059    2.435157   -0.056998
 ---------------------------------------------------------------------

 SCF Done:  E(RM06) =  -1034.48746484     A.U. after    6 cycles

 Excitation energies and oscillator strengths:

 Excited State   1:      Singlet-A      3.0431 eV  407.43 nm  f=0.0000  <S**2>=0.000
      88 -> 89         0.67747
      88 -> 93        -0.19114
 This state for optimization and/or second-order correction.
 Total Energy, E(TD-HF/TD-KS) =  -1034.37563249
 Copying the excited state density for this state as the 1-particle RhoCI density.

 Excited State   2:      Singlet-A      3.3231 eV  373.10 nm  f=0.1016  <S**2>=0.000
      88 -> 90         0.69646

 Excited State   3:      Singlet-A      3.4177 eV  362.77 nm  f=0.0000  <S**2>=0.000
      88 -> 91         0.70084

 Excited State   4:      Singlet-A      3.4444 eV  359.96 nm  f=0.0000  <S**2>=0.000
      88 -> 92         0.70066

 Excited State   5:      Singlet-A      3.7254 eV  332.81 nm  f=0.0000  <S**2>=0.000
      88 -> 89         0.19284
      88 -> 93         0.67394

 Excited State   6:      Singlet-A      3.9713 eV  312.20 nm  f=0.0001  <S**2>=0.000
      88 -> 95         0.68917

 Excited State   7:      Singlet-A      3.9873 eV  310.95 nm  f=0.1796  <S**2>=0.000
      87 -> 89         0.12066
      87 -> 93        -0.10484
      88 -> 94         0.68167

 Excited State   8:      Singlet-A      4.9926 eV  248.34 nm  f=0.8890  <S**2>=0.000
      87 -> 89         0.67224
      88 -> 94        -0.14742

 Excited State   9:      Singlet-A      5.0099 eV  247.48 nm  f=0.2637  <S**2>=0.000
      88 -> 96         0.68482

 Excited State  10:      Singlet-A      5.0588 eV  245.08 nm  f=0.0046  <S**2>=0.000
      88 -> 97         0.65794
      88 -> 99         0.10898
      88 ->101         0.21808

 Excited State  11:      Singlet-A      5.0627 eV  244.90 nm  f=0.0000  <S**2>=0.000
      87 -> 90         0.69916

 Excited State  12:      Singlet-A      5.1726 eV  239.70 nm  f=0.0014  <S**2>=0.000
      87 -> 91         0.69961

 Excited State  13:      Singlet-A      5.1996 eV  238.45 nm  f=0.0000  <S**2>=0.000
      87 -> 92         0.70004

 Excited State  14:      Singlet-A      5.2792 eV  234.86 nm  f=0.0004  <S**2>=0.000
      81 -> 91         0.18236
      82 -> 92        -0.23473
      83 -> 90         0.32432
      83 -> 94         0.11799
      84 -> 89        -0.29857
      84 -> 93        -0.19310
      85 -> 92        -0.21767
      86 -> 91         0.29618

 Excited State  15:      Singlet-A      5.2798 eV  234.83 nm  f=0.0004  <S**2>=0.000
      81 -> 92        -0.18287
      82 -> 91         0.23710
      83 -> 89        -0.28140
      83 -> 93        -0.18602
      84 -> 90         0.34417
      84 -> 94         0.12142
      85 -> 91         0.21815
      86 -> 92        -0.29276

 Excited State  16:      Singlet-A      5.3715 eV  230.82 nm  f=0.0005  <S**2>=0.000
      88 -> 97        -0.11901
      88 -> 99         0.68975

 Excited State  17:      Singlet-A      5.4497 eV  227.51 nm  f=0.2119  <S**2>=0.000
      87 -> 89         0.11767
      87 -> 93         0.68364

 Excited State  18:      Singlet-A      5.5303 eV  224.19 nm  f=0.0001  <S**2>=0.000
      88 -> 98         0.68970
      88 ->106         0.12601

 Excited State  19:      Singlet-A      5.6190 eV  220.65 nm  f=0.0423  <S**2>=0.000
      82 -> 89        -0.18098
      85 -> 89         0.18504
      85 -> 93        -0.10669
      86 -> 90         0.18812
      87 -> 95         0.59525

 Excited State  20:      Singlet-A      5.6340 eV  220.06 nm  f=0.0000  <S**2>=0.000
      82 -> 94        -0.12456
      85 -> 90        -0.34620
      85 -> 94         0.11549
      86 -> 89         0.51693
      87 -> 96         0.10938
      88 -> 95         0.10642

 Excited State  21:      Singlet-A      5.7102 eV  217.13 nm  f=0.0000  <S**2>=0.000
      88 ->100         0.70048

 Excited State  22:      Singlet-A      5.7295 eV  216.40 nm  f=0.0262  <S**2>=0.000
      81 -> 90         0.12035
      82 -> 89        -0.18304
      83 -> 91        -0.26266
      84 -> 92         0.27606
      85 -> 89        -0.22925
      86 -> 90         0.39678
      87 -> 95        -0.20983

 Excited State  23:      Singlet-A      5.7601 eV  215.25 nm  f=0.0000  <S**2>=0.000
      87 -> 94         0.69782

 Excited State  24:      Singlet-A      5.7776 eV  214.59 nm  f=0.0000  <S**2>=0.000
      81 -> 89         0.26783
      82 -> 90        -0.32035
      83 -> 92        -0.30949
      84 -> 91         0.33820
      85 -> 94        -0.13222
      86 -> 93         0.23261
      87 -> 96        -0.11360

 Excited State  25:      Singlet-A      5.8891 eV  210.53 nm  f=0.0000  <S**2>=0.000
      88 ->102         0.69942

 Excited State  26:      Singlet-A      5.9084 eV  209.84 nm  f=0.0000  <S**2>=0.000
      88 -> 97        -0.22122
      88 ->101         0.65198
      88 ->108         0.10310

 Excited State  27:      Singlet-A      5.9214 eV  209.38 nm  f=0.0153  <S**2>=0.000
      81 -> 90        -0.17692
      85 -> 89         0.49957
      86 -> 90         0.33333
      86 -> 94        -0.13335
      87 -> 95        -0.25890

 Excited State  28:      Singlet-A      5.9978 eV  206.71 nm  f=0.0171  <S**2>=0.000
      83 -> 90         0.17985
      84 -> 89         0.55303
      84 -> 93        -0.22614
      85 -> 90         0.17461
      86 -> 89         0.16352
      86 -> 91         0.15087
      88 ->103        -0.11471

 Excited State  29:      Singlet-A      6.0135 eV  206.18 nm  f=0.0017  <S**2>=0.000
      84 -> 89         0.14279
      88 ->103         0.65230
      88 ->109        -0.14614

 Excited State  30:      Singlet-A      6.0226 eV  205.86 nm  f=0.0155  <S**2>=0.000
      83 -> 89         0.58353
      83 -> 93        -0.21981
      84 -> 90         0.25565
      85 -> 89         0.11368
      86 -> 92        -0.11860

 The electronic state is 1-A.
 Alpha  occ. eigenvalues --  -14.42352 -14.42350 -10.28652 -10.28648 -10.28597
 Alpha  occ. eigenvalues --  -10.28596 -10.27915 -10.27915 -10.24274 -10.24273
 Alpha  occ. eigenvalues --  -10.24268 -10.24268 -10.24214 -10.24214 -10.24201
 Alpha  occ. eigenvalues --  -10.24201 -10.24118 -10.24118 -10.23185 -10.23185
 Alpha  occ. eigenvalues --  -10.23182 -10.23182 -10.22931 -10.22931 -10.22864
 Alpha  occ. eigenvalues --  -10.22864  -1.01239  -0.97266  -0.87962  -0.87844
 Alpha  occ. eigenvalues --   -0.86938  -0.84601  -0.78240  -0.77406  -0.76922
 Alpha  occ. eigenvalues --   -0.76518  -0.76515  -0.75887  -0.73764  -0.70886
 Alpha  occ. eigenvalues --   -0.66156  -0.65026  -0.62577  -0.62527  -0.62304
 Alpha  occ. eigenvalues --   -0.60961  -0.59112  -0.57750  -0.57052  -0.54697
 Alpha  occ. eigenvalues --   -0.54639  -0.50956  -0.49690  -0.49263  -0.49051
 Alpha  occ. eigenvalues --   -0.48345  -0.47806  -0.47707  -0.45690  -0.44712
 Alpha  occ. eigenvalues --   -0.44593  -0.44376  -0.44238  -0.43720  -0.43544
 Alpha  occ. eigenvalues --   -0.43306  -0.43024  -0.39269  -0.39136  -0.38424
 Alpha  occ. eigenvalues --   -0.38388  -0.37834  -0.37692  -0.37211  -0.36169
 Alpha  occ. eigenvalues --   -0.36121  -0.36069  -0.34703  -0.34512  -0.33366
 Alpha  occ. eigenvalues --   -0.28273  -0.27710  -0.27272  -0.27169  -0.27099
 Alpha  occ. eigenvalues --   -0.26670  -0.23816  -0.17772
 Alpha virt. eigenvalues --   -0.02378  -0.02083  -0.01531  -0.01437  -0.00381
 Alpha virt. eigenvalues --    0.00407   0.00447   0.03672   0.04552   0.05264
 Alpha virt. eigenvalues --    0.05476   0.06504   0.06825   0.07223   0.07446

 Mulliken charges:
               1
     1  C   -0.176050
     2  C   -0.155157
     3  C    0.089970
     4  C    0.089974
     5  C   -0.155157
     6  C   -0.176050
     7  C    0.089889
     8  C    0.089886
     9  C   -0.155075
    10  H    0.156732
    11  C   -0.175982
    12  C   -0.175982
    13  C   -0.155075
    14  H    0.156715
    15  H    0.156715
    16  H    0.119495
    17  H    0.119502
    18  H    0.119502
    19  N   -0.022038
    20  C   -0.044268
    21  C   -0.242328
    22  C   -0.253050
    23  C   -0.041327
    24  C   -0.041241
    25  C   -0.111892
    26  H    0.132601
    27  H    0.132530
    28  H    0.143599
    29  H    0.143114
    30  H    0.134261
    31  H    0.119495
    32  N   -0.022037
    33  C   -0.044269
    34  C   -0.242323
    35  C   -0.253055
    36  C   -0.041328
    37  H    0.143599
    38  C   -0.041241
    39  H    0.143114
    40  C   -0.111893
    41  H    0.132602
    42  H    0.132530
    43  H    0.134261
    44  H    0.156732
 Sum of Mulliken charges =  -0.00000

 Dipole moment (field-independent basis, Debye):
    X=              0.0000    Y=             -0.0025    Z=              0.1543  Tot=              0.1543
 Quadrupole moment (field-independent basis, Debye-Ang):
   XX=           -113.4657   YY=           -154.6808   ZZ=           -144.6718
   XY=             -0.0000   XZ=              0.0001   YZ=              0.0014

 Normal termination of Gaussian 09 at Wed Nov 24 00:49:54 2021.
