 Gaussian 09, Revision E.01,

 ----------------------------------------------------------------------
 #p m06l/def2TZVP opt freq=noraman nosymm int=ultrafine scrf=(SMD,solve
 nt=n,n-DiMethylFormamide)
 ----------------------------------------------------------------------

 -----
 Title
 -----
 Symbolic Z-matrix:
 Charge =  0 Multiplicity = 1

 SCF Done:  E(RM06L) =  -1035.13313843     A.U. after   14 cycles
 SCF Done:  E(RM06L) =  -1035.13641981     A.U. after   11 cycles
 SCF Done:  E(RM06L) =  -1035.13645995     A.U. after   10 cycles
 Optimization completed.
    -- Stationary point found.
 Normal termination of Gaussian 09 at Wed Feb 17 02:03:07 2021.

 -------------------------------------------------------------------
 #P Geom=AllCheck Guess=TCheck SCRF=Check GenChk RM06L/def2TZVP Freq
 -------------------------------------------------------------------

 Structure from the checkpoint file:  "cp.chk"
 -----
 Title
 -----
 Charge =  0 Multiplicity = 1

 SCF Done:  E(RM06L) =  -1035.13645995     A.U. after    2 cycles

  Exact polarizability: 526.731  -0.000 517.247   0.004   0.010 337.805
 Approx polarizability: 636.848  -0.001 629.694   0.008   0.019 417.484

                      1                      2                      3
                      A                      A                      A
 Frequencies --     14.6741                20.7848                23.9068
 Red. masses --      3.6463                 5.7808                 3.8709
 Frc consts  --      0.0005                 0.0015                 0.0013
 IR Inten    --      0.0000                 0.2640                 0.0000

                      4                      5                      6
                      A                      A                      A
 Frequencies --     44.2980                50.3419                53.8239
 Red. masses --      5.3362                 4.4034                 5.2396
 Frc consts  --      0.0062                 0.0066                 0.0089
 IR Inten    --      0.6150                 0.0000                 0.9668

                      7                      8                      9
                      A                      A                      A
 Frequencies --     74.3739               117.0380               171.8350
 Red. masses --      4.9003                 3.7845                 4.6856
 Frc consts  --      0.0160                 0.0305                 0.0815
 IR Inten    --      0.0000                 0.0000                 0.0000

                     10                     11                     12
                      A                      A                      A
 Frequencies --    207.1185               215.6359               251.8515
 Red. masses --      6.7717                 5.2904                 4.7379
 Frc consts  --      0.1712                 0.1449                 0.1771
 IR Inten    --      0.0000                 0.0009                 4.4939

                     13                     14                     15
                      A                      A                      A
 Frequencies --    259.2725               268.5998               269.7844
 Red. masses --      4.1494                 4.8367                 4.2318
 Frc consts  --      0.1643                 0.2056                 0.1815
 IR Inten    --      0.0000                 0.0000                 0.6769

                     16                     17                     18
                      A                      A                      A
 Frequencies --    408.6961               413.1810               413.2063
 Red. masses --      4.4561                 5.4331                 6.8913
 Frc consts  --      0.4385                 0.5465                 0.6932
 IR Inten    --      6.5083                 8.6598                 0.0001

                     19                     20                     21
                      A                      A                      A
 Frequencies --    418.9999               419.3123               432.2963
 Red. masses --      2.8629                 2.8614                 6.2270
 Frc consts  --      0.2961                 0.2964                 0.6856
 IR Inten    --      0.0000                 0.0000                 0.0000

                     22                     23                     24
                      A                      A                      A
 Frequencies --    453.2802               459.2308               491.0567
 Red. masses --      5.1221                 3.2124                 3.9889
 Frc consts  --      0.6201                 0.3992                 0.5667
 IR Inten    --      0.0000                 0.0000                 2.3239

                     25                     26                     27
                      A                      A                      A
 Frequencies --    506.5669               541.7476               568.0652
 Red. masses --      4.4637                 3.2872                 4.1712
 Frc consts  --      0.6749                 0.5684                 0.7931
 IR Inten    --      0.0000                43.0710                 0.0000

                     28                     29                     30
                      A                      A                      A
 Frequencies --    575.3278               624.1968               629.1495
 Red. masses --      4.4915                 7.3310                 6.4562
 Frc consts  --      0.8759                 1.6829                 1.5057
 IR Inten    --      0.0000                 0.0000                32.3354

                     31                     32                     33
                      A                      A                      A
 Frequencies --    632.0848               632.8002               640.6584
 Red. masses --      6.4393                 6.4412                 3.9931
 Frc consts  --      1.5158                 1.5197                 0.9656
 IR Inten    --      0.3733                 0.0000                 0.0000

                     34                     35                     36
                      A                      A                      A
 Frequencies --    658.0460               695.4485               719.4617
 Red. masses --      6.3448                 5.9224                 1.6392
 Frc consts  --      1.6188                 1.6876                 0.4999
 IR Inten    --     59.3651                 0.0000               147.6049

                     37                     38                     39
                      A                      A                      A
 Frequencies --    719.7924               730.3297               738.9531
 Red. masses --      1.5478                 4.6807                 4.7228
 Frc consts  --      0.4725                 1.4710                 1.5194
 IR Inten    --      0.0000                 0.0000                 0.0000

                     40                     41                     42
                      A                      A                      A
 Frequencies --    742.4437               747.0988               758.0779
 Red. masses --      1.2297                 1.2287                 5.9091
 Frc consts  --      0.3994                 0.4041                 2.0008
 IR Inten    --    287.9576                 0.0000                 1.9292

                     43                     44                     45
                      A                      A                      A
 Frequencies --    777.8344               800.4139               841.9777
 Red. masses --      2.2947                 2.5258                 1.4201
 Frc consts  --      0.8180                 0.9534                 0.5932
 IR Inten    --     72.3314                 0.0000                 0.0000

                     46                     47                     48
                      A                      A                      A
 Frequencies --    844.7453               862.2314               862.2677
 Red. masses --      1.4197                 1.2489                 1.2487
 Frc consts  --      0.5969                 0.5471                 0.5470
 IR Inten    --      0.0000                 0.0000                 0.0000

                     49                     50                     51
                      A                      A                      A
 Frequencies --    913.4375               913.4897               916.3043
 Red. masses --      1.3653                 1.3757                 2.0123
 Frc consts  --      0.6712                 0.6764                 0.9955
 IR Inten    --      0.0005                20.8807                 4.8960

                     52                     53                     54
                      A                      A                      A
 Frequencies --    917.3968               923.3876               955.8952
 Red. masses --      6.5182                 2.1100                 6.1949
 Frc consts  --      3.2322                 1.0600                 3.3351
 IR Inten    --      0.0000                 0.0000                 0.0068

                     55                     56                     57
                      A                      A                      A
 Frequencies --    963.0031               964.0306               964.2119
 Red. masses --      1.2338                 2.5572                 1.2305
 Frc consts  --      0.6742                 1.4002                 0.6740
 IR Inten    --      0.0000                 0.0000                 0.0000

                     58                     59                     60
                      A                      A                      A
 Frequencies --    966.1665               998.2813               998.2921
 Red. masses --      2.5456                 1.3767                 1.3767
 Frc consts  --      1.4001                 0.8084                 0.8084
 IR Inten    --      3.2824                 0.0000                 0.0000

                     61                     62                     63
                      A                      A                      A
 Frequencies --   1021.0572              1021.1043              1023.8390
 Red. masses --      1.2941                 1.2934                 6.3277
 Frc consts  --      0.7949                 0.7945                 3.9080
 IR Inten    --      0.0709                 0.0000                 5.2113

                     64                     65                     66
                      A                      A                      A
 Frequencies --   1023.8580              1052.4670              1052.8952
 Red. masses --      6.3192                 2.0772                 2.0310
 Frc consts  --      3.9029                 1.3556                 1.3266
 IR Inten    --      0.0000                25.2047                 0.0000

                     67                     68                     69
                      A                      A                      A
 Frequencies --   1079.0826              1090.6307              1099.0611
 Red. masses --      2.3229                 1.8152                 1.4786
 Frc consts  --      1.5937                 1.2721                 1.0523
 IR Inten    --      0.0000                65.3847                33.0451

                     70                     71                     72
                      A                      A                      A
 Frequencies --   1099.0805              1122.9444              1146.0816
 Red. masses --      1.4783                 1.9900                 1.6900
 Frc consts  --      1.0521                 1.4785                 1.3079
 IR Inten    --      0.0007                 0.0000                 1.2382

                     73                     74                     75
                      A                      A                      A
 Frequencies --   1170.8325              1170.8333              1173.0225
 Red. masses --      1.0825                 1.0825                 1.0733
 Frc consts  --      0.8743                 0.8743                 0.8701
 IR Inten    --      0.0001                 0.2613                 3.4078

                     76                     77                     78
                      A                      A                      A
 Frequencies --   1175.5556              1183.6193              1184.4493
 Red. masses --      1.0669                 1.1782                 1.1292
 Frc consts  --      0.8687                 0.9725                 0.9333
 IR Inten    --      0.0000                 2.1622                 0.0000

                     79                     80                     81
                      A                      A                      A
 Frequencies --   1199.3167              1220.1591              1252.4715
 Red. masses --      2.5989                 3.0563                 1.8934
 Frc consts  --      2.2025                 2.6809                 1.7499
 IR Inten    --      9.9075                 0.0000                 0.0000

                     82                     83                     84
                      A                      A                      A
 Frequencies --   1290.5828              1308.6918              1328.1302
 Red. masses --      2.1533                 3.4229                 1.5969
 Frc consts  --      2.1131                 3.4540                 1.6596
 IR Inten    --    182.5526                 0.0000                 0.0004

                     85                     86                     87
                      A                      A                      A
 Frequencies --   1328.1595              1335.4224              1340.9470
 Red. masses --      1.5968                 2.2454                 6.9160
 Frc consts  --      1.6596                 2.3593                 7.3271
 IR Inten    --      3.9000                 0.0000              1511.8555

                     88                     89                     90
                      A                      A                      A
 Frequencies --   1365.5664              1365.5748              1366.5803
 Red. masses --      4.3047                 4.3036                 2.6692
 Frc consts  --      4.7296                 4.7284                 2.9370
 IR Inten    --      0.0009                 4.7809               218.5091

                     91                     92                     93
                      A                      A                      A
 Frequencies --   1393.3503              1408.6490              1474.2503
 Red. masses --      5.6018                 8.9786                 2.5398
 Frc consts  --      6.4076                10.4970                 3.2523
 IR Inten    --    362.7693                 0.0000                 0.0000

                     94                     95                     96
                      A                      A                      A
 Frequencies --   1482.1786              1482.1966              1489.4407
 Red. masses --      2.2779                 2.2781                 2.5445
 Frc consts  --      2.9484                 2.9488                 3.3258
 IR Inten    --      3.7515                 0.0000                16.1412

                     97                     98                     99
                      A                      A                      A
 Frequencies --   1516.8975              1527.6213              1529.3908
 Red. masses --      3.0334                 2.3650                 2.4512
 Frc consts  --      4.1124                 3.2517                 3.3780
 IR Inten    --   1249.0543                 0.0000               167.6718

                    100                    101                    102
                      A                      A                      A
 Frequencies --   1552.1379              1601.4000              1623.6192
 Red. masses --      3.0892                 5.4750                 6.2822
 Frc consts  --      4.3849                 8.2724                 9.7573
 IR Inten    --      0.0000                 0.0000                 1.8795

                    103                    104                    105
                      A                      A                      A
 Frequencies --   1633.0020              1633.0043              1637.5823
 Red. masses --      6.0965                 6.0972                 6.0959
 Frc consts  --      9.5786                 9.5798                 9.6314
 IR Inten    --     11.3929                 0.0075               220.9946

                    106                    107                    108
                      A                      A                      A
 Frequencies --   1645.5979              1656.8317              1660.1069
 Red. masses --      6.0981                 6.4751                 7.8297
 Frc consts  --      9.7295                10.4727                12.7136
 IR Inten    --      0.0000                19.4663                 0.0000

                    109                    110                    111
                      A                      A                      A
 Frequencies --   3182.1559              3182.1582              3187.0149
 Red. masses --      1.0852                 1.0852                 1.0881
 Frc consts  --      6.4746                 6.4746                 6.5117
 IR Inten    --      5.0210                 0.0049                 0.0000

                    112                    113                    114
                      A                      A                      A
 Frequencies --   3187.0225              3188.1290              3188.4774
 Red. masses --      1.0881                 1.0847                 1.0850
 Frc consts  --      6.5118                 6.4957                 6.4988
 IR Inten    --      0.0924                 0.0000                 0.4189

                    115                    116                    117
                      A                      A                      A
 Frequencies --   3193.8790              3193.8863              3200.6535
 Red. masses --      1.0916                 1.0916                 1.0958
 Frc consts  --      6.5604                 6.5605                 6.6139
 IR Inten    --     26.6170                 0.0397                 0.0154

                    118                    119                    120
                      A                      A                      A
 Frequencies --   3200.6644              3200.9338              3201.1493
 Red. masses --      1.0958                 1.0900                 1.0902
 Frc consts  --      6.6139                 6.5801                 6.5819
 IR Inten    --     56.7747                52.0336                 0.0001

                    121                    122                    123
                      A                      A                      A
 Frequencies --   3209.1431              3209.1794              3209.9930
 Red. masses --      1.0988                 1.0989                 1.0916
 Frc consts  --      6.6674                 6.6679                 6.6270
 IR Inten    --     38.5604                 0.0006                 0.0000

                    124                    125                    126
                      A                      A                      A
 Frequencies --   3210.5551              3215.1602              3215.5901
 Red. masses --      1.0918                 1.0964                 1.0962
 Frc consts  --      6.6304                 6.6776                 6.6784
 IR Inten    --     35.8171                14.0968                 0.0000

 - Thermochemistry -
 -------------------
 Temperature   298.150 Kelvin.  Pressure   1.00000 Atm.
 Atom     1 has atomic number  6 and mass  12.00000

 Molecular mass:   334.14700 amu.
 Principal axes and moments of inertia in atomic units:
                           1         2         3
     Eigenvalues --  4560.12220********************
           X            1.00000  -0.00001   0.00000
           Y            0.00001   1.00000   0.00001
           Z           -0.00000  -0.00001   1.00000
 This molecule is an asymmetric top.
 Rotational symmetry number  1.
 Warning -- assumption of classical behavior for rotation
           may cause significant error
 Rotational temperatures (Kelvin)      0.01899     0.00730     0.00571
 Rotational constants (GHZ):           0.39577     0.15206     0.11895
 Zero-point vibrational energy     928967.5 (Joules/Mol)
                                  222.02855 (Kcal/Mol)
 Warning -- explicit consideration of  28 degrees of freedom as
           vibrations may cause significant error
 Vibrational temperatures:     21.11    29.90    34.40    63.73    72.43
          (Kelvin)             77.44   107.01   168.39   247.23   298.00
                              310.25   362.36   373.03   386.45   388.16
                              588.02   594.47   594.51   602.85   603.30
                              621.98   652.17   660.73   706.52   728.84
                              779.45   817.32   827.77   898.08   905.20
                              909.43   910.46   921.76   946.78  1000.59
                             1035.14  1035.62  1050.78  1063.19  1068.21
                             1074.91  1090.70  1119.13  1151.62  1211.42
                             1215.40  1240.56  1240.61  1314.23  1314.31
                             1318.36  1319.93  1328.55  1375.32  1385.54
                             1387.02  1387.28  1390.10  1436.30  1436.32
                             1469.07  1469.14  1473.07  1473.10  1514.26
                             1514.88  1552.56  1569.17  1581.30  1581.33
                             1615.66  1648.95  1684.56  1684.57  1687.72
                             1691.36  1702.96  1704.16  1725.55  1755.53
                             1802.02  1856.86  1882.91  1910.88  1910.92
                             1921.37  1929.32  1964.74  1964.76  1966.20
                             2004.72  2026.73  2121.11  2132.52  2132.55
                             2142.97  2182.47  2197.90  2200.45  2233.18
                             2304.05  2336.02  2349.52  2349.53  2356.11
                             2367.65  2383.81  2388.52  4578.41  4578.41
                             4585.40  4585.41  4587.00  4587.50  4595.27
                             4595.28  4605.02  4605.04  4605.42  4605.73
                             4617.24  4617.29  4618.46  4619.27  4625.89
                             4626.51

 Zero-point correction=                           0.353825 (Hartree/Particle)
 Thermal correction to Energy=                    0.373470
 Thermal correction to Enthalpy=                  0.374414
 Thermal correction to Gibbs Free Energy=         0.302316
 Sum of electronic and zero-point Energies=          -1034.782635
 Sum of electronic and thermal Energies=             -1034.762990
 Sum of electronic and thermal Enthalpies=           -1034.762046
 Sum of electronic and thermal Free Energies=        -1034.834144

                     E (Thermal)             CV                S
                      KCal/Mol        Cal/Mol-Kelvin    Cal/Mol-Kelvin
 Total                  234.356             80.095            151.742
 Electronic               0.000              0.000              0.000
 Translational            0.889              2.981             43.314
 Rotational               0.889              2.981             35.061
 Vibrational            232.578             74.133             73.367
 Vibration     1          0.593              1.986              7.249
 Vibration     2          0.593              1.986              6.558
 Vibration     3          0.593              1.985              6.280
 Vibration     4          0.595              1.980              5.057
 Vibration     5          0.595              1.977              4.804
 Vibration     6          0.596              1.976              4.672
 Vibration     7          0.599              1.966              4.034
 Vibration     8          0.608              1.935              3.149
 Vibration     9          0.626              1.877              2.415
 Vibration    10          0.641              1.830              2.069
 Vibration    11          0.645              1.817              1.995
 Vibration    12          0.664              1.760              1.718
 Vibration    13          0.668              1.747              1.667
 Vibration    14          0.673              1.731              1.605
 Vibration    15          0.674              1.729              1.598
 Vibration    16          0.773              1.451              0.931
 Vibration    17          0.777              1.442              0.915
 Vibration    18          0.777              1.442              0.915
 Vibration    19          0.782              1.429              0.895
 Vibration    20          0.782              1.428              0.894
 Vibration    21          0.793              1.400              0.851
 Vibration    22          0.812              1.354              0.786
 Vibration    23          0.817              1.340              0.768
 Vibration    24          0.847              1.270              0.681
 Vibration    25          0.862              1.235              0.642
 Vibration    26          0.897              1.158              0.562
 Vibration    27          0.924              1.100              0.508
 Vibration    28          0.932              1.085              0.494

 Normal termination of Gaussian 09 at Wed Feb 17 06:18:49 2021.
 Gaussian 09:  ES64L-G09RevE.01 30-Nov-2015

 ----------------------------------------------------------------------
 #p m06l chkbasis geom=allcheck Guess=Read int=ultrafine scrf=(SMD,solv
 ent=n,n-DiMethylFormamide) td=(NStates=30)
 ----------------------------------------------------------------------

 Structure from the checkpoint file:  "cp.chk"
 -----
 Title
 -----
 Charge =  0 Multiplicity = 1

                         Standard orientation:
 ---------------------------------------------------------------------
 Center     Atomic      Atomic             Coordinates (Angstroms)
 Number     Number       Type             X           Y           Z
 ---------------------------------------------------------------------
      1          6           0        0.689324   -3.643784    0.000042
      2          6           0        1.380037   -2.433593    0.000048
      3          6           0        0.704769   -1.219329    0.000031
      4          6           0       -0.704776   -1.219325    0.000059
      5          6           0       -1.380057   -2.433580    0.000031
      6          6           0       -0.689356   -3.643777    0.000019
      7          6           0       -0.704769    1.219329   -0.000002
      8          6           0        0.704777    1.219324   -0.000090
      9          6           0        1.380056    2.433582   -0.000307
     10          1           0        2.461380    2.434029   -0.000423
     11          6           0        0.689355    3.643778   -0.000367
     12          6           0       -0.689326    3.643783   -0.000221
     13          6           0       -1.380038    2.433592   -0.000052
     14          1           0        2.461361   -2.434055    0.000070
     15          1           0       -2.461381   -2.434027    0.000036
     16          1           0       -1.244540   -4.572633   -0.000001
     17          1           0        1.244538    4.572634   -0.000526
     18          1           0       -1.244502    4.572643   -0.000244
     19          7           0        1.389078   -0.000004    0.000038
     20          6           0       -2.817187    0.000004    0.000089
     21          6           0       -3.508295   -0.000102    1.204639
     22          6           0       -3.508187    0.000111   -1.204527
     23          6           0       -4.895024   -0.000103    1.202125
     24          6           0       -4.894915    0.000114   -1.202137
     25          6           0       -5.588720    0.000007   -0.000036
     26          1           0       -5.434609   -0.000187    2.140650
     27          1           0       -5.434416    0.000199   -2.140710
     28          1           0       -2.952246   -0.000186    2.134316
     29          1           0       -2.952057    0.000193   -2.134156
     30          1           0       -6.671297    0.000008   -0.000086
     31          1           0        1.244499   -4.572644    0.000057
     32          7           0       -1.389077    0.000004    0.000163
     33          6           0        2.817187   -0.000004    0.000056
     34          6           0        3.508218    0.000612    1.204652
     35          6           0        3.508266   -0.000621   -1.204513
     36          6           0        4.894946    0.000620    1.202229
     37          1           0        2.952108    0.001091    2.134293
     38          6           0        4.894995   -0.000632   -1.202033
     39          1           0        2.952197   -0.001099   -2.134178
     40          6           0        5.588721   -0.000007    0.000112
     41          1           0        5.434471    0.001105    2.140788
     42          1           0        5.434556   -0.001118   -2.140571
     43          1           0        6.671298   -0.000008    0.000135
     44          1           0       -2.461361    2.434052    0.000048
 ---------------------------------------------------------------------

 SCF Done:  E(RM06L) =  -1035.13645995     A.U. after    1 cycles

 Excitation energies and oscillator strengths:

 Excited State   1:      Singlet-A      2.7146 eV  456.72 nm  f=0.0000  <S**2>=0.000
      88 -> 89         0.70085
 This state for optimization and/or second-order correction.
 Total Energy, E(TD-HF/TD-KS) =  -1035.03669888
 Copying the excited state density for this state as the 1-particle RhoCI density.

 Excited State   2:      Singlet-A      2.7759 eV  446.65 nm  f=0.0270  <S**2>=0.000
      88 -> 90         0.69661
      88 -> 94        -0.11352

 Excited State   3:      Singlet-A      2.8102 eV  441.19 nm  f=0.0000  <S**2>=0.000
      88 -> 91         0.70710

 Excited State   4:      Singlet-A      2.8314 eV  437.89 nm  f=0.0000  <S**2>=0.000
      88 -> 92         0.70710

 Excited State   5:      Singlet-A      3.1866 eV  389.08 nm  f=0.0000  <S**2>=0.000
      88 -> 93         0.69981

 Excited State   6:      Singlet-A      3.5628 eV  348.00 nm  f=0.2193  <S**2>=0.000
      87 -> 89        -0.18446
      88 -> 94         0.66948

 Excited State   7:      Singlet-A      3.7841 eV  327.64 nm  f=0.0000  <S**2>=0.000
      88 -> 95         0.69004

 Excited State   8:      Singlet-A      4.3964 eV  282.01 nm  f=0.0000  <S**2>=0.000
      87 -> 90         0.69483
      87 -> 94        -0.12229

 Excited State   9:      Singlet-A      4.4354 eV  279.53 nm  f=0.0000  <S**2>=0.000
      87 -> 91         0.70710

 Excited State  10:      Singlet-A      4.4582 eV  278.11 nm  f=0.0000  <S**2>=0.000
      87 -> 92         0.70710

 Excited State  11:      Singlet-A      4.4673 eV  277.54 nm  f=0.2099  <S**2>=0.000
      87 -> 89         0.61688
      87 -> 93         0.31836
      88 -> 94         0.12113

 Excited State  12:      Singlet-A      4.5958 eV  269.78 nm  f=0.1273  <S**2>=0.000
      85 -> 89        -0.18900
      85 -> 93         0.11148
      88 -> 96         0.66017

 Excited State  13:      Singlet-A      4.9751 eV  249.21 nm  f=0.8423  <S**2>=0.000
      87 -> 89        -0.27951
      87 -> 93         0.61904
      88 -> 94        -0.14443

 Excited State  14:      Singlet-A      5.1849 eV  239.12 nm  f=0.0365  <S**2>=0.000
      82 -> 89        -0.12952
      85 -> 89        -0.14661
      86 -> 90         0.54601
      87 -> 95        -0.39013

 Excited State  15:      Singlet-A      5.1908 eV  238.85 nm  f=0.0000  <S**2>=0.000
      82 -> 90        -0.21901
      85 -> 90         0.14355
      86 -> 89         0.64352

 Excited State  16:      Singlet-A      5.2025 eV  238.32 nm  f=0.0000  <S**2>=0.000
      86 -> 95        -0.18575
      87 -> 90         0.10200
      87 -> 94         0.66293

 Excited State  17:      Singlet-A      5.2298 eV  237.07 nm  f=0.0000  <S**2>=0.000
      84 -> 89         0.48313
      86 -> 91         0.49823

 Excited State  18:      Singlet-A      5.2513 eV  236.10 nm  f=0.0000  <S**2>=0.000
      83 -> 89        -0.42764
      84 -> 90         0.18472
      86 -> 92         0.51694

 Excited State  19:      Singlet-A      5.2793 eV  234.85 nm  f=0.0005  <S**2>=0.000
      83 -> 90         0.39440
      84 -> 89         0.44039
      86 -> 91        -0.36700

 Excited State  20:      Singlet-A      5.2836 eV  234.66 nm  f=0.0000  <S**2>=0.000
      83 -> 89         0.47091
      84 -> 90         0.47315
      86 -> 92         0.22863

 Excited State  21:      Singlet-A      5.2938 eV  234.21 nm  f=0.0064  <S**2>=0.000
      81 -> 90         0.10853
      82 -> 89        -0.16025
      85 -> 89        -0.40020
      86 -> 90         0.21270
      86 -> 94        -0.14449
      87 -> 95         0.46296

 Excited State  22:      Singlet-A      5.2969 eV  234.07 nm  f=0.0000  <S**2>=0.000
      81 -> 89        -0.16614
      85 -> 90         0.65073
      86 -> 89        -0.13279
      86 -> 93        -0.14725

 Excited State  23:      Singlet-A      5.3069 eV  233.63 nm  f=0.0025  <S**2>=0.000
      88 -> 97         0.68672
      88 -> 98         0.10018

 Excited State  24:      Singlet-A      5.3276 eV  232.72 nm  f=0.0000  <S**2>=0.000
      82 -> 91         0.11609
      84 -> 90         0.26340
      85 -> 91         0.57200
      86 -> 92        -0.28229

 Excited State  25:      Singlet-A      5.3438 eV  232.02 nm  f=0.0001  <S**2>=0.000
      82 -> 92         0.12378
      83 -> 90        -0.37016
      85 -> 92         0.54255
      86 -> 91        -0.18751

 Excited State  26:      Singlet-A      5.4048 eV  229.40 nm  f=0.0000  <S**2>=0.000
      81 -> 92         0.15812
      82 -> 91         0.39449
      83 -> 89        -0.17822
      84 -> 90         0.28215
      85 -> 91        -0.37415
      86 -> 92        -0.24249

 Excited State  27:      Singlet-A      5.4122 eV  229.08 nm  f=0.0000  <S**2>=0.000
      83 -> 92         0.48548
      84 -> 91         0.51378

 Excited State  28:      Singlet-A      5.4125 eV  229.07 nm  f=0.0053  <S**2>=0.000
      83 -> 91         0.48335
      84 -> 92         0.49546

 Excited State  29:      Singlet-A      5.4144 eV  228.99 nm  f=0.1582  <S**2>=0.000
      82 -> 89        -0.23060
      82 -> 93        -0.14459
      83 -> 91         0.11410
      85 -> 89         0.42184
      85 -> 93         0.29159
      86 -> 90         0.23167
      86 -> 94        -0.16328
      87 -> 95         0.20769

 Excited State  30:      Singlet-A      5.4164 eV  228.91 nm  f=0.0028  <S**2>=0.000
      81 -> 91        -0.17732
      82 -> 92        -0.36157
      83 -> 90         0.32551
      84 -> 89        -0.13498
      85 -> 92         0.40934
      86 -> 91         0.18709

 The electronic state is 1-A.
 Alpha  occ. eigenvalues --  -14.21090 -14.21090 -10.09445 -10.09444 -10.09406
 Alpha  occ. eigenvalues --  -10.09406 -10.08990 -10.08989 -10.05269 -10.05269
 Alpha  occ. eigenvalues --  -10.05267 -10.05267 -10.05223 -10.05223 -10.05217
 Alpha  occ. eigenvalues --  -10.05217 -10.05112 -10.05112 -10.04065 -10.04065
 Alpha  occ. eigenvalues --  -10.04065 -10.04065 -10.03819 -10.03819 -10.03770
 Alpha  occ. eigenvalues --  -10.03770  -0.96091  -0.92309  -0.82785  -0.82555
 Alpha  occ. eigenvalues --   -0.81821  -0.79373  -0.73311  -0.72427  -0.72029
 Alpha  occ. eigenvalues --   -0.71765  -0.71763  -0.71179  -0.68982  -0.66119
 Alpha  occ. eigenvalues --   -0.61106  -0.60106  -0.57761  -0.57726  -0.57612
 Alpha  occ. eigenvalues --   -0.56209  -0.54335  -0.52364  -0.52318  -0.49556
 Alpha  occ. eigenvalues --   -0.49504  -0.46023  -0.45161  -0.44505  -0.43976
 Alpha  occ. eigenvalues --   -0.43131  -0.42738  -0.42560  -0.41105  -0.40031
 Alpha  occ. eigenvalues --   -0.39753  -0.39340  -0.39190  -0.39031  -0.38713
 Alpha  occ. eigenvalues --   -0.38476  -0.38150  -0.34681  -0.34409  -0.33958
 Alpha  occ. eigenvalues --   -0.33752  -0.33188  -0.32986  -0.32601  -0.31518
 Alpha  occ. eigenvalues --   -0.31506  -0.31456  -0.30105  -0.29860  -0.28915
 Alpha  occ. eigenvalues --   -0.24583  -0.24168  -0.23794  -0.23699  -0.23534
 Alpha  occ. eigenvalues --   -0.23204  -0.20208  -0.14246
 Alpha virt. eigenvalues --   -0.04429  -0.04210  -0.03894  -0.03815  -0.02797
 Alpha virt. eigenvalues --   -0.02020  -0.01584   0.01512   0.05308   0.05887
 Alpha virt. eigenvalues --    0.05901   0.07399   0.08337   0.08360   0.09058

 Mulliken charges:
               1
     1  C   -0.154689
     2  C   -0.162567
     3  C    0.187702
     4  C    0.187714
     5  C   -0.162573
     6  C   -0.154686
     7  C    0.187706
     8  C    0.187711
     9  C   -0.162571
    10  H    0.118813
    11  C   -0.154687
    12  C   -0.154688
    13  C   -0.162569
    14  H    0.118813
    15  H    0.118813
    16  H    0.086169
    17  H    0.086169
    18  H    0.086169
    19  N   -0.153498
    20  C    0.162677
    21  C   -0.306457
    22  C   -0.306577
    23  C    0.027629
    24  C    0.027633
    25  C   -0.082432
    26  H    0.092589
    27  H    0.092591
    28  H    0.099329
    29  H    0.099336
    30  H    0.096314
    31  H    0.086169
    32  N   -0.153497
    33  C    0.162676
    34  C   -0.306498
    35  C   -0.306534
    36  C    0.027640
    37  H    0.099327
    38  C    0.027622
    39  H    0.099338
    40  C   -0.082431
    41  H    0.092590
    42  H    0.092590
    43  H    0.096314
    44  H    0.118813
 Sum of Mulliken charges =  -0.00000

 Dipole moment (field-independent basis, Debye):
    X=             -0.0000    Y=             -0.0000    Z=             -0.0000  Tot=              0.0000
 Quadrupole moment (field-independent basis, Debye-Ang):
   XX=           -114.3083   YY=           -155.7221   ZZ=           -143.7456
   XY=             -0.0001   XZ=             -0.0004   YZ=              0.0034

 Normal termination of Gaussian 09 at Wed Feb 17 09:09:16 2021.
