 Gaussian 09, Revision E.01,

 ----------------------------------------------------------------------
 #p B97D3/def2TZVP opt freq=noraman nosymm int=ultrafine scrf=(SMD,solv
 ent=n,n-DiMethylFormamide)
 ----------------------------------------------------------------------

 -----
 Title
 -----
 Symbolic Z-matrix:
 Charge =  0 Multiplicity = 1

 SCF Done:  E(RB97D3) =  -1034.60509029     A.U. after   13 cycles
 SCF Done:  E(RB97D3) =  -1034.60552345     A.U. after    9 cycles
 SCF Done:  E(RB97D3) =  -1034.60553989     A.U. after    8 cycles
 Optimization completed.
    -- Stationary point found.
 Normal termination of Gaussian 09 at Mon Mar 29 19:20:58 2021.

 --------------------------------------------------------------------
 #P Geom=AllCheck Guess=TCheck SCRF=Check GenChk RB97D3/def2TZVP Freq
 --------------------------------------------------------------------

 Structure from the checkpoint file:  "cp.chk"
 -----
 Title
 -----
 Charge =  0 Multiplicity = 1

 SCF Done:  E(RB97D3) =  -1034.60553989     A.U. after    1 cycles

  Exact polarizability: 552.095  -0.000 542.388   0.005  -0.001 345.206
 Approx polarizability: 693.322  -0.001 696.098   0.008   0.002 453.142

                      1                      2                      3
                      A                      A                      A
 Frequencies --     17.6420                34.4034                40.3085
 Red. masses --      5.6463                 3.6605                 5.4502
 Frc consts  --      0.0010                 0.0026                 0.0052
 IR Inten    --      0.4150                 0.0000                 0.8522

                      4                      5                      6
                      A                      A                      A
 Frequencies --     41.4143                44.8448                52.5963
 Red. masses --      3.8746                 4.4219                 5.2297
 Frc consts  --      0.0039                 0.0052                 0.0085
 IR Inten    --      0.0000                 0.0000                 1.3048

                      7                      8                      9
                      A                      A                      A
 Frequencies --     71.0252               113.4637               165.2770
 Red. masses --      4.8897                 3.7964                 4.7016
 Frc consts  --      0.0145                 0.0288                 0.0757
 IR Inten    --      0.0000                 0.0000                 0.0000

                     10                     11                     12
                      A                      A                      A
 Frequencies --    204.6994               207.9341               242.5442
 Red. masses --      6.7685                 5.2393                 4.7721
 Frc consts  --      0.1671                 0.1335                 0.1654
 IR Inten    --      0.0000                 0.0182                 4.1586

                     13                     14                     15
                      A                      A                      A
 Frequencies --    251.9345               259.3956               263.7996
 Red. masses --      4.1734                 4.8997                 4.2606
 Frc consts  --      0.1561                 0.1942                 0.1747
 IR Inten    --      0.0000                 0.0000                 0.7553

                     16                     17                     18
                      A                      A                      A
 Frequencies --    399.5455               403.3179               404.5209
 Red. masses --      4.4393                 5.4740                 6.8776
 Frc consts  --      0.4175                 0.5246                 0.6631
 IR Inten    --      7.4342                 9.0669                 0.0000

                     19                     20                     21
                      A                      A                      A
 Frequencies --    408.5061               408.7590               423.1377
 Red. masses --      2.9077                 2.9049                 6.2326
 Frc consts  --      0.2859                 0.2860                 0.6575
 IR Inten    --      0.0000                 0.0000                 0.0000

                     22                     23                     24
                      A                      A                      A
 Frequencies --    441.0143               445.1402               479.3593
 Red. masses --      5.0791                 3.2400                 4.0536
 Frc consts  --      0.5820                 0.3783                 0.5488
 IR Inten    --      0.0000                 0.0000                 3.4205

                     25                     26                     27
                      A                      A                      A
 Frequencies --    494.6792               526.4083               546.4973
 Red. masses --      4.4118                 3.2991                 4.4121
 Frc consts  --      0.6361                 0.5386                 0.7764
 IR Inten    --      0.0000                49.8392                 0.0000

                     28                     29                     30
                      A                      A                      A
 Frequencies --    553.0276               617.7607               618.5395
 Red. masses --      4.8049                 7.4167                 6.5149
 Frc consts  --      0.8658                 1.6676                 1.4686
 IR Inten    --      0.0000                 0.0000                33.6533

                     31                     32                     33
                      A                      A                      A
 Frequencies --    621.2730               621.5698               628.8048
 Red. masses --      6.4833                 6.5097                 4.1435
 Frc consts  --      1.4744                 1.4818                 0.9653
 IR Inten    --      0.6124                 0.0000                 0.0000

                     34                     35                     36
                      A                      A                      A
 Frequencies --    647.0284               685.7217               695.0230
 Red. masses --      6.4153                 5.9506                 5.1326
 Frc consts  --      1.5824                 1.6486                 1.4608
 IR Inten    --     56.8067                 0.0000                 0.0000

                     37                     38                     39
                      A                      A                      A
 Frequencies --    696.3676               696.9108               705.3865
 Red. masses --      1.6550                 1.5367                 5.0801
 Frc consts  --      0.4728                 0.4397                 1.4893
 IR Inten    --    170.9692                 0.0000                 0.0000

                     40                     41                     42
                      A                      A                      A
 Frequencies --    715.1524               719.5896               746.4757
 Red. masses --      1.2277                 1.2253                 5.9643
 Frc consts  --      0.3700                 0.3738                 1.9581
 IR Inten    --    301.2523                 0.0000                 2.1750

                     43                     44                     45
                      A                      A                      A
 Frequencies --    754.4594               777.1419               814.2274
 Red. masses --      2.2275                 2.4913                 1.4228
 Frc consts  --      0.7470                 0.8865                 0.5558
 IR Inten    --     77.7964                 0.0000                 0.0000

                     46                     47                     48
                      A                      A                      A
 Frequencies --    816.9335               832.7117               832.7340
 Red. masses --      1.4150                 1.2473                 1.2471
 Frc consts  --      0.5564                 0.5096                 0.5095
 IR Inten    --      0.0000                 0.0000                 0.0000

                     49                     50                     51
                      A                      A                      A
 Frequencies --    879.3618               879.4629               891.0986
 Red. masses --      1.3719                 1.3603                 1.9170
 Frc consts  --      0.6250                 0.6199                 0.8969
 IR Inten    --     22.9405                 0.0001                 4.8041

                     52                     53                     54
                      A                      A                      A
 Frequencies --    898.0022               898.7830               905.1366
 Red. masses --      6.5169                 1.9582                 1.1870
 Frc consts  --      3.0963                 0.9320                 0.5729
 IR Inten    --      0.0000                 0.0000                 0.0000

                     55                     56                     57
                      A                      A                      A
 Frequencies --    906.8418               937.2454               941.0173
 Red. masses --      1.1859                 6.2402                 2.8986
 Frc consts  --      0.5746                 3.2296                 1.5123
 IR Inten    --      0.0000                 0.1091                 0.0000

                     58                     59                     60
                      A                      A                      A
 Frequencies --    942.1149               954.1710               954.1721
 Red. masses --      2.8070                 1.3674                 1.3672
 Frc consts  --      1.4679                 0.7335                 0.7334
 IR Inten    --      2.1773                 0.0000                 0.0000

                     61                     62                     63
                      A                      A                      A
 Frequencies --    976.5702               976.6361              1003.3635
 Red. masses --      1.2873                 1.2862                 6.2373
 Frc consts  --      0.7233                 0.7228                 3.6997
 IR Inten    --      0.0558                 0.0000                 0.0000

                     64                     65                     66
                      A                      A                      A
 Frequencies --   1003.4135              1026.5126              1026.8942
 Red. masses --      6.2481                 2.1143                 2.0734
 Frc consts  --      3.7065                 1.3127                 1.2882
 IR Inten    --      3.0599                32.1150                 0.0000

                     67                     68                     69
                      A                      A                      A
 Frequencies --   1050.2715              1061.9441              1074.0161
 Red. masses --      2.3651                 1.8487                 1.5154
 Frc consts  --      1.5371                 1.2283                 1.0299
 IR Inten    --      0.0000                63.8300                37.3351

                     70                     71                     72
                      A                      A                      A
 Frequencies --   1074.0521              1096.5461              1121.2012
 Red. masses --      1.5151                 2.0310                 1.6580
 Frc consts  --      1.0298                 1.4389                 1.2280
 IR Inten    --      0.0001                 0.0000                 3.0271

                     73                     74                     75
                      A                      A                      A
 Frequencies --   1151.1742              1151.1754              1151.6227
 Red. masses --      1.0766                 1.0766                 1.0732
 Frc consts  --      0.8406                 0.8406                 0.8386
 IR Inten    --      0.0013                 0.0939                 1.6100

                     76                     77                     78
                      A                      A                      A
 Frequencies --   1153.9223              1160.5352              1161.1011
 Red. masses --      1.0720                 1.1669                 1.1277
 Frc consts  --      0.8410                 0.9260                 0.8957
 IR Inten    --      0.0000                 1.1832                 0.0000

                     79                     80                     81
                      A                      A                      A
 Frequencies --   1174.2193              1194.7158              1226.1471
 Red. masses --      2.9025                 3.1646                 1.9951
 Frc consts  --      2.3579                 2.6613                 1.7673
 IR Inten    --      8.8473                 0.0000                 0.0000

                     82                     83                     84
                      A                      A                      A
 Frequencies --   1262.4759              1278.1585              1300.1280
 Red. masses --      2.3873                 3.5167                 7.5827
 Frc consts  --      2.2418                 3.3850                 7.5517
 IR Inten    --    206.2273                 0.0000              1441.3802

                     85                     86                     87
                      A                      A                      A
 Frequencies --   1303.5334              1304.3329              1304.3841
 Red. masses --      2.2160                 1.7042                 1.7035
 Frc consts  --      2.2185                 1.7083                 1.7077
 IR Inten    --      0.0002                 0.0003                 3.7948

                     88                     89                     90
                      A                      A                      A
 Frequencies --   1331.5471              1331.5564              1335.3795
 Red. masses --      3.7597                 3.7616                 2.3895
 Frc consts  --      3.9275                 3.9296                 2.5106
 IR Inten    --      0.0003                 4.7044               174.0989

                     91                     92                     93
                      A                      A                      A
 Frequencies --   1353.5849              1368.1987              1437.9257
 Red. masses --      5.8033                 8.7365                 2.4017
 Frc consts  --      6.2646                 9.6358                 2.9258
 IR Inten    --    451.6883                 0.0000                 0.0000

                     94                     95                     96
                      A                      A                      A
 Frequencies --   1448.0997              1448.1108              1453.9933
 Red. masses --      2.2032                 2.2034                 2.4817
 Frc consts  --      2.7221                 2.7224                 3.0912
 IR Inten    --      9.5113                 0.0001                23.8547

                     97                     98                     99
                      A                      A                      A
 Frequencies --   1475.0192              1491.4951              1492.7827
 Red. masses --      2.8395                 2.3016                 2.3701
 Frc consts  --      3.6399                 3.0166                 3.1117
 IR Inten    --   1192.5653                 0.0000               175.9506

                    100                    101                    102
                      A                      A                      A
 Frequencies --   1511.5779              1552.8039              1572.7483
 Red. masses --      2.9446                 5.2240                 5.9287
 Frc consts  --      3.9641                 7.4214                 8.6402
 IR Inten    --      0.0000                 0.0000                 0.0853

                    103                    104                    105
                      A                      A                      A
 Frequencies --   1586.4739              1586.4809              1588.3151
 Red. masses --      5.9769                 5.9766                 5.8991
 Frc consts  --      8.8632                 8.8628                 8.7682
 IR Inten    --      0.0069                10.6963               194.4499

                    106                    107                    108
                      A                      A                      A
 Frequencies --   1594.9722              1607.6567              1608.0264
 Red. masses --      6.0068                 7.5376                 6.3840
 Frc consts  --      9.0032                11.4781                 9.7259
 IR Inten    --      0.0000                 0.0000                25.4915

                    109                    110                    111
                      A                      A                      A
 Frequencies --   3123.9549              3123.9593              3126.1050
 Red. masses --      1.0853                 1.0853                 1.0853
 Frc consts  --      6.2406                 6.2406                 6.2492
 IR Inten    --      1.3219                 0.0145                 0.0000

                    112                    113                    114
                      A                      A                      A
 Frequencies --   3126.3478              3131.1704              3131.1724
 Red. masses --      1.0856                 1.0878                 1.0878
 Frc consts  --      6.2514                 6.2838                 6.2838
 IR Inten    --      5.5757                 0.2410                12.4354

                    115                    116                    117
                      A                      A                      A
 Frequencies --   3139.2872              3139.2925              3140.9430
 Red. masses --      1.0914                 1.0914                 1.0922
 Frc consts  --      6.3373                 6.3373                 6.3484
 IR Inten    --     61.6597                 0.7523                92.4568

                    118                    119                    120
                      A                      A                      A
 Frequencies --   3141.0608              3145.4810              3145.4969
 Red. masses --      1.0922                 1.0947                 1.0947
 Frc consts  --      6.3488                 6.3812                 6.3813
 IR Inten    --      0.0010                 0.0392                66.1275

                    121                    122                    123
                      A                      A                      A
 Frequencies --   3151.0918              3151.1205              3158.6590
 Red. masses --      1.0980                 1.0980                 1.0905
 Frc consts  --      6.4233                 6.4235                 6.4102
 IR Inten    --     20.9208                 0.0047                 0.0002

                    124                    125                    126
                      A                      A                      A
 Frequencies --   3159.2040              3161.6192              3162.1485
 Red. masses --      1.0906                 1.0930                 1.0930
 Frc consts  --      6.4133                 6.4371                 6.4390
 IR Inten    --     39.2491                 5.6079                 0.0000

 - Thermochemistry -
 -------------------
 Temperature   298.150 Kelvin.  Pressure   1.00000 Atm.
 Atom     1 has atomic number  6 and mass  12.00000

 Molecular mass:   334.14700 amu.
 Principal axes and moments of inertia in atomic units:
                           1         2         3
     Eigenvalues --  4606.31302********************
           X            1.00000  -0.00001   0.00000
           Y            0.00001   1.00000   0.00004
           Z           -0.00000  -0.00004   1.00000
 This molecule is an asymmetric top.
 Rotational symmetry number  1.
 Warning -- assumption of classical behavior for rotation
           may cause significant error
 Rotational temperatures (Kelvin)      0.01880     0.00723     0.00566
 Rotational constants (GHZ):           0.39180     0.15073     0.11789
 Zero-point vibrational energy     907249.8 (Joules/Mol)
                                  216.83791 (Kcal/Mol)
 Warning -- explicit consideration of  30 degrees of freedom as
           vibrations may cause significant error
 Vibrational temperatures:     25.38    49.50    57.99    59.59    64.52
          (Kelvin)             75.67   102.19   163.25   237.80   294.52
                              299.17   348.97   362.48   373.21   379.55
                              574.86   580.28   582.01   587.75   588.11
                              608.80   634.52   640.46   689.69   711.73
                              757.38   786.29   795.68   888.82   889.94
                              893.87   894.30   904.71   930.93   986.60
                              999.98  1001.92  1002.70  1014.89  1028.94
                             1035.33  1074.01  1085.50  1118.13  1171.49
                             1175.38  1198.08  1198.12  1265.20  1265.35
                             1282.09  1292.02  1293.15  1302.29  1304.74
                             1348.49  1353.91  1355.49  1372.84  1372.84
                             1405.06  1405.16  1443.61  1443.69  1476.92
                             1477.47  1511.10  1527.90  1545.27  1545.32
                             1577.68  1613.16  1656.28  1656.28  1656.93
                             1660.23  1669.75  1670.56  1689.44  1718.93
                             1764.15  1816.42  1838.98  1870.59  1875.49
                             1876.64  1876.72  1915.80  1915.81  1921.31
                             1947.50  1968.53  2068.85  2083.49  2083.51
                             2091.97  2122.22  2145.93  2147.78  2174.82
                             2234.14  2262.83  2282.58  2282.59  2285.23
                             2294.81  2313.06  2313.59  4494.67  4494.68
                             4497.76  4498.11  4505.05  4505.05  4516.73
                             4516.74  4519.11  4519.28  4525.64  4525.66
                             4533.71  4533.75  4544.60  4545.38  4548.86
                             4549.62

 Zero-point correction=                           0.345553 (Hartree/Particle)
 Thermal correction to Energy=                    0.365664
 Thermal correction to Enthalpy=                  0.366608
 Thermal correction to Gibbs Free Energy=         0.294577
 Sum of electronic and zero-point Energies=          -1034.259987
 Sum of electronic and thermal Energies=             -1034.239876
 Sum of electronic and thermal Enthalpies=           -1034.238932
 Sum of electronic and thermal Free Energies=        -1034.310963

                     E (Thermal)             CV                S
                      KCal/Mol        Cal/Mol-Kelvin    Cal/Mol-Kelvin
 Total                  229.458             82.577            151.602
 Electronic               0.000              0.000              0.000
 Translational            0.889              2.981             43.314
 Rotational               0.889              2.981             35.089
 Vibrational            227.680             76.616             73.198
 Vibration     1          0.593              1.986              6.883
 Vibration     2          0.594              1.983              5.558
 Vibration     3          0.594              1.981              5.244
 Vibration     4          0.594              1.981              5.190
 Vibration     5          0.595              1.979              5.033
 Vibration     6          0.596              1.977              4.717
 Vibration     7          0.598              1.968              4.125
 Vibration     8          0.607              1.938              3.209
 Vibration     9          0.624              1.885              2.489
 Vibration    10          0.640              1.833              2.090
 Vibration    11          0.641              1.829              2.062
 Vibration    12          0.659              1.775              1.784
 Vibration    13          0.664              1.760              1.717
 Vibration    14          0.668              1.747              1.666
 Vibration    15          0.670              1.739              1.636
 Vibration    16          0.766              1.471              0.964
 Vibration    17          0.769              1.463              0.951
 Vibration    18          0.770              1.460              0.946
 Vibration    19          0.773              1.452              0.932
 Vibration    20          0.773              1.451              0.931
 Vibration    21          0.785              1.420              0.881
 Vibration    22          0.801              1.381              0.823
 Vibration    23          0.805              1.372              0.811
 Vibration    24          0.836              1.296              0.712
 Vibration    25          0.850              1.262              0.672
 Vibration    26          0.881              1.192              0.595
 Vibration    27          0.902              1.147              0.551
 Vibration    28          0.908              1.133              0.538
 Vibration    29          0.978              0.994              0.420
 Vibration    30          0.978              0.993              0.419

 Optimization completed.
    -- Stationary point found.
 Normal termination of Gaussian 09 at Mon Mar 29 22:18:40 2021.
 Gaussian 09:  ES64L-G09RevE.01 30-Nov-2015

 ----------------------------------------------------------------------
 #p B97D3 chkbasis geom=allcheck Guess=Read int=ultrafine scrf=(SMD,sol
 vent=n,n-DiMethylFormamide) td=(NStates=30)
 ----------------------------------------------------------------------

 Structure from the checkpoint file:  "cp.chk"
 -----
 Title
 -----
 Charge =  0 Multiplicity = 1

                         Standard orientation:
 ---------------------------------------------------------------------
 Center     Atomic      Atomic             Coordinates (Angstroms)
 Number     Number       Type             X           Y           Z
 ---------------------------------------------------------------------
      1          6           0        0.694151   -3.662299    0.000116
      2          6           0        1.389750   -2.444883    0.000095
      3          6           0        0.708996   -1.224403    0.000063
      4          6           0       -0.709004   -1.224398    0.000100
      5          6           0       -1.389772   -2.444868    0.000099
      6          6           0       -0.694187   -3.662292    0.000107
      7          6           0       -0.708995    1.224403   -0.000005
      8          6           0        0.709005    1.224398   -0.000093
      9          6           0        1.389771    2.444869   -0.000321
     10          1           0        2.474114    2.445125   -0.000427
     11          6           0        0.694186    3.662293   -0.000395
     12          6           0       -0.694152    3.662299   -0.000257
     13          6           0       -1.389750    2.444882   -0.000074
     14          1           0        2.474092   -2.445154    0.000103
     15          1           0       -2.474115   -2.445124    0.000111
     16          1           0       -1.251827   -4.595024    0.000110
     17          1           0        1.251826    4.595025   -0.000562
     18          1           0       -1.251784    4.595036   -0.000296
     19          7           0        1.395688   -0.000005    0.000046
     20          6           0       -2.828305    0.000006    0.000086
     21          6           0       -3.520659   -0.000026    1.211951
     22          6           0       -3.520520    0.000035   -1.211861
     23          6           0       -4.916159   -0.000026    1.210203
     24          6           0       -4.916018    0.000039   -1.210275
     25          6           0       -5.614247    0.000008   -0.000076
     26          1           0       -5.457674   -0.000050    2.152664
     27          1           0       -5.457424    0.000063   -2.152798
     28          1           0       -2.961357   -0.000049    2.143606
     29          1           0       -2.961112    0.000058   -2.143453
     30          1           0       -6.701283    0.000009   -0.000139
     31          1           0        1.251781   -4.595037    0.000143
     32          7           0       -1.395688    0.000005    0.000175
     33          6           0        2.828305   -0.000006    0.000049
     34          6           0        3.520578    0.000397    1.211962
     35          6           0        3.520601   -0.000406   -1.211850
     36          6           0        4.916077    0.000401    1.210308
     37          1           0        2.961213    0.000703    2.143579
     38          6           0        4.916100   -0.000414   -1.210169
     39          1           0        2.961256   -0.000711   -2.143479
     40          6           0        5.614248   -0.000008    0.000076
     41          1           0        5.457530    0.000715    2.152805
     42          1           0        5.457570   -0.000729   -2.152656
     43          1           0        6.701283   -0.000009    0.000087
     44          1           0       -2.474092    2.445151    0.000019
 ---------------------------------------------------------------------

 SCF Done:  E(RB97D3) =  -1034.60553989     A.U. after    1 cycles

 Excitation energies and oscillator strengths:

 Excited State   1:      Singlet-A      2.4568 eV  504.67 nm  f=0.0000  <S**2>=0.000
      88 -> 89         0.69658
      88 -> 93         0.11796
 This state for optimization and/or second-order correction.
 Total Energy, E(TD-HF/TD-KS) =  -1034.51525587
 Copying the excited state density for this state as the 1-particle RhoCI density.

 Excited State   2:      Singlet-A      2.5058 eV  494.80 nm  f=0.0000  <S**2>=0.000
      88 -> 91         0.70710

 Excited State   3:      Singlet-A      2.5120 eV  493.57 nm  f=0.0211  <S**2>=0.000
      88 -> 90         0.69609
      88 -> 94        -0.11787

 Excited State   4:      Singlet-A      2.5381 eV  488.49 nm  f=0.0000  <S**2>=0.000
      88 -> 92         0.70710

 Excited State   5:      Singlet-A      2.9326 eV  422.77 nm  f=0.0000  <S**2>=0.000
      88 -> 89        -0.11569
      88 -> 93         0.69562

 Excited State   6:      Singlet-A      3.3342 eV  371.86 nm  f=0.1830  <S**2>=0.000
      87 -> 89        -0.20465
      88 -> 90         0.10016
      88 -> 94         0.66390

 Excited State   7:      Singlet-A      3.5178 eV  352.45 nm  f=0.0000  <S**2>=0.000
      88 -> 95         0.68971

 Excited State   8:      Singlet-A      4.0364 eV  307.16 nm  f=0.0000  <S**2>=0.000
      87 -> 91         0.70711

 Excited State   9:      Singlet-A      4.0409 eV  306.83 nm  f=0.0000  <S**2>=0.000
      87 -> 90         0.69433
      87 -> 94        -0.12432

 Excited State  10:      Singlet-A      4.0701 eV  304.62 nm  f=0.0000  <S**2>=0.000
      87 -> 92         0.70710

 Excited State  11:      Singlet-A      4.1255 eV  300.53 nm  f=0.1866  <S**2>=0.000
      87 -> 89         0.59381
      87 -> 93         0.35579
      88 -> 94         0.13305

 Excited State  12:      Singlet-A      4.2776 eV  289.84 nm  f=0.1074  <S**2>=0.000
      85 -> 89        -0.20843
      85 -> 93         0.11301
      88 -> 96         0.65300

 Excited State  13:      Singlet-A      4.6427 eV  267.05 nm  f=0.8232  <S**2>=0.000
      87 -> 89        -0.31351
      87 -> 93         0.60004
      88 -> 94        -0.15384

 Excited State  14:      Singlet-A      4.7167 eV  262.86 nm  f=0.0025  <S**2>=0.000
      88 -> 97         0.70487

 Excited State  15:      Singlet-A      4.7953 eV  258.55 nm  f=0.0416  <S**2>=0.000
      82 -> 89        -0.13082
      85 -> 89        -0.15752
      86 -> 90         0.54824
      87 -> 95        -0.38196

 Excited State  16:      Singlet-A      4.8114 eV  257.69 nm  f=0.0000  <S**2>=0.000
      82 -> 90        -0.21371
      86 -> 89         0.65485

 Excited State  17:      Singlet-A      4.8438 eV  255.97 nm  f=0.0005  <S**2>=0.000
      84 -> 89         0.16595
      85 -> 92         0.10954
      86 -> 91         0.66618

 Excited State  18:      Singlet-A      4.8699 eV  254.59 nm  f=0.0000  <S**2>=0.000
      81 -> 95         0.10224
      86 -> 95        -0.22335
      87 -> 94         0.65164

 Excited State  19:      Singlet-A      4.8720 eV  254.48 nm  f=0.0000  <S**2>=0.000
      83 -> 89        -0.14189
      85 -> 91         0.18670
      86 -> 92         0.65477

 Excited State  20:      Singlet-A      4.9106 eV  252.48 nm  f=0.0005  <S**2>=0.000
      83 -> 90        -0.30818
      84 -> 89         0.61116
      85 -> 92        -0.13133

 Excited State  21:      Singlet-A      4.9176 eV  252.12 nm  f=0.0000  <S**2>=0.000
      83 -> 89         0.59061
      84 -> 90        -0.31007
      85 -> 91         0.23053

 Excited State  22:      Singlet-A      4.9252 eV  251.73 nm  f=0.0067  <S**2>=0.000
      81 -> 90         0.13004
      82 -> 89        -0.20921
      85 -> 89        -0.36568
      85 -> 93        -0.10891
      86 -> 90         0.19704
      86 -> 94        -0.16542
      87 -> 95         0.46114

 Excited State  23:      Singlet-A      4.9292 eV  251.53 nm  f=0.0000  <S**2>=0.000
      81 -> 89        -0.15036
      85 -> 90         0.66491
      86 -> 93        -0.14798

 Excited State  24:      Singlet-A      4.9442 eV  250.77 nm  f=0.0000  <S**2>=0.000
      84 -> 90         0.27268
      85 -> 91         0.59062
      86 -> 92        -0.13305
      88 -> 99        -0.20066

 Excited State  25:      Singlet-A      4.9566 eV  250.14 nm  f=0.0000  <S**2>=0.000
      85 -> 91         0.17799
      88 -> 99         0.67640

 Excited State  26:      Singlet-A      4.9634 eV  249.80 nm  f=0.0020  <S**2>=0.000
      85 -> 92        -0.39758
      88 -> 98         0.57162

 Excited State  27:      Singlet-A      4.9742 eV  249.25 nm  f=0.0002  <S**2>=0.000
      83 -> 90        -0.20340
      85 -> 92         0.52608
      88 -> 98         0.40950

 Excited State  28:      Singlet-A      5.0252 eV  246.73 nm  f=0.0000  <S**2>=0.000
      83 -> 92         0.48706
      84 -> 91         0.51235

 Excited State  29:      Singlet-A      5.0255 eV  246.71 nm  f=0.0000  <S**2>=0.000
      83 -> 91         0.50258
      84 -> 92         0.49725

 Excited State  30:      Singlet-A      5.0421 eV  245.90 nm  f=0.1653  <S**2>=0.000
      82 -> 89        -0.22070
      82 -> 93        -0.16320
      85 -> 89         0.43495
      85 -> 93         0.31671
      86 -> 90         0.23087
      86 -> 94        -0.15796
      87 -> 95         0.19266
      88 -> 96         0.10322

 The electronic state is 1-A.
 Alpha  occ. eigenvalues --  -14.03302 -14.03300  -9.94800  -9.94799  -9.94770
 Alpha  occ. eigenvalues --   -9.94770  -9.94314  -9.94313  -9.90699  -9.90699
 Alpha  occ. eigenvalues --   -9.90698  -9.90698  -9.90661  -9.90661  -9.90653
 Alpha  occ. eigenvalues --   -9.90653  -9.90588  -9.90588  -9.89509  -9.89509
 Alpha  occ. eigenvalues --   -9.89508  -9.89508  -9.89272  -9.89272  -9.89233
 Alpha  occ. eigenvalues --   -9.89233  -0.91477  -0.87821  -0.78742  -0.78531
 Alpha  occ. eigenvalues --   -0.77777  -0.75428  -0.69958  -0.69079  -0.68606
 Alpha  occ. eigenvalues --   -0.68249  -0.68247  -0.67744  -0.65570  -0.62918
 Alpha  occ. eigenvalues --   -0.58668  -0.57840  -0.55374  -0.55356  -0.55319
 Alpha  occ. eigenvalues --   -0.53805  -0.52098  -0.50984  -0.50155  -0.48087
 Alpha  occ. eigenvalues --   -0.47999  -0.44550  -0.43793  -0.43162  -0.42374
 Alpha  occ. eigenvalues --   -0.41623  -0.41312  -0.41222  -0.39828  -0.38865
 Alpha  occ. eigenvalues --   -0.38552  -0.38180  -0.37923  -0.37838  -0.37644
 Alpha  occ. eigenvalues --   -0.37176  -0.37133  -0.33443  -0.33064  -0.32813
 Alpha  occ. eigenvalues --   -0.32703  -0.32330  -0.31838  -0.31794  -0.30783
 Alpha  occ. eigenvalues --   -0.30737  -0.30608  -0.29487  -0.28949  -0.27854
 Alpha  occ. eigenvalues --   -0.23871  -0.23432  -0.23119  -0.23053  -0.22777
 Alpha  occ. eigenvalues --   -0.22381  -0.19514  -0.13886
 Alpha virt. eigenvalues --   -0.05103  -0.04856  -0.04678  -0.04559  -0.03474
 Alpha virt. eigenvalues --   -0.02600  -0.02363   0.00599   0.03447   0.04309
 Alpha virt. eigenvalues --    0.04314   0.05652   0.06035   0.06378   0.07194

 Mulliken charges:
               1
     1  C   -0.192272
     2  C   -0.200729
     3  C    0.051027
     4  C    0.051032
     5  C   -0.200729
     6  C   -0.192272
     7  C    0.051028
     8  C    0.051031
     9  C   -0.200729
    10  H    0.138706
    11  C   -0.192272
    12  C   -0.192272
    13  C   -0.200729
    14  H    0.138706
    15  H    0.138706
    16  H    0.125448
    17  H    0.125448
    18  H    0.125448
    19  N    0.117267
    20  C    0.141596
    21  C   -0.222630
    22  C   -0.222675
    23  C   -0.105082
    24  C   -0.105077
    25  C   -0.107064
    26  H    0.134007
    27  H    0.134008
    28  H    0.127445
    29  H    0.127447
    30  H    0.136393
    31  H    0.125448
    32  N    0.117267
    33  C    0.141596
    34  C   -0.222651
    35  C   -0.222654
    36  C   -0.105079
    37  H    0.127447
    38  C   -0.105080
    39  H    0.127446
    40  C   -0.107064
    41  H    0.134007
    42  H    0.134008
    43  H    0.136393
    44  H    0.138706
 Sum of Mulliken charges =  -0.00000

 Dipole moment (field-independent basis, Debye):
    X=             -0.0000    Y=             -0.0000    Z=             -0.0001  Tot=              0.0001
 Quadrupole moment (field-independent basis, Debye-Ang):
   XX=           -112.6734   YY=           -156.7809   ZZ=           -144.2920
   XY=             -0.0001   XZ=             -0.0005   YZ=              0.0025

 Normal termination of Gaussian 09 at Mon Mar 29 23:59:42 2021.
