 Gaussian 09, Revision E.01,

 ----------------------------------------------------------------------
 #p m06l/def2TZVP opt freq=noraman nosymm int=ultrafine scrf=(SMD,solve
 nt=n,n-DiMethylAcetamide)
 ----------------------------------------------------------------------

 -----
 Title
 -----
 Symbolic Z-matrix:
 Charge =  0 Multiplicity = 1

 SCF Done:  E(RM06L) =  -1162.91700555     A.U. after   16 cycles
 SCF Done:  E(RM06L) =  -1162.91980466     A.U. after   13 cycles
 SCF Done:  E(RM06L) =  -1162.91995122     A.U. after   12 cycles
 SCF Done:  E(RM06L) =  -1162.92015416     A.U. after   12 cycles
 SCF Done:  E(RM06L) =  -1162.92020994     A.U. after   12 cycles
 SCF Done:  E(RM06L) =  -1162.92021766     A.U. after   10 cycles
 SCF Done:  E(RM06L) =  -1162.92021946     A.U. after   10 cycles
 SCF Done:  E(RM06L) =  -1162.92021976     A.U. after    8 cycles
 Optimization completed.
    -- Stationary point found.
 Normal termination of Gaussian 09 at Wed Feb 17 12:48:39 2021.

 -------------------------------------------------------------------
 #P Geom=AllCheck Guess=TCheck SCRF=Check GenChk RM06L/def2TZVP Freq
 -------------------------------------------------------------------

 Structure from the checkpoint file:  "cp.chk"
 -----
 Title
 -----
 Charge =  0 Multiplicity = 1

 SCF Done:  E(RM06L) =  -1162.92021976     A.U. after    1 cycles

  Exact polarizability: 387.238   3.755 419.411 -28.783  -2.133 245.551
 Approx polarizability: 475.067   6.317 512.759 -54.020  -4.541 314.341

                      1                      2                      3
                      A                      A                      A
 Frequencies --     45.5001                52.0990                68.3428
 Red. masses --      5.1591                 4.9840                 5.9716
 Frc consts  --      0.0063                 0.0080                 0.0164
 IR Inten    --      0.9279                 4.8197                 1.8566

                      4                      5                      6
                      A                      A                      A
 Frequencies --     83.9412               149.5749               159.6300
 Red. masses --      4.6699                 4.3247                 4.3332
 Frc consts  --      0.0194                 0.0570                 0.0651
 IR Inten    --      0.6866                 2.6062                 1.0113

                      7                      8                      9
                      A                      A                      A
 Frequencies --    178.4678               225.1334               257.2157
 Red. masses --      5.7696                 6.0423                 5.2787
 Frc consts  --      0.1083                 0.1804                 0.2058
 IR Inten    --      1.2179                 5.4183                 2.3465

                     10                     11                     12
                      A                      A                      A
 Frequencies --    320.2237               324.8857               355.8613
 Red. masses --      5.7456                 5.3577                 6.7905
 Frc consts  --      0.3471                 0.3332                 0.5067
 IR Inten    --      6.4256                 5.2453                 5.0803

                     13                     14                     15
                      A                      A                      A
 Frequencies --    384.7966               397.9427               419.2852
 Red. masses --      9.0741                 5.1758                 3.6230
 Frc consts  --      0.7916                 0.4829                 0.3753
 IR Inten    --      1.6272                 4.0980                 6.8257

                     16                     17                     18
                      A                      A                      A
 Frequencies --    450.0298               458.9573               474.3821
 Red. masses --      9.6301                 3.5184                 3.7376
 Frc consts  --      1.1491                 0.4367                 0.4956
 IR Inten    --      1.9089                 0.7567                28.4107

                     19                     20                     21
                      A                      A                      A
 Frequencies --    513.3652               537.7540               542.0780
 Red. masses --      3.0864                 5.3422                 4.1765
 Frc consts  --      0.4792                 0.9102                 0.7231
 IR Inten    --      3.4136                 4.5329                 1.2400

                     22                     23                     24
                      A                      A                      A
 Frequencies --    572.8505               624.9421               641.3197
 Red. masses --      4.4014                 6.8003                 6.6596
 Frc consts  --      0.8510                 1.5648                 1.6138
 IR Inten    --      4.5707                16.7676                10.1564

                     25                     26                     27
                      A                      A                      A
 Frequencies --    653.2622               693.7106               707.1234
 Red. masses --      5.8272                 6.5249                 6.4448
 Frc consts  --      1.4652                 1.8500                 1.8987
 IR Inten    --     27.7340                 6.3626                 9.0846

                     28                     29                     30
                      A                      A                      A
 Frequencies --    752.4019               753.1952               759.9540
 Red. masses --      3.4622                 3.3861                 1.7991
 Frc consts  --      1.1548                 1.1318                 0.6122
 IR Inten    --     18.0065                10.7188                41.3755

                     31                     32                     33
                      A                      A                      A
 Frequencies --    765.6999               768.5744               778.4503
 Red. masses --      2.3695                 1.4080                 1.9391
 Frc consts  --      0.8185                 0.4900                 0.6923
 IR Inten    --     87.0148                31.5593                41.7521

                     34                     35                     36
                      A                      A                      A
 Frequencies --    789.4118               880.7632               882.4493
 Red. masses --      2.7742                 1.3762                 1.3675
 Frc consts  --      1.0186                 0.6290                 0.6274
 IR Inten    --     86.3135                 2.9866                 4.9809

                     37                     38                     39
                      A                      A                      A
 Frequencies --    886.7589               937.2002               957.9472
 Red. masses --      1.3499                 5.8041                 2.5688
 Frc consts  --      0.6254                 3.0037                 1.3889
 IR Inten    --      0.9843                 0.2403                 1.5291

                     40                     41                     42
                      A                      A                      A
 Frequencies --    969.9591               975.6526               984.7259
 Red. masses --      1.5105                 1.8061                 1.3998
 Frc consts  --      0.8373                 1.0129                 0.7998
 IR Inten    --      0.4286                 3.5589                 0.4981

                     43                     44                     45
                      A                      A                      A
 Frequencies --   1000.5258              1003.9984              1006.3019
 Red. masses --      6.3384                 1.2943                 1.2947
 Frc consts  --      3.7384                 0.7687                 0.7724
 IR Inten    --     32.4375                 0.0939                 0.2696

                     46                     47                     48
                      A                      A                      A
 Frequencies --   1016.7074              1056.5159              1059.5972
 Red. masses --      1.3043                 3.6242                 2.5434
 Frc consts  --      0.7944                 2.3835                 1.6825
 IR Inten    --      0.2443                50.9043                 9.3432

                     49                     50                     51
                      A                      A                      A
 Frequencies --   1077.0096              1077.8314              1094.6329
 Red. masses --      2.4787                 2.4048                 3.4131
 Frc consts  --      1.6940                 1.6460                 2.4096
 IR Inten    --      3.4152                 5.9102                27.7938

                     52                     53                     54
                      A                      A                      A
 Frequencies --   1126.5162              1143.1355              1151.5008
 Red. masses --      1.4500                 1.6104                 1.5265
 Frc consts  --      1.0842                 1.2399                 1.1926
 IR Inten    --      1.9457                35.1914                 4.3898

                     55                     56                     57
                      A                      A                      A
 Frequencies --   1172.0243              1172.9757              1178.1217
 Red. masses --      1.0839                 1.0824                 1.1237
 Frc consts  --      0.8772                 0.8774                 0.9189
 IR Inten    --      0.2655                 0.0494                24.4665

                     58                     59                     60
                      A                      A                      A
 Frequencies --   1225.1693              1253.7112              1283.7620
 Red. masses --      2.9193                 1.9473                 1.6576
 Frc consts  --      2.5818                 1.8034                 1.6095
 IR Inten    --     11.8338                71.9381               200.2645

                     61                     62                     63
                      A                      A                      A
 Frequencies --   1294.7826              1338.3337              1342.2011
 Red. masses --      1.8250                 3.0684                 6.1699
 Frc consts  --      1.8026                 3.2381                 6.5489
 IR Inten    --     52.2189               282.0916               301.2601

                     64                     65                     66
                      A                      A                      A
 Frequencies --   1350.1073              1361.5993              1367.4955
 Red. masses --      2.6262                 5.8808                 8.8250
 Frc consts  --      2.8205                 6.4238                 9.7234
 IR Inten    --     82.6818                 1.2439                73.3079

                     67                     68                     69
                      A                      A                      A
 Frequencies --   1456.2386              1468.9389              1477.5250
 Red. masses --      2.2476                 2.2436                 2.4833
 Frc consts  --      2.8082                 2.8523                 3.1941
 IR Inten    --    331.6075               121.5370                24.0010

                     70                     71                     72
                      A                      A                      A
 Frequencies --   1490.8628              1500.2723              1513.3224
 Red. masses --      2.5729                 2.3853                 2.6894
 Frc consts  --      3.3694                 3.1633                 3.6288
 IR Inten    --    235.4011               252.9008                86.1072

                     73                     74                     75
                      A                      A                      A
 Frequencies --   1604.8081              1615.3766              1622.1029
 Red. masses --      5.8425                 6.3339                 6.0211
 Frc consts  --      8.8653                 9.7379                 9.3343
 IR Inten    --     85.4483                15.1057                 2.7045

                     76                     77                     78
                      A                      A                      A
 Frequencies --   1623.8218              1629.3896              1645.6244
 Red. masses --      6.9480                 5.6215                 6.1772
 Frc consts  --     10.7941                 8.7933                 9.8561
 IR Inten    --     11.7894               299.6867               122.0094

                     79                     80                     81
                      A                      A                      A
 Frequencies --   3148.2995              3186.9696              3187.1716
 Red. masses --      1.0896                 1.0856                 1.0856
 Frc consts  --      6.3633                 6.4967                 6.4970
 IR Inten    --     51.4310                 0.0625                 1.5146

                     82                     83                     84
                      A                      A                      A
 Frequencies --   3188.9165              3193.3375              3195.2867
 Red. masses --      1.0891                 1.0893                 1.0907
 Frc consts  --      6.5254                 6.5448                 6.5610
 IR Inten    --     11.8915                 4.1050                10.3515

                     85                     86                     87
                      A                      A                      A
 Frequencies --   3201.7346              3207.7208              3211.6583
 Red. masses --      1.0939                 1.0962                 1.0984
 Frc consts  --      6.6067                 6.6459                 6.6754
 IR Inten    --     19.1198                25.9187                16.0547

                     88                     89                     90
                      A                      A                      A
 Frequencies --   3217.8985              3223.2286              3227.1659
 Red. masses --      1.0951                 1.0943                 1.0934
 Frc consts  --      6.6812                 6.6981                 6.7091
 IR Inten    --     17.1494                 4.9893                 3.4256

 - Thermochemistry -
 -------------------
 Temperature   298.150 Kelvin.  Pressure   1.00000 Atm.
 Atom     1 has atomic number  6 and mass  12.00000

 Molecular mass:   276.07212 amu.
 Principal axes and moments of inertia in atomic units:
                           1         2         3
     Eigenvalues --  4626.777575211.839918458.99248
           X            0.99824  -0.05918  -0.00465
           Y            0.05916   0.99824  -0.00520
           Z            0.00495   0.00491   0.99998
 This molecule is an asymmetric top.
 Rotational symmetry number  1.
 Warning -- assumption of classical behavior for rotation
           may cause significant error
 Rotational temperatures (Kelvin)      0.01872     0.01662     0.01024
 Rotational constants (GHZ):           0.39006     0.34628     0.21335
 Zero-point vibrational energy     647945.6 (Joules/Mol)
                                  154.86272 (Kcal/Mol)
 Warning -- explicit consideration of  22 degrees of freedom as
           vibrations may cause significant error
 Vibrational temperatures:     65.46    74.96    98.33   120.77   215.20
          (Kelvin)            229.67   256.77   323.92   370.08   460.73
                              467.44   512.00   553.64   572.55   603.26
                              647.49   660.34   682.53   738.62   773.71
                              779.93   824.20   899.15   922.71   939.90
                              998.09  1017.39  1082.54  1083.68  1093.40
                             1101.67  1105.81  1120.01  1135.79  1267.22
                             1269.65  1275.85  1348.42  1378.27  1395.55
                             1403.74  1416.80  1439.53  1444.53  1447.84
                             1462.81  1520.09  1524.52  1549.57  1550.76
                             1574.93  1620.80  1644.71  1656.75  1686.28
                             1687.65  1695.05  1762.74  1803.81  1847.04
                             1862.90  1925.56  1931.13  1942.50  1959.04
                             1967.52  2095.20  2113.47  2125.83  2145.02
                             2158.55  2177.33  2308.96  2324.16  2333.84
                             2336.31  2344.33  2367.68  4529.70  4585.33
                             4585.62  4588.13  4594.49  4597.30  4606.58
                             4615.19  4620.85  4629.83  4637.50  4643.17

 Zero-point correction=                           0.246789 (Hartree/Particle)
 Thermal correction to Energy=                    0.261533
 Thermal correction to Enthalpy=                  0.262478
 Thermal correction to Gibbs Free Energy=         0.204381
 Sum of electronic and zero-point Energies=          -1162.673430
 Sum of electronic and thermal Energies=             -1162.658686
 Sum of electronic and thermal Enthalpies=           -1162.657742
 Sum of electronic and thermal Free Energies=        -1162.715839

                     E (Thermal)             CV                S
                      KCal/Mol        Cal/Mol-Kelvin    Cal/Mol-Kelvin
 Total                  164.115             60.512            122.275
 Electronic               0.000              0.000              0.000
 Translational            0.889              2.981             42.745
 Rotational               0.889              2.981             33.678
 Vibrational            162.337             54.550             45.852
 Vibration     1          0.595              1.979              5.004
 Vibration     2          0.596              1.977              4.736
 Vibration     3          0.598              1.969              4.201
 Vibration     4          0.601              1.960              3.797
 Vibration     5          0.618              1.903              2.678
 Vibration     6          0.621              1.892              2.554
 Vibration     7          0.629              1.869              2.344
 Vibration     8          0.650              1.803              1.917
 Vibration     9          0.667              1.751              1.681
 Vibration    10          0.706              1.635              1.309
 Vibration    11          0.709              1.626              1.285
 Vibration    12          0.731              1.563              1.140
 Vibration    13          0.754              1.503              1.020
 Vibration    14          0.764              1.475              0.970
 Vibration    15          0.782              1.428              0.894
 Vibration    16          0.809              1.361              0.796
 Vibration    17          0.817              1.341              0.769
 Vibration    18          0.831              1.307              0.725
 Vibration    19          0.868              1.220              0.626
 Vibration    20          0.893              1.167              0.570
 Vibration    21          0.897              1.157              0.561
 Vibration    22          0.929              1.090              0.499

 Normal termination of Gaussian 09 at Wed Feb 17 14:33:03 2021.
 Gaussian 09:  ES64L-G09RevE.01 30-Nov-2015

 ----------------------------------------------------------------------
 #p m06l chkbasis geom=allcheck Guess=Read int=ultrafine scrf=(SMD,solv
 ent=n,n-DiMethylAcetamide) td=(NStates=30)
 ----------------------------------------------------------------------

 Structure from the checkpoint file:  "cp.chk"
 -----
 Title
 -----
 Charge =  0 Multiplicity = 1

                         Standard orientation:
 ---------------------------------------------------------------------
 Center     Atomic      Atomic             Coordinates (Angstroms)
 Number     Number       Type             X           Y           Z
 ---------------------------------------------------------------------
      1          6           0        1.784982    3.615793    0.391446
      2          6           0        2.203792    2.587699   -0.435406
      3          6           0        1.494300    1.391476   -0.466021
      4          6           0        0.364625    1.220044    0.336159
      5          6           0       -0.012867    2.238911    1.204920
      6          6           0        0.685450    3.434605    1.220255
      7          6           0        0.475146   -1.180956    0.356873
      8          6           0        1.615881   -1.274535   -0.442203
      9          6           0        2.422133   -2.406280   -0.381840
     10          1           0        3.306852   -2.465620   -1.003080
     11          6           0        2.088956   -3.446279    0.469491
     12          6           0        0.975567   -3.340840    1.292864
     13          6           0        0.182714   -2.206590    1.249852
     14          1           0        3.080479    2.704766   -1.059848
     15          1           0       -0.864975    2.091137    1.852304
     16          1           0        0.371889    4.226414    1.888250
     17          1           0        2.712479   -4.330166    0.504517
     18          1           0        0.728008   -4.140223    1.979058
     19          6           0       -1.698370   -0.082933   -0.006691
     20          6           0       -2.330901   -1.303528   -0.295889
     21          6           0       -3.679211   -1.293921   -0.575970
     22          6           0       -3.665563    1.054311   -0.302064
     23          6           0       -4.381793   -0.094289   -0.572457
     24          1           0       -4.180738   -2.225715   -0.807006
     25          1           0       -4.157113    2.023216   -0.306788
     26          1           0       -1.777482   -2.229935   -0.323121
     27          1           0       -5.441182   -0.053187   -0.783059
     28          1           0        2.331726    4.549808    0.404526
     29          7           0       -0.331406   -0.017306    0.267055
     30          1           0       -0.681814   -2.114325    1.894808
     31         16           0        2.017488    0.068663   -1.511892
     32          7           0       -2.362449    1.072892   -0.025656
 ---------------------------------------------------------------------

 SCF Done:  E(RM06L) =  -1162.92022816     A.U. after    8 cycles

 Excitation energies and oscillator strengths:

 Excited State   1:      Singlet-A      3.7090 eV  334.28 nm  f=0.0249  <S**2>=0.000
      72 -> 73         0.64651
      72 -> 74         0.24239
 This state for optimization and/or second-order correction.
 Total Energy, E(TD-HF/TD-KS) =  -1162.78392572
 Copying the excited state density for this state as the 1-particle RhoCI density.

 Excited State   2:      Singlet-A      3.7662 eV  329.20 nm  f=0.1113  <S**2>=0.000
      72 -> 73        -0.22211
      72 -> 74         0.63333
      72 -> 75         0.13060
      72 -> 76         0.13928

 Excited State   3:      Singlet-A      3.8371 eV  323.12 nm  f=0.0103  <S**2>=0.000
      72 -> 75         0.68058
      72 -> 76        -0.13647

 Excited State   4:      Singlet-A      4.0610 eV  305.30 nm  f=0.1338  <S**2>=0.000
      71 -> 73        -0.11515
      72 -> 73         0.10732
      72 -> 74        -0.13459
      72 -> 75         0.10107
      72 -> 76         0.64544

 Excited State   5:      Singlet-A      4.2039 eV  294.93 nm  f=0.0351  <S**2>=0.000
      71 -> 73        -0.23000
      71 -> 75        -0.11366
      72 -> 77         0.64666

 Excited State   6:      Singlet-A      4.3455 eV  285.32 nm  f=0.0131  <S**2>=0.000
      71 -> 73         0.63347
      72 -> 76         0.13122
      72 -> 77         0.19755

 Excited State   7:      Singlet-A      4.4007 eV  281.73 nm  f=0.0075  <S**2>=0.000
      71 -> 74         0.68031
      72 -> 78        -0.11913

 Excited State   8:      Singlet-A      4.6123 eV  268.81 nm  f=0.1919  <S**2>=0.000
      70 -> 73         0.10745
      70 -> 74        -0.10295
      71 -> 75         0.65543
      72 -> 77         0.11577

 Excited State   9:      Singlet-A      4.7474 eV  261.16 nm  f=0.0156  <S**2>=0.000
      70 -> 73        -0.22005
      70 -> 75         0.13315
      71 -> 76         0.54746
      71 -> 78         0.10240
      72 -> 78         0.29991

 Excited State  10:      Singlet-A      4.7897 eV  258.86 nm  f=0.0078  <S**2>=0.000
      70 -> 73         0.53615
      70 -> 74         0.40024
      71 -> 76         0.12514

 Excited State  11:      Singlet-A      4.8161 eV  257.44 nm  f=0.0505  <S**2>=0.000
      69 -> 74        -0.12221
      70 -> 73        -0.34417
      70 -> 74         0.44656
      71 -> 76        -0.22060
      71 -> 77         0.25126
      72 -> 78         0.16233

 Excited State  12:      Singlet-A      4.8898 eV  253.55 nm  f=0.0340  <S**2>=0.000
      70 -> 74        -0.14830
      70 -> 76         0.22601
      71 -> 76         0.11816
      71 -> 77         0.56252
      72 -> 78        -0.22547

 Excited State  13:      Singlet-A      4.9047 eV  252.78 nm  f=0.1210  <S**2>=0.000
      69 -> 75         0.13159
      70 -> 73         0.13218
      70 -> 74        -0.27978
      70 -> 75         0.11306
      71 -> 76        -0.24756
      71 -> 77         0.15054
      71 -> 78         0.15709
      72 -> 78         0.46892

 Excited State  14:      Singlet-A      4.9782 eV  249.05 nm  f=0.0091  <S**2>=0.000
      70 -> 75         0.64356
      71 -> 77        -0.11951

 Excited State  15:      Singlet-A      5.0942 eV  243.39 nm  f=0.0086  <S**2>=0.000
      69 -> 73        -0.30252
      70 -> 76         0.56508
      71 -> 77        -0.14203
      72 -> 79         0.14607

 Excited State  16:      Singlet-A      5.1281 eV  241.77 nm  f=0.0005  <S**2>=0.000
      69 -> 73         0.22122
      72 -> 79         0.66466

 Excited State  17:      Singlet-A      5.1837 eV  239.18 nm  f=0.0407  <S**2>=0.000
      69 -> 73         0.55860
      69 -> 74         0.19496
      70 -> 76         0.24648
      72 -> 79        -0.16436

 Excited State  18:      Singlet-A      5.3089 eV  233.54 nm  f=0.0249  <S**2>=0.000
      67 -> 73        -0.33817
      68 -> 75        -0.18385
      69 -> 73        -0.11621
      69 -> 74         0.40374
      70 -> 77        -0.37163

 Excited State  19:      Singlet-A      5.3197 eV  233.07 nm  f=0.0471  <S**2>=0.000
      67 -> 73         0.11736
      67 -> 76        -0.10403
      68 -> 74         0.17877
      68 -> 75        -0.14581
      69 -> 74         0.39189
      70 -> 76        -0.11250
      70 -> 77         0.47200

 Excited State  20:      Singlet-A      5.3449 eV  231.97 nm  f=0.0479  <S**2>=0.000
      68 -> 73         0.21002
      68 -> 74        -0.28383
      71 -> 78         0.57701
      72 -> 78        -0.12652

 Excited State  21:      Singlet-A      5.4027 eV  229.49 nm  f=0.0093  <S**2>=0.000
      67 -> 73         0.55721
      67 -> 74         0.12280
      68 -> 73         0.13517
      68 -> 74        -0.10734
      68 -> 75        -0.14929
      69 -> 74         0.11235
      70 -> 77        -0.23872
      71 -> 78        -0.11731

 Excited State  22:      Singlet-A      5.4666 eV  226.80 nm  f=0.0081  <S**2>=0.000
      66 -> 74        -0.11490
      67 -> 74         0.46919
      67 -> 76        -0.10615
      68 -> 73        -0.39732
      68 -> 74        -0.19967
      69 -> 76         0.14945

 Excited State  23:      Singlet-A      5.5071 eV  225.14 nm  f=0.0308  <S**2>=0.000
      66 -> 74         0.10235
      67 -> 74         0.22938
      67 -> 75        -0.27345
      67 -> 76        -0.11505
      68 -> 73         0.32212
      68 -> 75         0.16716
      69 -> 75         0.28189
      69 -> 76         0.25725
      71 -> 78        -0.15050

 Excited State  24:      Singlet-A      5.5782 eV  222.26 nm  f=0.0049  <S**2>=0.000
      66 -> 74         0.11208
      67 -> 75         0.34711
      68 -> 73         0.23464
      68 -> 75        -0.16305
      68 -> 76        -0.15803
      69 -> 75        -0.22056
      69 -> 76         0.25823
      69 -> 77        -0.30397

 Excited State  25:      Singlet-A      5.6241 eV  220.45 nm  f=0.0467  <S**2>=0.000
      67 -> 74        -0.16476
      67 -> 76        -0.26593
      68 -> 73        -0.10474
      68 -> 75         0.40289
      68 -> 76        -0.23815
      68 -> 77         0.13301
      69 -> 74         0.12357
      69 -> 76         0.20302
      70 -> 78        -0.24808

 Excited State  26:      Singlet-A      5.6535 eV  219.31 nm  f=0.0230  <S**2>=0.000
      67 -> 73         0.13605
      67 -> 75         0.23889
      67 -> 77        -0.23949
      68 -> 74         0.36369
      68 -> 76         0.11932
      69 -> 75         0.18186
      69 -> 76         0.25239
      69 -> 77         0.11274
      70 -> 77        -0.13393
      70 -> 78         0.12953
      71 -> 78         0.14567

 Excited State  27:      Singlet-A      5.6824 eV  218.19 nm  f=0.0104  <S**2>=0.000
      67 -> 75         0.15424
      68 -> 76         0.42711
      69 -> 75         0.13783
      69 -> 77        -0.34016
      70 -> 78        -0.34777

 Excited State  28:      Singlet-A      5.7251 eV  216.56 nm  f=0.0134  <S**2>=0.000
      67 -> 74        -0.15339
      67 -> 76         0.30681
      67 -> 77         0.16162
      68 -> 75        -0.23489
      68 -> 77         0.10325
      69 -> 76         0.26371
      69 -> 77         0.14201
      70 -> 78        -0.29436
      71 -> 79         0.23091

 Excited State  29:      Singlet-A      5.7694 eV  214.90 nm  f=0.0716  <S**2>=0.000
      66 -> 74        -0.12298
      67 -> 74        -0.14463
      67 -> 77         0.11590
      68 -> 74        -0.18412
      68 -> 77         0.24981
      69 -> 75         0.12553
      69 -> 77        -0.22674
      70 -> 78         0.41311
      71 -> 78        -0.10053
      71 -> 79         0.22920

 Excited State  30:      Singlet-A      5.7969 eV  213.88 nm  f=0.0160  <S**2>=0.000
      67 -> 74         0.10764
      68 -> 75         0.14505
      68 -> 77        -0.17120
      69 -> 75        -0.12852
      69 -> 76        -0.13927
      71 -> 79         0.59549

 The electronic state is 1-A.
 Alpha  occ. eigenvalues --  -88.54135 -14.21585 -14.16202 -10.12548 -10.09868
 Alpha  occ. eigenvalues --  -10.09688 -10.08729 -10.08582 -10.07791 -10.05932
 Alpha  occ. eigenvalues --  -10.05699 -10.05521 -10.05488 -10.05216 -10.05212
 Alpha  occ. eigenvalues --  -10.05169 -10.05007 -10.04926 -10.04922 -10.04219
 Alpha  occ. eigenvalues --   -7.90294  -5.81442  -5.81035  -5.80388  -0.95788
 Alpha  occ. eigenvalues --   -0.89677  -0.83157  -0.82665  -0.77178  -0.76651
 Alpha  occ. eigenvalues --   -0.72993  -0.72664  -0.72032  -0.69531  -0.65465
 Alpha  occ. eigenvalues --   -0.61021  -0.60647  -0.57887  -0.56962  -0.56658
 Alpha  occ. eigenvalues --   -0.53282  -0.50539  -0.50260  -0.46131  -0.45277
 Alpha  occ. eigenvalues --   -0.44453  -0.43448  -0.43024  -0.42415  -0.40772
 Alpha  occ. eigenvalues --   -0.40550  -0.39692  -0.38963  -0.38404  -0.37308
 Alpha  occ. eigenvalues --   -0.36078  -0.35314  -0.34637  -0.34231  -0.33009
 Alpha  occ. eigenvalues --   -0.32339  -0.31501  -0.31178  -0.29564  -0.27677
 Alpha  occ. eigenvalues --   -0.26410  -0.24659  -0.24627  -0.23852  -0.22277
 Alpha  occ. eigenvalues --   -0.20531  -0.18107
 Alpha virt. eigenvalues --   -0.05006  -0.04703  -0.04197  -0.03747  -0.02885
 Alpha virt. eigenvalues --   -0.01276   0.00712   0.04441   0.06797   0.07581
 Alpha virt. eigenvalues --    0.08153   0.08932   0.09314   0.09591   0.10276

 Mulliken charges:
               1
     1  C   -0.142074
     2  C   -0.025186
     3  C   -0.102593
     4  C    0.450177
     5  C   -0.407117
     6  C    0.028188
     7  C    0.384758
     8  C   -0.083725
     9  C   -0.035422
    10  H    0.101787
    11  C   -0.127501
    12  C    0.018327
    13  C   -0.409822
    14  H    0.101955
    15  H    0.092706
    16  H    0.095280
    17  H    0.096584
    18  H    0.096326
    19  C    0.688351
    20  C   -0.335936
    21  C   -0.056335
    22  C    0.232685
    23  C   -0.148894
    24  H    0.102772
    25  H    0.094308
    26  H    0.149696
    27  H    0.100424
    28  H    0.095047
    29  N   -0.229390
    30  H    0.121817
    31  S   -0.147143
    32  N   -0.800047
 Sum of Mulliken charges =  -0.00000

 Dipole moment (field-independent basis, Debye):
    X=             -0.5822    Y=             -2.4693    Z=              1.3790  Tot=              2.8875
 Quadrupole moment (field-independent basis, Debye-Ang):
   XX=           -108.8869   YY=           -104.8017   ZZ=           -121.9421
   XY=              3.2286   XZ=             -1.0085   YZ=              0.1528

 Normal termination of Gaussian 09 at Wed Feb 17 16:29:48 2021.
