 Gaussian 09, Revision E.01,

 ----------------------------------------------------------------------
 #p m06/def2TZVP opt freq=noraman nosymm int=ultrafine scrf=(SMD,solven
 t=n,n-DiMethylAcetamide)
 ----------------------------------------------------------------------

 -----
 Title
 -----
 Symbolic Z-matrix:
 Charge =  0 Multiplicity = 1

 SCF Done:  E(RM06) =  -1162.43044830     A.U. after   14 cycles
 SCF Done:  E(RM06) =  -1162.43382201     A.U. after   11 cycles
 SCF Done:  E(RM06) =  -1162.43400965     A.U. after   10 cycles
 SCF Done:  E(RM06) =  -1162.43423238     A.U. after   11 cycles
 SCF Done:  E(RM06) =  -1162.43430059     A.U. after   11 cycles
 SCF Done:  E(RM06) =  -1162.43431810     A.U. after    9 cycles
 SCF Done:  E(RM06) =  -1162.43432186     A.U. after    9 cycles
 SCF Done:  E(RM06) =  -1162.43432374     A.U. after    9 cycles
 SCF Done:  E(RM06) =  -1162.43432451     A.U. after    9 cycles
 SCF Done:  E(RM06) =  -1162.43432470     A.U. after    8 cycles
 SCF Done:  E(RM06) =  -1162.43432472     A.U. after    6 cycles
 Optimization completed.
    -- Stationary point found.
 Normal termination of Gaussian 09 at Sun Feb 21 05:47:30 2021.

 ------------------------------------------------------------------
 #P Geom=AllCheck Guess=TCheck SCRF=Check GenChk RM06/def2TZVP Freq
 ------------------------------------------------------------------

 Structure from the checkpoint file:  "cp.chk"
 -----
 Title
 -----
 Charge =  0 Multiplicity = 1

 SCF Done:  E(RM06) =  -1162.43432472     A.U. after    1 cycles

  Exact polarizability: 367.048   4.662 414.058 -27.818  -1.869 256.011
 Approx polarizability: 365.633   4.746 409.261 -37.718  -2.908 280.838

                      1                      2                      3
                      A                      A                      A
 Frequencies --     39.2217                45.7712                66.9894
 Red. masses --      5.8824                 4.5545                 5.7806
 Frc consts  --      0.0053                 0.0056                 0.0153
 IR Inten    --      1.0320                 4.2705                 2.5332

                      4                      5                      6
                      A                      A                      A
 Frequencies --     81.9306               145.1409               157.5546
 Red. masses --      4.7728                 4.2216                 4.3823
 Frc consts  --      0.0189                 0.0524                 0.0641
 IR Inten    --      0.6568                 1.4454                 1.5463

                      7                      8                      9
                      A                      A                      A
 Frequencies --    175.6474               228.1969               256.3014
 Red. masses --      5.6233                 6.0030                 5.2397
 Frc consts  --      0.1022                 0.1842                 0.2028
 IR Inten    --      1.4520                 3.7790                 1.6564

                     10                     11                     12
                      A                      A                      A
 Frequencies --    319.4520               324.6038               351.7875
 Red. masses --      5.4864                 5.6846                 6.4797
 Frc consts  --      0.3299                 0.3529                 0.4725
 IR Inten    --      5.0670                 6.4955                 4.9855

                     13                     14                     15
                      A                      A                      A
 Frequencies --    394.0648               394.8939               416.8261
 Red. masses --      6.1632                 7.1098                 3.5690
 Frc consts  --      0.5639                 0.6532                 0.3653
 IR Inten    --      4.5782                 1.9564                 6.0465

                     16                     17                     18
                      A                      A                      A
 Frequencies --    448.6988               454.7218               472.6025
 Red. masses --     10.1482                 3.3694                 3.7112
 Frc consts  --      1.2038                 0.4105                 0.4884
 IR Inten    --      1.8550                 0.3816                29.9602

                     19                     20                     21
                      A                      A                      A
 Frequencies --    511.8015               537.2740               538.8524
 Red. masses --      2.9905                 5.1628                 4.0809
 Frc consts  --      0.4615                 0.8781                 0.6982
 IR Inten    --      3.5708                 2.3061                 1.2709

                     22                     23                     24
                      A                      A                      A
 Frequencies --    576.7092               620.1776               636.7495
 Red. masses --      4.4098                 6.7557                 6.5927
 Frc consts  --      0.8641                 1.5309                 1.5749
 IR Inten    --      7.0613                17.8257                 9.6191

                     25                     26                     27
                      A                      A                      A
 Frequencies --    648.3002               692.0016               705.8742
 Red. masses --      5.7005                 6.4897                 6.4023
 Frc consts  --      1.4116                 1.8310                 1.8795
 IR Inten    --     29.1243                 4.8836                 9.1550

                     28                     29                     30
                      A                      A                      A
 Frequencies --    750.0584               752.0065               755.1941
 Red. masses --      2.8335                 2.1543                 1.9136
 Frc consts  --      0.9392                 0.7178                 0.6430
 IR Inten    --     27.9847                13.1758                37.8546

                     31                     32                     33
                      A                      A                      A
 Frequencies --    764.2634               766.5659               776.7683
 Red. masses --      2.1663                 1.5845                 2.1972
 Frc consts  --      0.7455                 0.5486                 0.7811
 IR Inten    --    102.4335                25.0062                24.6202

                     34                     35                     36
                      A                      A                      A
 Frequencies --    790.6106               875.7346               879.1012
 Red. masses --      2.9334                 1.3929                 1.4332
 Frc consts  --      1.0803                 0.6294                 0.6526
 IR Inten    --     87.5712                 5.4993                 2.9386

                     37                     38                     39
                      A                      A                      A
 Frequencies --    884.7489               934.7015               954.6380
 Red. masses --      1.4063                 5.6355                 2.5685
 Frc consts  --      0.6486                 2.9009                 1.3791
 IR Inten    --      1.0290                 0.7087                 2.3119

                     40                     41                     42
                      A                      A                      A
 Frequencies --    968.8839               975.8098               985.0196
 Red. masses --      1.5845                 1.7343                 1.4143
 Frc consts  --      0.8764                 0.9730                 0.8085
 IR Inten    --      1.5931                 4.9231                 0.4731

                     43                     44                     45
                      A                      A                      A
 Frequencies --    995.7630              1000.7552              1004.6787
 Red. masses --      6.0611                 1.3236                 1.3207
 Frc consts  --      3.5409                 0.7810                 0.7854
 IR Inten    --     22.5330                 0.1233                 0.0774

                     46                     47                     48
                      A                      A                      A
 Frequencies --   1015.2455              1055.7515              1057.7603
 Red. masses --      1.3309                 2.8568                 2.3163
 Frc consts  --      0.8082                 1.8761                 1.5269
 IR Inten    --      0.1998                35.4865                 9.1944

                     49                     50                     51
                      A                      A                      A
 Frequencies --   1074.4655              1075.0189              1090.8153
 Red. masses --      2.2644                 2.5625                 3.0455
 Frc consts  --      1.5402                 1.7448                 2.1350
 IR Inten    --      6.8947                 4.2399                27.3308

                     52                     53                     54
                      A                      A                      A
 Frequencies --   1115.7722              1135.8269              1141.6882
 Red. masses --      1.4004                 1.5122                 1.4793
 Frc consts  --      1.0272                 1.1494                 1.1360
 IR Inten    --      1.1645                23.9292                 4.8599

                     55                     56                     57
                      A                      A                      A
 Frequencies --   1152.4177              1152.6378              1156.4610
 Red. masses --      1.1002                 1.0881                 1.1252
 Frc consts  --      0.8609                 0.8517                 0.8866
 IR Inten    --      0.5583                 0.3599                22.9248

                     58                     59                     60
                      A                      A                      A
 Frequencies --   1222.2333              1248.7810              1275.9071
 Red. masses --      2.8779                 1.7824                 1.5747
 Frc consts  --      2.5330                 1.6377                 1.5104
 IR Inten    --     15.0339                36.3677               108.5948

                     61                     62                     63
                      A                      A                      A
 Frequencies --   1290.2493              1318.7946              1329.7069
 Red. masses --      1.7890                 7.1083                 5.0028
 Frc consts  --      1.7547                 7.2840                 5.2117
 IR Inten    --     54.1488                 6.0606               304.7123

                     64                     65                     66
                      A                      A                      A
 Frequencies --   1331.8015              1341.9827              1349.8677
 Red. masses --      6.9446                 2.5360                 3.9929
 Frc consts  --      7.2573                 2.6908                 4.2866
 IR Inten    --     30.4485                91.7845               288.7931

                     67                     68                     69
                      A                      A                      A
 Frequencies --   1450.7060              1463.8734              1472.1398
 Red. masses --      2.4710                 2.4193                 2.6689
 Frc consts  --      3.0640                 3.0546                 3.4079
 IR Inten    --    330.7630               127.7079                27.6300

                     70                     71                     72
                      A                      A                      A
 Frequencies --   1488.8226              1495.2275              1509.2756
 Red. masses --      2.7414                 2.7329                 2.9493
 Frc consts  --      3.5802                 3.5999                 3.9583
 IR Inten    --    252.6836               291.7380               103.2674

                     73                     74                     75
                      A                      A                      A
 Frequencies --   1614.7441              1623.7686              1632.3992
 Red. masses --      6.6662                 7.0764                 6.6164
 Frc consts  --     10.2409                10.9928                10.3879
 IR Inten    --     97.3277                23.2217                 3.1857

                     76                     77                     78
                      A                      A                      A
 Frequencies --   1633.2409              1636.1190              1653.4821
 Red. masses --      7.5369                 6.1979                 6.8816
 Frc consts  --     11.8452                 9.7751                11.0852
 IR Inten    --     15.7611               332.2640               103.3903

                     79                     80                     81
                      A                      A                      A
 Frequencies --   3132.5320              3170.6622              3170.9542
 Red. masses --      1.0902                 1.0874                 1.0872
 Frc consts  --      6.3028                 6.4410                 6.4410
 IR Inten    --     46.1180                 0.5120                 1.4869

                     82                     83                     84
                      A                      A                      A
 Frequencies --   3174.5530              3175.6527              3178.6141
 Red. masses --      1.0898                 1.0895                 1.0899
 Frc consts  --      6.4708                 6.4737                 6.4881
 IR Inten    --      9.5305                 2.5801                 6.0651

                     85                     86                     87
                      A                      A                      A
 Frequencies --   3184.5607              3190.5645              3194.7443
 Red. masses --      1.0936                 1.0950                 1.0986
 Frc consts  --      6.5344                 6.5674                 6.6062
 IR Inten    --     12.0033                19.7608                14.5142

                     88                     89                     90
                      A                      A                      A
 Frequencies --   3199.4841              3201.9253              3212.9329
 Red. masses --      1.0965                 1.0956                 1.0934
 Frc consts  --      6.6132                 6.6181                 6.6504
 IR Inten    --      6.0825                11.1964                 1.6528

 - Thermochemistry -
 -------------------
 Temperature   298.150 Kelvin.  Pressure   1.00000 Atm.
 Atom     1 has atomic number  6 and mass  12.00000

 Molecular mass:   276.07212 amu.
 Principal axes and moments of inertia in atomic units:
                           1         2         3
     Eigenvalues --  4681.015855129.549478296.50962
           X            0.99600  -0.08679  -0.02114
           Y            0.08670   0.99622  -0.00496
           Z            0.02149   0.00311   0.99976
 This molecule is an asymmetric top.
 Rotational symmetry number  1.
 Warning -- assumption of classical behavior for rotation
           may cause significant error
 Rotational temperatures (Kelvin)      0.01850     0.01689     0.01044
 Rotational constants (GHZ):           0.38554     0.35183     0.21753
 Zero-point vibrational energy     645095.9 (Joules/Mol)
                                  154.18162 (Kcal/Mol)
 Warning -- explicit consideration of  23 degrees of freedom as
           vibrations may cause significant error
 Vibrational temperatures:     56.43    65.85    96.38   117.88   208.83
          (Kelvin)            226.69   252.72   328.32   368.76   459.62
                              467.03   506.14   566.97   568.16   599.72
                              645.58   654.24   679.97   736.37   773.02
                              775.29   829.75   892.30   916.14   932.76
                              995.63  1015.59  1079.17  1081.97  1086.55
                             1099.60  1102.92  1117.59  1137.51  1259.99
                             1264.83  1272.95  1344.83  1373.51  1394.01
                             1403.97  1417.22  1432.68  1439.86  1445.51
                             1460.71  1518.99  1521.88  1545.91  1546.71
                             1569.44  1605.35  1634.20  1642.63  1658.07
                             1658.39  1663.89  1758.52  1796.72  1835.74
                             1856.38  1897.45  1913.15  1916.16  1930.81
                             1942.16  2087.24  2106.18  2118.08  2142.08
                             2151.30  2171.51  2323.25  2336.24  2348.66
                             2349.87  2354.01  2378.99  4507.01  4561.87
                             4562.29  4567.47  4569.05  4573.31  4581.87
                             4590.51  4596.52  4603.34  4606.85  4622.69

 Zero-point correction=                           0.245704 (Hartree/Particle)
 Thermal correction to Energy=                    0.260533
 Thermal correction to Enthalpy=                  0.261477
 Thermal correction to Gibbs Free Energy=         0.202989
 Sum of electronic and zero-point Energies=          -1162.188621
 Sum of electronic and thermal Energies=             -1162.173792
 Sum of electronic and thermal Enthalpies=           -1162.172847
 Sum of electronic and thermal Free Energies=        -1162.231335

                     E (Thermal)             CV                S
                      KCal/Mol        Cal/Mol-Kelvin    Cal/Mol-Kelvin
 Total                  163.487             60.763            123.098
 Electronic               0.000              0.000              0.000
 Translational            0.889              2.981             42.745
 Rotational               0.889              2.981             33.654
 Vibrational            161.710             54.802             46.699
 Vibration     1          0.594              1.981              5.298
 Vibration     2          0.595              1.979              4.992
 Vibration     3          0.598              1.970              4.240
 Vibration     4          0.600              1.962              3.844
 Vibration     5          0.617              1.908              2.735
 Vibration     6          0.621              1.894              2.579
 Vibration     7          0.628              1.872              2.374
 Vibration     8          0.651              1.798              1.893
 Vibration     9          0.666              1.752              1.687
 Vibration    10          0.705              1.636              1.313
 Vibration    11          0.709              1.626              1.287
 Vibration    12          0.728              1.572              1.158
 Vibration    13          0.761              1.483              0.985
 Vibration    14          0.762              1.481              0.982
 Vibration    15          0.780              1.434              0.903
 Vibration    16          0.808              1.364              0.800
 Vibration    17          0.813              1.350              0.782
 Vibration    18          0.829              1.311              0.730
 Vibration    19          0.867              1.224              0.629
 Vibration    20          0.892              1.168              0.571
 Vibration    21          0.894              1.164              0.568
 Vibration    22          0.933              1.082              0.491
 Vibration    23          0.980              0.989              0.416

 Optimization completed.
    -- Stationary point found.
 Normal termination of Gaussian 09 at Sun Feb 21 08:17:45 2021.
 Gaussian 09:  ES64L-G09RevE.01 30-Nov-2015

 ----------------------------------------------------------------------
 #p m06 chkbasis geom=allcheck Guess=Read int=ultrafine scrf=(SMD,solve
 nt=n,n-DiMethylAcetamide) td=(NStates=30)
 ----------------------------------------------------------------------

 Structure from the checkpoint file:  "cp.chk"
 -----
 Title
 -----
 Charge =  0 Multiplicity = 1

                         Standard orientation:
 ---------------------------------------------------------------------
 Center     Atomic      Atomic             Coordinates (Angstroms)
 Number     Number       Type             X           Y           Z
 ---------------------------------------------------------------------
      1          6           0        1.691031    3.656479    0.338417
      2          6           0        2.071837    2.639138   -0.516611
      3          6           0        1.394271    1.427593   -0.490355
      4          6           0        0.340132    1.228064    0.396164
      5          6           0       -0.001617    2.238422    1.284233
      6          6           0        0.661456    3.451221    1.245388
      7          6           0        0.519076   -1.165284    0.416359
      8          6           0        1.588744   -1.233878   -0.471319
      9          6           0        2.427445   -2.339860   -0.473944
     10          1           0        3.263794   -2.377023   -1.163558
     11          6           0        2.193577   -3.381511    0.405045
     12          6           0        1.148065   -3.302914    1.313302
     13          6           0        0.324634   -2.191904    1.330013
     14          1           0        2.898478    2.776293   -1.205374
     15          1           0       -0.800537    2.067830    1.994985
     16          1           0        0.377312    4.239285    1.932910
     17          1           0        2.844133   -4.248197    0.395595
     18          1           0        0.978941   -4.106883    2.019868
     19          6           0       -1.677113   -0.126414    0.051757
     20          6           0       -2.267180   -1.363733   -0.244509
     21          6           0       -3.601882   -1.389722   -0.575465
     22          6           0       -3.657048    0.956679   -0.321871
     23          6           0       -4.331632   -0.209103   -0.612334
     24          1           0       -4.073786   -2.336756   -0.812964
     25          1           0       -4.176610    1.911984   -0.350662
     26          1           0       -1.691240   -2.278576   -0.231918
     27          1           0       -5.383724   -0.195205   -0.865873
     28          1           0        2.214592    4.605059    0.311896
     29          7           0       -0.326930   -0.026661    0.389371
     30          1           0       -0.490366   -2.116864    2.041619
     31         16           0        1.872597    0.115607   -1.578069
     32          7           0       -2.368114    1.005188    0.001622
 ---------------------------------------------------------------------

 SCF Done:  E(RM06) =  -1162.43429125     A.U. after    8 cycles

 Excitation energies and oscillator strengths:

 Excited State   1:      Singlet-A      4.1799 eV  296.62 nm  f=0.0113  <S**2>=0.000
      72 -> 73         0.42467
      72 -> 74         0.49095
      72 -> 75        -0.20987
 This state for optimization and/or second-order correction.
 Total Energy, E(TD-HF/TD-KS) =  -1162.28068403
 Copying the excited state density for this state as the 1-particle RhoCI density.

 Excited State   2:      Singlet-A      4.1847 eV  296.28 nm  f=0.1916  <S**2>=0.000
      72 -> 73         0.48100
      72 -> 74        -0.47988
      72 -> 75        -0.11974

 Excited State   3:      Singlet-A      4.2350 eV  292.76 nm  f=0.0167  <S**2>=0.000
      72 -> 73         0.23378
      72 -> 75         0.62588
      72 -> 76         0.14718

 Excited State   4:      Singlet-A      4.4682 eV  277.48 nm  f=0.0922  <S**2>=0.000
      71 -> 74        -0.22685
      72 -> 75        -0.13483
      72 -> 76         0.63159

 Excited State   5:      Singlet-A      4.6621 eV  265.94 nm  f=0.0199  <S**2>=0.000
      71 -> 73         0.23339
      71 -> 74         0.11150
      71 -> 75        -0.26491
      72 -> 77         0.55639

 Excited State   6:      Singlet-A      4.8481 eV  255.74 nm  f=0.0538  <S**2>=0.000
      70 -> 75         0.11325
      71 -> 73        -0.16671
      71 -> 74         0.59841
      72 -> 76         0.22654

 Excited State   7:      Singlet-A      4.8988 eV  253.09 nm  f=0.1227  <S**2>=0.000
      71 -> 73         0.41753
      71 -> 75        -0.32193
      72 -> 77        -0.38231
      72 -> 79        -0.13465

 Excited State   8:      Singlet-A      4.9232 eV  251.84 nm  f=0.1673  <S**2>=0.000
      67 -> 73         0.10427
      70 -> 73         0.13278
      71 -> 73         0.40004
      71 -> 74         0.17935
      71 -> 75         0.46099
      72 -> 79         0.11922

 Excited State   9:      Singlet-A      4.9920 eV  248.37 nm  f=0.0193  <S**2>=0.000
      67 -> 73         0.30889
      69 -> 73         0.15767
      70 -> 73         0.52272
      71 -> 73        -0.19848
      71 -> 76         0.11679

 Excited State  10:      Singlet-A      5.1270 eV  241.83 nm  f=0.1028  <S**2>=0.000
      71 -> 75        -0.13081
      71 -> 76         0.63763
      72 -> 78        -0.15976

 Excited State  11:      Singlet-A      5.2486 eV  236.23 nm  f=0.0999  <S**2>=0.000
      71 -> 75        -0.14518
      71 -> 79         0.18710
      72 -> 78         0.48120
      72 -> 79         0.40882

 Excited State  12:      Singlet-A      5.2692 eV  235.30 nm  f=0.0572  <S**2>=0.000
      70 -> 74        -0.12436
      71 -> 76         0.17987
      71 -> 79        -0.18084
      72 -> 78         0.45326
      72 -> 79        -0.41530

 Excited State  13:      Singlet-A      5.3283 eV  232.69 nm  f=0.0222  <S**2>=0.000
      67 -> 78        -0.11873
      69 -> 74        -0.16283
      70 -> 74        -0.28858
      70 -> 76        -0.28496
      71 -> 77         0.44551

 Excited State  14:      Singlet-A      5.4068 eV  229.31 nm  f=0.0402  <S**2>=0.000
      67 -> 74         0.17265
      67 -> 76         0.10855
      67 -> 78         0.14394
      70 -> 74         0.44158
      70 -> 78         0.20520
      71 -> 75         0.10793
      71 -> 77         0.38386

 Excited State  15:      Singlet-A      5.5857 eV  221.97 nm  f=0.0538  <S**2>=0.000
      68 -> 75         0.16761
      69 -> 73         0.11928
      69 -> 74         0.34133
      69 -> 77         0.11483
      70 -> 73        -0.12655
      70 -> 74        -0.21044
      70 -> 75        -0.30866
      70 -> 76         0.13759
      71 -> 75        -0.13299
      71 -> 77         0.19754
      71 -> 78         0.12597

 Excited State  16:      Singlet-A      5.6304 eV  220.20 nm  f=0.0343  <S**2>=0.000
      69 -> 73        -0.22790
      69 -> 74         0.15496
      69 -> 75         0.11113
      69 -> 77        -0.20002
      70 -> 74        -0.12054
      70 -> 75         0.27182
      70 -> 76         0.37551
      71 -> 74        -0.11013
      71 -> 77         0.21706

 Excited State  17:      Singlet-A      5.7796 eV  214.52 nm  f=0.0260  <S**2>=0.000
      67 -> 74         0.26760
      67 -> 78         0.13683
      68 -> 74         0.11440
      69 -> 73        -0.23420
      69 -> 75        -0.15719
      69 -> 76         0.28725
      70 -> 73         0.10409
      70 -> 74        -0.21602
      70 -> 78         0.26110
      71 -> 77        -0.16623
      71 -> 78         0.17330

 Excited State  18:      Singlet-A      5.8081 eV  213.47 nm  f=0.0549  <S**2>=0.000
      67 -> 73         0.11977
      69 -> 76        -0.10429
      70 -> 75         0.38382
      70 -> 77        -0.18447
      71 -> 78         0.47644

 Excited State  19:      Singlet-A      5.8644 eV  211.42 nm  f=0.0129  <S**2>=0.000
      67 -> 73        -0.13293
      67 -> 74        -0.10357
      68 -> 73        -0.16156
      69 -> 73        -0.16378
      69 -> 74        -0.12729
      69 -> 75         0.30844
      70 -> 73         0.14902
      70 -> 75        -0.19149
      70 -> 76         0.10136
      70 -> 77         0.12846
      70 -> 78        -0.10377
      71 -> 78         0.40546

 Excited State  20:      Singlet-A      5.8884 eV  210.56 nm  f=0.0241  <S**2>=0.000
      67 -> 73        -0.18814
      67 -> 76        -0.13573
      68 -> 73         0.12994
      68 -> 75         0.14984
      69 -> 73        -0.22867
      69 -> 74         0.34579
      70 -> 73         0.26950
      70 -> 74         0.17788
      70 -> 76        -0.26186
      70 -> 78        -0.12081

 Excited State  21:      Singlet-A      5.9256 eV  209.23 nm  f=0.0178  <S**2>=0.000
      66 -> 74         0.12149
      66 -> 78         0.12673
      67 -> 73        -0.20624
      68 -> 73         0.51692
      68 -> 74        -0.11033
      69 -> 73         0.21472
      69 -> 74        -0.11373
      69 -> 75         0.11871

 Excited State  22:      Singlet-A      5.9840 eV  207.19 nm  f=0.0232  <S**2>=0.000
      68 -> 74        -0.11784
      68 -> 75         0.16340
      69 -> 75         0.11326
      71 -> 79         0.56839
      72 -> 79        -0.25959

 Excited State  23:      Singlet-A      6.0002 eV  206.63 nm  f=0.0155  <S**2>=0.000
      67 -> 74         0.13275
      68 -> 73        -0.22646
      68 -> 74        -0.27887
      69 -> 73         0.23654
      69 -> 75         0.28330
      69 -> 76         0.10701
      70 -> 75         0.20214
      70 -> 76        -0.18754
      70 -> 78         0.12352
      71 -> 79        -0.21098
      72 -> 79         0.10689

 Excited State  24:      Singlet-A      6.0716 eV  204.20 nm  f=0.0138  <S**2>=0.000
      67 -> 73         0.33217
      67 -> 75        -0.10585
      67 -> 76        -0.16236
      68 -> 73         0.14754
      68 -> 75        -0.15885
      68 -> 76         0.18192
      69 -> 74         0.13842
      69 -> 76         0.23078
      69 -> 77        -0.15158
      70 -> 73        -0.16371
      70 -> 76        -0.22823
      70 -> 77         0.20228

 Excited State  25:      Singlet-A      6.1028 eV  203.16 nm  f=0.1101  <S**2>=0.000
      66 -> 73        -0.11622
      67 -> 73        -0.18193
      67 -> 74        -0.10331
      68 -> 73        -0.12760
      68 -> 74         0.40768
      69 -> 73         0.31436
      69 -> 74         0.13897
      70 -> 77         0.32261

 Excited State  26:      Singlet-A      6.1713 eV  200.90 nm  f=0.3165  <S**2>=0.000
      67 -> 75         0.24523
      67 -> 78        -0.14043
      68 -> 76        -0.22026
      68 -> 77         0.10902
      69 -> 76         0.43931
      69 -> 77         0.11005
      70 -> 74         0.15555
      70 -> 76         0.13633
      70 -> 78        -0.22559

 Excited State  27:      Singlet-A      6.2028 eV  199.88 nm  f=0.0960  <S**2>=0.000
      67 -> 73         0.23704
      67 -> 74        -0.21973
      68 -> 75         0.24871
      68 -> 76        -0.16543
      69 -> 73        -0.16118
      69 -> 74        -0.10120
      69 -> 77         0.19760
      70 -> 77         0.34340
      70 -> 78         0.15566
      72 -> 80         0.17327

 Excited State  28:      Singlet-A      6.2360 eV  198.82 nm  f=0.0217  <S**2>=0.000
      68 -> 74        -0.12941
      68 -> 75        -0.10312
      69 -> 75        -0.12140
      69 -> 77        -0.10993
      72 -> 80         0.60516

 Excited State  29:      Singlet-A      6.2899 eV  197.12 nm  f=0.0842  <S**2>=0.000
      67 -> 74         0.11232
      67 -> 75         0.25282
      67 -> 76         0.14759
      67 -> 77        -0.12624
      68 -> 74         0.29343
      68 -> 75         0.17072
      68 -> 76         0.16531
      69 -> 75         0.33599
      70 -> 77        -0.10644
      72 -> 80         0.22403

 Excited State  30:      Singlet-A      6.3248 eV  196.03 nm  f=0.2807  <S**2>=0.000
      67 -> 73        -0.11197
      67 -> 74        -0.23106
      67 -> 75        -0.11907
      68 -> 75         0.31986
      68 -> 76         0.32925
      69 -> 74        -0.15616
      69 -> 75        -0.12509
      69 -> 76         0.27768
      69 -> 77        -0.13763
      70 -> 77        -0.15658
      70 -> 78         0.12711

 The electronic state is 1-A.
 Alpha  occ. eigenvalues --  -89.05341 -14.42618 -14.37859 -10.31878 -10.28819
 Alpha  occ. eigenvalues --  -10.28657 -10.27698 -10.27544 -10.27046 -10.25129
 Alpha  occ. eigenvalues --  -10.24754 -10.24563 -10.24554 -10.24312 -10.24293
 Alpha  occ. eigenvalues --  -10.24240 -10.24117 -10.23997 -10.23844 -10.23170
 Alpha  occ. eigenvalues --   -8.06730  -5.98429  -5.98072  -5.97468  -1.00908
 Alpha  occ. eigenvalues --   -0.94965  -0.88361  -0.87797  -0.82306  -0.81620
 Alpha  occ. eigenvalues --   -0.77876  -0.77491  -0.76762  -0.74285  -0.70446
 Alpha  occ. eigenvalues --   -0.65857  -0.65573  -0.62572  -0.61761  -0.61607
 Alpha  occ. eigenvalues --   -0.58102  -0.55656  -0.55334  -0.51232  -0.50377
 Alpha  occ. eigenvalues --   -0.49519  -0.48302  -0.47628  -0.47430  -0.45555
 Alpha  occ. eigenvalues --   -0.45208  -0.44446  -0.43548  -0.43366  -0.41897
 Alpha  occ. eigenvalues --   -0.40864  -0.39932  -0.39262  -0.38825  -0.37676
 Alpha  occ. eigenvalues --   -0.36954  -0.35822  -0.35442  -0.33660  -0.31641
 Alpha  occ. eigenvalues --   -0.30248  -0.28730  -0.28149  -0.27511  -0.26395
 Alpha  occ. eigenvalues --   -0.23919  -0.21856
 Alpha virt. eigenvalues --   -0.02629  -0.02407  -0.01884  -0.01541  -0.00440
 Alpha virt. eigenvalues --    0.00784   0.02451   0.04806   0.06006   0.06735
 Alpha virt. eigenvalues --    0.07028   0.07749   0.08101   0.08792   0.09185

 Mulliken charges:
               1
     1  C   -0.169149
     2  C   -0.063329
     3  C   -0.062866
     4  C    0.233774
     5  C   -0.352473
     6  C   -0.044471
     7  C    0.140436
     8  C   -0.045570
     9  C   -0.063703
    10  H    0.137023
    11  C   -0.157889
    12  C   -0.038443
    13  C   -0.339937
    14  H    0.136258
    15  H    0.139269
    16  H    0.132720
    17  H    0.134231
    18  H    0.134866
    19  C    0.426230
    20  C   -0.279239
    21  C   -0.098764
    22  C    0.088070
    23  C   -0.189155
    24  H    0.144373
    25  H    0.139385
    26  H    0.190722
    27  H    0.136789
    28  H    0.132821
    29  N   -0.115453
    30  H    0.157666
    31  S   -0.045295
    32  N   -0.538896
 Sum of Mulliken charges =  -0.00000

 Dipole moment (field-independent basis, Debye):
    X=             -0.3292    Y=             -2.5214    Z=              1.2219  Tot=              2.8211
 Quadrupole moment (field-independent basis, Debye-Ang):
   XX=           -108.8888   YY=           -103.4131   ZZ=           -121.7232
   XY=              3.0686   XZ=             -1.2812   YZ=             -0.0201

 Normal termination of Gaussian 09 at Sun Feb 21 10:14:09 2021.
