 Gaussian 09, Revision E.01,

 ----------------------------------------------------------------------
 #p TPSSTPSS/def2TZVP opt freq=noraman nosymm int=ultrafine scrf=(SMD,s
 olvent=n,n-DiMethylAcetamide)
 ----------------------------------------------------------------------

 -----
 Title
 -----
 Symbolic Z-matrix:
 Charge =  0 Multiplicity = 1

 SCF Done:  E(RTPSS-TPSS) =  -1163.19575178     A.U. after   14 cycles
 SCF Done:  E(RTPSS-TPSS) =  -1163.19646185     A.U. after   11 cycles
 SCF Done:  E(RTPSS-TPSS) =  -1163.19663672     A.U. after   10 cycles
 SCF Done:  E(RTPSS-TPSS) =  -1163.19673987     A.U. after   10 cycles
 SCF Done:  E(RTPSS-TPSS) =  -1163.19677942     A.U. after    9 cycles
 SCF Done:  E(RTPSS-TPSS) =  -1163.19679284     A.U. after    9 cycles
 SCF Done:  E(RTPSS-TPSS) =  -1163.19679485     A.U. after    8 cycles
 SCF Done:  E(RTPSS-TPSS) =  -1163.19679537     A.U. after    8 cycles
 SCF Done:  E(RTPSS-TPSS) =  -1163.19679558     A.U. after    7 cycles
 SCF Done:  E(RTPSS-TPSS) =  -1163.19679565     A.U. after    7 cycles
 Optimization completed.
    -- Stationary point found.
 Normal termination of Gaussian 09 at Wed Mar 31 08:35:07 2021.

 ----------------------------------------------------------------------
 #P Geom=AllCheck Guess=TCheck SCRF=Check GenChk RTPSSTPSS/def2TZVP Fre
 q
 ----------------------------------------------------------------------

 Structure from the checkpoint file:  "cp.chk"
 -----
 Title
 -----
 Charge =  0 Multiplicity = 1

 SCF Done:  E(RTPSS-TPSS) =  -1163.19679565     A.U. after    1 cycles

  Exact polarizability: 400.464   3.494 432.827 -27.787  -2.520 250.621
 Approx polarizability: 503.449   6.225 542.090 -53.934  -4.792 337.325

                      1                      2                      3
                      A                      A                      A
 Frequencies --     44.9397                52.7016                66.1290
 Red. masses --      5.1248                 5.0010                 5.8714
 Frc consts  --      0.0061                 0.0082                 0.0151
 IR Inten    --      1.1532                 5.4207                 2.3356

                      4                      5                      6
                      A                      A                      A
 Frequencies --     80.5250               141.0931               153.1486
 Red. masses --      4.7197                 4.2450                 4.3580
 Frc consts  --      0.0180                 0.0498                 0.0602
 IR Inten    --      0.8364                 2.2500                 1.8940

                      7                      8                      9
                      A                      A                      A
 Frequencies --    173.7836               216.4000               247.1506
 Red. masses --      5.8233                 6.1365                 5.2849
 Frc consts  --      0.1036                 0.1693                 0.1902
 IR Inten    --      0.9994                 5.1523                 2.0465

                     10                     11                     12
                      A                      A                      A
 Frequencies --    308.4040               314.3226               343.6066
 Red. masses --      5.7490                 5.5010                 6.6371
 Frc consts  --      0.3222                 0.3202                 0.4617
 IR Inten    --      6.9169                 4.8474                 4.5183

                     13                     14                     15
                      A                      A                      A
 Frequencies --    373.2052               384.9593               408.0307
 Red. masses --      8.9230                 5.2411                 3.6408
 Frc consts  --      0.7322                 0.4576                 0.3571
 IR Inten    --      1.7756                 3.9690                 7.3824

                     16                     17                     18
                      A                      A                      A
 Frequencies --    436.2972               443.0589               459.4620
 Red. masses --      9.3287                 3.5340                 3.7793
 Frc consts  --      1.0462                 0.4087                 0.4701
 IR Inten    --      1.6001                 0.6579                32.0380

                     19                     20                     21
                      A                      A                      A
 Frequencies --    500.3614               522.8022               526.5676
 Red. masses --      3.1797                 5.4144                 4.2689
 Frc consts  --      0.4690                 0.8719                 0.6974
 IR Inten    --      3.9213                 4.7060                 1.3323

                     22                     23                     24
                      A                      A                      A
 Frequencies --    554.3293               608.4750               624.3864
 Red. masses --      4.5262                 6.8688                 6.7009
 Frc consts  --      0.8194                 1.4984                 1.5392
 IR Inten    --      4.5761                15.6677                10.7219

                     25                     26                     27
                      A                      A                      A
 Frequencies --    634.4012               676.4713               689.5423
 Red. masses --      5.9329                 6.5492                 6.4796
 Frc consts  --      1.4068                 1.7658                 1.8152
 IR Inten    --     28.0750                 5.3530                 7.9763

                     28                     29                     30
                      A                      A                      A
 Frequencies --    729.6413               733.0595               740.5848
 Red. masses --      4.0316                 4.2753                 2.4534
 Frc consts  --      1.2646                 1.3536                 0.7928
 IR Inten    --      3.7583                17.0982                13.7721

                     31                     32                     33
                      A                      A                      A
 Frequencies --    745.6580               753.9388               761.5199
 Red. masses --      3.2073                 1.3108                 1.4705
 Frc consts  --      1.0507                 0.4390                 0.5024
 IR Inten    --     65.0359                41.5564               102.6383

                     34                     35                     36
                      A                      A                      A
 Frequencies --    770.1741               859.8947               865.1530
 Red. masses --      2.0262                 1.3834                 1.3595
 Frc consts  --      0.7081                 0.6027                 0.5995
 IR Inten    --    109.5089                 3.4522                 3.4015

                     37                     38                     39
                      A                      A                      A
 Frequencies --    869.3319               914.2193               933.2162
 Red. masses --      1.3471                 5.8573                 2.3903
 Frc consts  --      0.5998                 2.8844                 1.2265
 IR Inten    --      1.0734                 0.5009                 1.7519

                     40                     41                     42
                      A                      A                      A
 Frequencies --    944.2640               950.9899               961.0948
 Red. masses --      1.6693                 1.6932                 1.3886
 Frc consts  --      0.8770                 0.9022                 0.7557
 IR Inten    --      0.2968                 3.7641                 0.9147

                     43                     44                     45
                      A                      A                      A
 Frequencies --    971.3874               974.9615               979.4202
 Red. masses --      1.2744                 1.2843                 6.2713
 Frc consts  --      0.7085                 0.7193                 3.5444
 IR Inten    --      0.1620                 0.1129                35.4805

                     46                     47                     48
                      A                      A                      A
 Frequencies --    991.8942              1033.3913              1036.0229
 Red. masses --      1.2972                 3.4613                 2.7069
 Frc consts  --      0.7520                 2.1778                 1.7118
 IR Inten    --      0.1659                47.2764                11.5301

                     49                     50                     51
                      A                      A                      A
 Frequencies --   1053.8571              1055.5107              1072.5006
 Red. masses --      2.4471                 2.6986                 3.7112
 Frc consts  --      1.6013                 1.7714                 2.5151
 IR Inten    --      7.4110                 2.4323                24.9236

                     52                     53                     54
                      A                      A                      A
 Frequencies --   1107.5550              1122.4761              1131.4445
 Red. masses --      1.5272                 1.6904                 1.5939
 Frc consts  --      1.1038                 1.2549                 1.2022
 IR Inten    --      1.2668                33.1881                 5.9525

                     55                     56                     57
                      A                      A                      A
 Frequencies --   1158.0629              1158.1524              1160.6646
 Red. masses --      1.0859                 1.0836                 1.1168
 Frc consts  --      0.8581                 0.8563                 0.8864
 IR Inten    --      0.5896                 0.2243                32.0236

                     58                     59                     60
                      A                      A                      A
 Frequencies --   1196.7526              1227.3229              1262.8523
 Red. masses --      2.9606                 2.2373                 1.8597
 Frc consts  --      2.4983                 1.9856                 1.7475
 IR Inten    --     11.6830                94.4378               330.9285

                     61                     62                     63
                      A                      A                      A
 Frequencies --   1271.8122              1304.5799              1307.0412
 Red. masses --      1.8248                 8.5017                 3.3048
 Frc consts  --      1.7390                 8.5250                 3.3264
 IR Inten    --     41.7575                39.7776               490.7245

                     64                     65                     66
                      A                      A                      A
 Frequencies --   1319.5854              1330.6382              1332.1737
 Red. masses --      3.2573                 3.2819                 7.1010
 Frc consts  --      3.3419                 3.4237                 7.4249
 IR Inten    --     43.7291                32.4433                42.6000

                     67                     68                     69
                      A                      A                      A
 Frequencies --   1432.4672              1446.0341              1453.3292
 Red. masses --      2.0819                 2.0844                 2.2139
 Frc consts  --      2.5170                 2.5679                 2.7551
 IR Inten    --    391.2974                78.9165                14.0411

                     70                     71                     72
                      A                      A                      A
 Frequencies --   1462.1359              1473.5012              1483.9714
 Red. masses --      2.4325                 2.1923                 2.4973
 Frc consts  --      3.0639                 2.8045                 3.2402
 IR Inten    --    249.1678               216.4299                52.4772

                     73                     74                     75
                      A                      A                      A
 Frequencies --   1566.9615              1576.4628              1580.1806
 Red. masses --      5.3715                 5.7763                 5.6622
 Frc consts  --      7.7707                 8.4580                 8.3300
 IR Inten    --     70.4845                 8.6292                 3.2018

                     76                     77                     78
                      A                      A                      A
 Frequencies --   1584.6297              1587.8677              1602.3172
 Red. masses --      6.4586                 5.2106                 5.6283
 Frc consts  --      9.5554                 7.7405                 8.5138
 IR Inten    --      7.3014               226.0872               126.7088

                     79                     80                     81
                      A                      A                      A
 Frequencies --   3113.9726              3139.3405              3140.2950
 Red. masses --      1.0892                 1.0858                 1.0857
 Frc consts  --      6.2230                 6.3051                 6.3082
 IR Inten    --     47.4892                 0.4621                 0.1606

                     82                     83                     84
                      A                      A                      A
 Frequencies --   3143.1986              3148.2359              3148.2981
 Red. masses --      1.0887                 1.0894                 1.0902
 Frc consts  --      6.3372                 6.3618                 6.3668
 IR Inten    --     12.7250                 7.9418                13.7026

                     85                     86                     87
                      A                      A                      A
 Frequencies --   3156.9901              3159.9669              3164.8818
 Red. masses --      1.0934                 1.0959                 1.0973
 Frc consts  --      6.4203                 6.4476                 6.4758
 IR Inten    --     26.2780                33.4711                15.5588

                     88                     89                     90
                      A                      A                      A
 Frequencies --   3166.3994              3180.4709              3180.8938
 Red. masses --      1.0951                 1.0934                 1.0928
 Frc consts  --      6.4691                 6.5163                 6.5146
 IR Inten    --     24.6157                 5.1621                 6.2716

 - Thermochemistry -
 -------------------
 Temperature   298.150 Kelvin.  Pressure   1.00000 Atm.
 Atom     1 has atomic number  6 and mass  12.00000

 Molecular mass:   276.07212 amu.
 Principal axes and moments of inertia in atomic units:
                           1         2         3
     Eigenvalues --  4687.156165277.869358532.16134
           X            0.99798  -0.06288  -0.00897
           Y            0.06284   0.99801  -0.00490
           Z            0.00926   0.00433   0.99995
 This molecule is an asymmetric top.
 Rotational symmetry number  1.
 Warning -- assumption of classical behavior for rotation
           may cause significant error
 Rotational temperatures (Kelvin)      0.01848     0.01641     0.01015
 Rotational constants (GHZ):           0.38504     0.34195     0.21152
 Zero-point vibrational energy     635038.6 (Joules/Mol)
                                  151.77786 (Kcal/Mol)
 Warning -- explicit consideration of  23 degrees of freedom as
           vibrations may cause significant error
 Vibrational temperatures:     64.66    75.83    95.14   115.86   203.00
          (Kelvin)            220.35   250.04   311.35   355.59   443.72
                              452.24   494.37   536.96   553.87   587.06
                              627.73   637.46   661.06   719.91   752.19
                              757.61   797.56   875.46   898.35   912.76
                              973.29   992.10  1049.79  1054.71  1065.53
                             1072.83  1084.75  1095.66  1108.11  1237.20
                             1244.76  1250.77  1315.36  1342.69  1358.58
                             1368.26  1382.80  1397.61  1402.75  1409.17
                             1427.11  1486.82  1490.60  1516.26  1518.64
                             1543.09  1593.52  1614.99  1627.89  1666.19
                             1666.32  1669.94  1721.86  1765.84  1816.96
                             1829.85  1877.00  1880.54  1898.59  1914.49
                             1916.70  2061.00  2080.52  2091.01  2103.68
                             2120.04  2135.10  2254.51  2268.18  2273.52
                             2279.93  2284.58  2305.37  4480.31  4516.81
                             4518.18  4522.36  4529.60  4529.69  4542.20
                             4546.48  4553.55  4555.74  4575.98  4576.59

 Zero-point correction=                           0.241873 (Hartree/Particle)
 Thermal correction to Energy=                    0.257019
 Thermal correction to Enthalpy=                  0.257963
 Thermal correction to Gibbs Free Energy=         0.199095
 Sum of electronic and zero-point Energies=          -1162.954922
 Sum of electronic and thermal Energies=             -1162.939777
 Sum of electronic and thermal Enthalpies=           -1162.938833
 Sum of electronic and thermal Free Energies=        -1162.997701

                     E (Thermal)             CV                S
                      KCal/Mol        Cal/Mol-Kelvin    Cal/Mol-Kelvin
 Total                  161.282             62.117            123.899
 Electronic               0.000              0.000              0.000
 Translational            0.889              2.981             42.745
 Rotational               0.889              2.981             33.712
 Vibrational            159.504             56.155             47.442
 Vibration     1          0.595              1.979              5.029
 Vibration     2          0.596              1.977              4.713
 Vibration     3          0.598              1.970              4.265
 Vibration     4          0.600              1.962              3.878
 Vibration     5          0.615              1.912              2.789
 Vibration     6          0.619              1.899              2.633
 Vibration     7          0.627              1.875              2.394
 Vibration     8          0.645              1.816              1.989
 Vibration     9          0.661              1.767              1.751
 Vibration    10          0.698              1.658              1.371
 Vibration    11          0.702              1.646              1.339
 Vibration    12          0.722              1.588              1.195
 Vibration    13          0.745              1.527              1.067
 Vibration    14          0.754              1.502              1.020
 Vibration    15          0.773              1.453              0.934
 Vibration    16          0.797              1.391              0.838
 Vibration    17          0.803              1.376              0.817
 Vibration    18          0.817              1.340              0.768
 Vibration    19          0.856              1.249              0.657
 Vibration    20          0.878              1.200              0.603
 Vibration    21          0.882              1.191              0.595
 Vibration    22          0.910              1.130              0.535
 Vibration    23          0.967              1.014              0.435

 Optimization completed.
    -- Stationary point found.
 Normal termination of Gaussian 09 at Wed Mar 31 10:12:00 2021.
 Gaussian 09:  ES64L-G09RevE.01 30-Nov-2015

 ----------------------------------------------------------------------
 #p TPSSTPSS chkbasis geom=allcheck Guess=Read int=ultrafine scrf=(SMD,
 solvent=n,n-DiMethylAcetamide) td=(NStates=30)
 ----------------------------------------------------------------------

 Structure from the checkpoint file:  "cp.chk"
 -----
 Title
 -----
 Charge =  0 Multiplicity = 1

                         Standard orientation:
 ---------------------------------------------------------------------
 Center     Atomic      Atomic             Coordinates (Angstroms)
 Number     Number       Type             X           Y           Z
 ---------------------------------------------------------------------
      1          6           0        1.796416    3.636746    0.388692
      2          6           0        2.205031    2.603887   -0.453056
      3          6           0        1.484985    1.404119   -0.477043
      4          6           0        0.361812    1.229607    0.346307
      5          6           0       -0.006777    2.252244    1.227988
      6          6           0        0.699355    3.454471    1.235703
      7          6           0        0.484072   -1.187442    0.367114
      8          6           0        1.618141   -1.275864   -0.455002
      9          6           0        2.444732   -2.403430   -0.402101
     10          1           0        3.324989   -2.457477   -1.036736
     11          6           0        2.132804   -3.448947    0.465790
     12          6           0        1.023954   -3.349671    1.311077
     13          6           0        0.212819   -2.216254    1.276423
     14          1           0        3.077857    2.721825   -1.089360
     15          1           0       -0.852080    2.106676    1.890509
     16          1           0        0.394649    4.248463    1.911942
     17          1           0        2.768911   -4.329118    0.497001
     18          1           0        0.795267   -4.150592    2.008527
     19          6           0       -1.709386   -0.092163    0.002628
     20          6           0       -2.339445   -1.322570   -0.287826
     21          6           0       -3.695796   -1.317565   -0.575779
     22          6           0       -3.692968    1.047637   -0.300586
     23          6           0       -4.406199   -0.111879   -0.577571
     24          1           0       -4.195604   -2.254694   -0.807265
     25          1           0       -4.186582    2.018520   -0.304816
     26          1           0       -1.780573   -2.250307   -0.306779
     27          1           0       -5.468923   -0.074413   -0.794839
     28          1           0        2.348063    4.572754    0.398646
     29          7           0       -0.335142   -0.019435    0.284870
     30          1           0       -0.640855   -2.129730    1.942074
     31         16           0        1.983969    0.075386   -1.546771
     32          7           0       -2.380560    1.070055   -0.015885
 ---------------------------------------------------------------------

 SCF Done:  E(RTPSS-TPSS) =  -1163.19679461     A.U. after    6 cycles

 Excitation energies and oscillator strengths:

 Excited State   1:      Singlet-A      3.5428 eV  349.96 nm  f=0.0200  <S**2>=0.000
      72 -> 73         0.60652
      72 -> 74         0.32381
 This state for optimization and/or second-order correction.
 Total Energy, E(TD-HF/TD-KS) =  -1163.06659816
 Copying the excited state density for this state as the 1-particle RhoCI density.

 Excited State   2:      Singlet-A      3.5810 eV  346.23 nm  f=0.1063  <S**2>=0.000
      72 -> 73        -0.29937
      72 -> 74         0.59165
      72 -> 75         0.15175
      72 -> 76         0.15298

 Excited State   3:      Singlet-A      3.6492 eV  339.76 nm  f=0.0093  <S**2>=0.000
      72 -> 75         0.67029
      72 -> 76        -0.17410

 Excited State   4:      Singlet-A      3.8442 eV  322.52 nm  f=0.1221  <S**2>=0.000
      71 -> 73        -0.13121
      72 -> 73         0.12377
      72 -> 74        -0.14678
      72 -> 75         0.12994
      72 -> 76         0.63513

 Excited State   5:      Singlet-A      4.0067 eV  309.44 nm  f=0.0254  <S**2>=0.000
      71 -> 73        -0.30638
      72 -> 77         0.61546

 Excited State   6:      Singlet-A      4.1272 eV  300.41 nm  f=0.0140  <S**2>=0.000
      71 -> 73         0.59183
      71 -> 75        -0.11529
      72 -> 76         0.14055
      72 -> 77         0.27890

 Excited State   7:      Singlet-A      4.1714 eV  297.22 nm  f=0.0064  <S**2>=0.000
      71 -> 74         0.68078
      72 -> 78        -0.10765

 Excited State   8:      Singlet-A      4.3869 eV  282.62 nm  f=0.1642  <S**2>=0.000
      70 -> 73         0.11454
      71 -> 75         0.65438
      72 -> 77         0.10799

 Excited State   9:      Singlet-A      4.5094 eV  274.94 nm  f=0.0255  <S**2>=0.000
      70 -> 73        -0.16511
      70 -> 75         0.11410
      71 -> 76         0.58799
      71 -> 78         0.10978
      72 -> 78         0.24734

 Excited State  10:      Singlet-A      4.5613 eV  271.82 nm  f=0.0009  <S**2>=0.000
      70 -> 73         0.41913
      70 -> 74         0.52448
      71 -> 77         0.15162

 Excited State  11:      Singlet-A      4.5840 eV  270.47 nm  f=0.0560  <S**2>=0.000
      69 -> 74        -0.12878
      70 -> 73         0.49681
      70 -> 74        -0.33671
      71 -> 75        -0.10449
      71 -> 76         0.18269
      71 -> 77        -0.20197
      72 -> 78        -0.13451

 Excited State  12:      Singlet-A      4.6537 eV  266.42 nm  f=0.0146  <S**2>=0.000
      68 -> 74         0.10996
      70 -> 74        -0.19268
      70 -> 75         0.16978
      70 -> 76         0.23425
      71 -> 77         0.57717
      72 -> 78        -0.11871

 Excited State  13:      Singlet-A      4.6876 eV  264.49 nm  f=0.1345  <S**2>=0.000
      69 -> 75        -0.13005
      70 -> 73         0.11427
      70 -> 74        -0.18554
      71 -> 76        -0.22823
      71 -> 78         0.20675
      72 -> 78         0.53202

 Excited State  14:      Singlet-A      4.7327 eV  261.97 nm  f=0.0071  <S**2>=0.000
      70 -> 75         0.63663
      71 -> 77        -0.16490

 Excited State  15:      Singlet-A      4.8394 eV  256.20 nm  f=0.0084  <S**2>=0.000
      69 -> 73         0.16960
      70 -> 76         0.47825
      71 -> 77        -0.10806
      72 -> 79         0.44342

 Excited State  16:      Singlet-A      4.8548 eV  255.39 nm  f=0.0040  <S**2>=0.000
      69 -> 73        -0.28751
      70 -> 76        -0.33226
      72 -> 79         0.52940

 Excited State  17:      Singlet-A      4.9449 eV  250.73 nm  f=0.0379  <S**2>=0.000
      69 -> 73         0.57661
      69 -> 74         0.19938
      70 -> 76        -0.23684
      72 -> 79         0.10801

 Excited State  18:      Singlet-A      5.0689 eV  244.60 nm  f=0.0006  <S**2>=0.000
      67 -> 73        -0.10985
      68 -> 73        -0.35840
      69 -> 74         0.15558
      70 -> 77         0.53563
      71 -> 78         0.13359

 Excited State  19:      Singlet-A      5.0864 eV  243.75 nm  f=0.0655  <S**2>=0.000
      67 -> 73         0.18621
      67 -> 74        -0.30108
      69 -> 74         0.18623
      70 -> 77        -0.16983
      71 -> 78         0.50131
      72 -> 78        -0.14782

 Excited State  20:      Singlet-A      5.0911 eV  243.53 nm  f=0.0533  <S**2>=0.000
      67 -> 73        -0.12277
      67 -> 75         0.13247
      67 -> 76        -0.11912
      68 -> 75        -0.14011
      69 -> 74         0.51487
      70 -> 77        -0.17763
      71 -> 78        -0.26908

 Excited State  21:      Singlet-A      5.1626 eV  240.16 nm  f=0.0094  <S**2>=0.000
      67 -> 74         0.15239
      67 -> 75         0.15269
      68 -> 73         0.55139
      68 -> 75        -0.10526
      69 -> 74         0.12363
      69 -> 76        -0.10228
      70 -> 77         0.26130

 Excited State  22:      Singlet-A      5.2386 eV  236.68 nm  f=0.0044  <S**2>=0.000
      67 -> 73         0.26270
      67 -> 74         0.36567
      67 -> 77         0.11083
      68 -> 73        -0.12428
      68 -> 74         0.41974
      68 -> 76        -0.16770
      69 -> 76         0.18443

 Excited State  23:      Singlet-A      5.2690 eV  235.31 nm  f=0.0328  <S**2>=0.000
      66 -> 74        -0.10663
      67 -> 73         0.36586
      67 -> 75         0.33117
      67 -> 76         0.10768
      68 -> 74        -0.11142
      68 -> 75         0.23633
      69 -> 75        -0.29108
      69 -> 76        -0.16709
      71 -> 78        -0.14448

 Excited State  24:      Singlet-A      5.3563 eV  231.47 nm  f=0.0038  <S**2>=0.000
      66 -> 74         0.11428
      67 -> 73        -0.19613
      67 -> 75         0.12279
      67 -> 76         0.20386
      68 -> 75         0.25523
      68 -> 76        -0.29543
      69 -> 75        -0.13926
      69 -> 76         0.35227
      69 -> 77        -0.25074

 Excited State  25:      Singlet-A      5.3848 eV  230.25 nm  f=0.0401  <S**2>=0.000
      66 -> 74         0.10988
      67 -> 73        -0.24292
      67 -> 75         0.38105
      67 -> 76        -0.10592
      67 -> 77         0.16169
      68 -> 74         0.19018
      68 -> 76         0.21631
      70 -> 78        -0.32386

 Excited State  26:      Singlet-A      5.4081 eV  229.25 nm  f=0.0161  <S**2>=0.000
      67 -> 73        -0.12709
      67 -> 74         0.31860
      67 -> 77         0.12928
      68 -> 73        -0.10312
      68 -> 74        -0.11782
      68 -> 77         0.18715
      69 -> 75        -0.16073
      69 -> 76        -0.20672
      69 -> 77        -0.21343
      70 -> 77        -0.13630
      70 -> 78         0.29864
      71 -> 78         0.11527
      71 -> 79         0.16411

 Excited State  27:      Singlet-A      5.4391 eV  227.95 nm  f=0.0087  <S**2>=0.000
      67 -> 75         0.14061
      67 -> 76        -0.25256
      68 -> 75         0.15474
      68 -> 76         0.25250
      69 -> 75         0.17610
      69 -> 76         0.10290
      69 -> 77        -0.17001
      70 -> 78         0.35118
      71 -> 79        -0.33356

 Excited State  28:      Singlet-A      5.4636 eV  226.93 nm  f=0.0039  <S**2>=0.000
      67 -> 74        -0.11867
      67 -> 76        -0.30630
      68 -> 74         0.15934
      68 -> 75         0.22405
      68 -> 76        -0.14475
      68 -> 77        -0.23861
      69 -> 77        -0.21841
      70 -> 78         0.10404
      71 -> 79         0.39653

 Excited State  29:      Singlet-A      5.5093 eV  225.04 nm  f=0.0029  <S**2>=0.000
      65 -> 75        -0.10434
      67 -> 75         0.24889
      67 -> 76         0.14213
      68 -> 76         0.10944
      69 -> 76         0.23481
      69 -> 77         0.24234
      69 -> 78         0.11796
      70 -> 78         0.26989
      71 -> 79         0.36451

 Excited State  30:      Singlet-A      5.5251 eV  224.40 nm  f=0.0877  <S**2>=0.000
      66 -> 74         0.17227
      67 -> 73        -0.12550
      67 -> 74        -0.10892
      67 -> 76         0.11496
      67 -> 77         0.24706
      68 -> 74         0.23410
      68 -> 77        -0.20981
      69 -> 75        -0.21211
      69 -> 76        -0.11206
      69 -> 77         0.22834
      70 -> 78         0.23312
      71 -> 79        -0.19287

 The electronic state is 1-A.
 Alpha  occ. eigenvalues --  -88.37077 -14.14423 -14.09273 -10.06318 -10.03851
 Alpha  occ. eigenvalues --  -10.03668 -10.02707 -10.02561 -10.01739  -9.99924
 Alpha  occ. eigenvalues --   -9.99813  -9.99646  -9.99608  -9.99342  -9.99289
 Alpha  occ. eigenvalues --   -9.99252  -9.99090  -9.99073  -9.99001  -9.98328
 Alpha  occ. eigenvalues --   -7.75072  -5.73138  -5.72748  -5.72109  -0.92427
 Alpha  occ. eigenvalues --   -0.86567  -0.80523  -0.79992  -0.74821  -0.74130
 Alpha  occ. eigenvalues --   -0.70795  -0.70449  -0.69749  -0.67388  -0.63576
 Alpha  occ. eigenvalues --   -0.59468  -0.59128  -0.56424  -0.55557  -0.55291
 Alpha  occ. eigenvalues --   -0.52021  -0.49689  -0.49379  -0.45425  -0.44427
 Alpha  occ. eigenvalues --   -0.43502  -0.42805  -0.42274  -0.41415  -0.40201
 Alpha  occ. eigenvalues --   -0.40100  -0.39117  -0.38358  -0.37683  -0.36584
 Alpha  occ. eigenvalues --   -0.35574  -0.34801  -0.34032  -0.33796  -0.32648
 Alpha  occ. eigenvalues --   -0.32007  -0.31111  -0.30638  -0.28963  -0.27187
 Alpha  occ. eigenvalues --   -0.25869  -0.24320  -0.24285  -0.23508  -0.21946
 Alpha  occ. eigenvalues --   -0.20230  -0.17963
 Alpha virt. eigenvalues --   -0.05574  -0.05287  -0.04781  -0.04402  -0.03484
 Alpha virt. eigenvalues --   -0.02007  -0.00241   0.03223   0.05181   0.06256
 Alpha virt. eigenvalues --    0.06486   0.07055   0.07790   0.08088   0.08839

 Mulliken charges:
               1
     1  C   -0.160880
     2  C   -0.163303
     3  C   -0.029270
     4  C    0.261212
     5  C   -0.302111
     6  C   -0.081832
     7  C    0.217396
     8  C   -0.024970
     9  C   -0.166124
    10  H    0.141546
    11  C   -0.153089
    12  C   -0.082115
    13  C   -0.288422
    14  H    0.140734
    15  H    0.123918
    16  H    0.143106
    17  H    0.144616
    18  H    0.144213
    19  C    0.287855
    20  C   -0.246790
    21  C   -0.136948
    22  C   -0.104327
    23  C   -0.156326
    24  H    0.149462
    25  H    0.137384
    26  H    0.171018
    27  H    0.151102
    28  H    0.142917
    29  N    0.022094
    30  H    0.148677
    31  S   -0.102075
    32  N   -0.328667
 Sum of Mulliken charges =  -0.00000

 Dipole moment (field-independent basis, Debye):
    X=             -0.5687    Y=             -2.5505    Z=              1.5073  Tot=              3.0167
 Quadrupole moment (field-independent basis, Debye-Ang):
   XX=           -107.8488   YY=           -103.0435   ZZ=           -122.7130
   XY=              3.1627   XZ=             -1.3361   YZ=              0.1177

 Normal termination of Gaussian 09 at Wed Mar 31 11:52:06 2021.
