                         Program Version 5.0.2 -  RELEASE  -
|  1> %maxcore 12800
|  2> %pal
|  3>  nprocs= 8
|  4> end
|  5> ! RI-DSD-BLYP D3BJ def2-TZVP def2/J def2-TZVP/C RIJCOSX CPCM TightSCF
|  6> %TDDFT DCORR 4
|  7>    NROOTS   30
|  8>
|  9>    TDA      FALSE
| 10> END
| 11>
| 12> %CPCM
| 13>    SMD          TRUE
| 14>    SMDsolvent   "N,N-DIMETHYLACETAMIDE"
| 15> END
| 16>
| 17>
| 18> * xyz 0 1
| 19> C                   1.78498200    3.61579300    0.39144600
| 20> C                   2.20379200    2.58769900   -0.43540600
| 21> C                   1.49430000    1.39147600   -0.46602100
| 22> C                   0.36462500    1.22004400    0.33615900
| 23> C                  -0.01286700    2.23891100    1.20492000
| 24> C                   0.68545000    3.43460500    1.22025500
| 25> C                   0.47514600   -1.18095600    0.35687300
| 26> C                   1.61588100   -1.27453500   -0.44220300
| 27> C                   2.42213300   -2.40628000   -0.38184000
| 28> H                   3.30685200   -2.46562000   -1.00308000
| 29> C                   2.08895600   -3.44627900    0.46949100
| 30> C                   0.97556700   -3.34084000    1.29286400
| 31> C                   0.18271400   -2.20659000    1.24985200
| 32> H                   3.08047900    2.70476600   -1.05984800
| 33> H                  -0.86497500    2.09113700    1.85230400
| 34> H                   0.37188900    4.22641400    1.88825000
| 35> H                   2.71247900   -4.33016600    0.50451700
| 36> H                   0.72800800   -4.14022300    1.97905800
| 37> C                  -1.69837000   -0.08293300   -0.00669100
| 38> C                  -2.33090100   -1.30352800   -0.29588900
| 39> C                  -3.67921100   -1.29392100   -0.57597000
| 40> C                  -3.66556300    1.05431100   -0.30206400
| 41> C                  -4.38179300   -0.09428900   -0.57245700
| 42> H                  -4.18073800   -2.22571500   -0.80700600
| 43> H                  -4.15711300    2.02321600   -0.30678800
| 44> H                  -1.77748200   -2.22993500   -0.32312100
| 45> H                  -5.44118200   -0.05318700   -0.78305900
| 46> H                   2.33172600    4.54980800    0.40452600
| 47> N                  -0.33140600   -0.01730600    0.26705500
| 48> H                  -0.68181400   -2.11432500    1.89480800
| 49> S                   2.01748800    0.06866300   -1.51189200
| 50> N                  -2.36244900    1.07289200   -0.02565600
| 51> *
| 52>
| 53>
| 54>                          ****END OF INPUT****

CARTESIAN COORDINATES (ANGSTROEM)
---------------------------------
  C      1.784982    3.615793    0.391446
  C      2.203792    2.587699   -0.435406
  C      1.494300    1.391476   -0.466021
  C      0.364625    1.220044    0.336159
  C     -0.012867    2.238911    1.204920
  C      0.685450    3.434605    1.220255
  C      0.475146   -1.180956    0.356873
  C      1.615881   -1.274535   -0.442203
  C      2.422133   -2.406280   -0.381840
  H      3.306852   -2.465620   -1.003080
  C      2.088956   -3.446279    0.469491
  C      0.975567   -3.340840    1.292864
  C      0.182714   -2.206590    1.249852
  H      3.080479    2.704766   -1.059848
  H     -0.864975    2.091137    1.852304
  H      0.371889    4.226414    1.888250
  H      2.712479   -4.330166    0.504517
  H      0.728008   -4.140223    1.979058
  C     -1.698370   -0.082933   -0.006691
  C     -2.330901   -1.303528   -0.295889
  C     -3.679211   -1.293921   -0.575970
  C     -3.665563    1.054311   -0.302064
  C     -4.381793   -0.094289   -0.572457
  H     -4.180738   -2.225715   -0.807006
  H     -4.157113    2.023216   -0.306788
  H     -1.777482   -2.229935   -0.323121
  H     -5.441182   -0.053187   -0.783059
  H      2.331726    4.549808    0.404526
  N     -0.331406   -0.017306    0.267055
  H     -0.681814   -2.114325    1.894808
  S      2.017488    0.068663   -1.511892
  N     -2.362449    1.072892   -0.025656

 Total Charge           Charge          ....    0
 Multiplicity           Mult            ....    1
 Number of Electrons    NEL             ....  144
 Basis Dimension        Dim             ....  698

ORBITAL ENERGIES
----------------

  NO   OCC          E(Eh)            E(eV)
   0   2.0000     -90.781920     -2470.3016
   1   2.0000     -15.122963      -411.5168
   2   2.0000     -15.078155      -410.2975
   3   2.0000     -10.915790      -297.0338
   4   2.0000     -10.880399      -296.0707
   5   2.0000     -10.878620      -296.0223
   6   2.0000     -10.867257      -295.7131
   7   2.0000     -10.865855      -295.6749
   8   2.0000     -10.863156      -295.6015
   9   2.0000     -10.843054      -295.0545
  10   2.0000     -10.836843      -294.8855
  11   2.0000     -10.834634      -294.8254
  12   2.0000     -10.833704      -294.8001
  13   2.0000     -10.831623      -294.7435
  14   2.0000     -10.830743      -294.7195
  15   2.0000     -10.830544      -294.7141
  16   2.0000     -10.829327      -294.6810
  17   2.0000     -10.828241      -294.6514
  18   2.0000     -10.825458      -294.5757
  19   2.0000     -10.818777      -294.3939
  20   2.0000      -8.578221      -233.4253
  21   2.0000      -6.369046      -173.3106
  22   2.0000      -6.367025      -173.2555
  23   2.0000      -6.364855      -173.1965
  24   2.0000      -1.195901       -32.5421
  25   2.0000      -1.128623       -30.7114
  26   2.0000      -1.055106       -28.7109
  27   2.0000      -1.046391       -28.4738
  28   2.0000      -0.980623       -26.6841
  29   2.0000      -0.979777       -26.6611
  30   2.0000      -0.935466       -25.4553
  31   2.0000      -0.931236       -25.3402
  32   2.0000      -0.923198       -25.1215
  33   2.0000      -0.893529       -24.3142
  34   2.0000      -0.841448       -22.8970
  35   2.0000      -0.790246       -21.5037
  36   2.0000      -0.786457       -21.4006
  37   2.0000      -0.754032       -20.5183
  38   2.0000      -0.743129       -20.2216
  39   2.0000      -0.739643       -20.1267
  40   2.0000      -0.699359       -19.0305
  41   2.0000      -0.663991       -18.0681
  42   2.0000      -0.658682       -17.9236
  43   2.0000      -0.615035       -16.7360
  44   2.0000      -0.604258       -16.4427
  45   2.0000      -0.594980       -16.1902
  46   2.0000      -0.582444       -15.8491
  47   2.0000      -0.577374       -15.7111
  48   2.0000      -0.571356       -15.5474
  49   2.0000      -0.552353       -15.0303
  50   2.0000      -0.549223       -14.9451
  51   2.0000      -0.538447       -14.6519
  52   2.0000      -0.524818       -14.2810
  53   2.0000      -0.518396       -14.1063
  54   2.0000      -0.504517       -13.7286
  55   2.0000      -0.498303       -13.5595
  56   2.0000      -0.484675       -13.1887
  57   2.0000      -0.477024       -12.9805
  58   2.0000      -0.466432       -12.6923
  59   2.0000      -0.460831       -12.5399
  60   2.0000      -0.454138       -12.3577
  61   2.0000      -0.438595       -11.9348
  62   2.0000      -0.423875       -11.5342
  63   2.0000      -0.407728       -11.0948
  64   2.0000      -0.378777       -10.3071
  65   2.0000      -0.365828        -9.9547
  66   2.0000      -0.351554        -9.5663
  67   2.0000      -0.325680        -8.8622
  68   2.0000      -0.318548        -8.6681
  69   2.0000      -0.309685        -8.4270
  70   2.0000      -0.281281        -7.6540
  71   2.0000      -0.257325        -7.0022
  72   0.0000       0.049006         1.3335
  73   0.0000       0.050388         1.3711
  74   0.0000       0.057215         1.5569
  75   0.0000       0.060690         1.6515
  76   0.0000       0.075198         2.0462

MULLIKEN ATOMIC CHARGES
-----------------------
   0 C :   -0.194156
   1 C :   -0.138878
   2 C :   -0.122828
   3 C :    0.314447
   4 C :   -0.363200
   5 C :   -0.084135
   6 C :    0.272281
   7 C :   -0.120228
   8 C :   -0.140533
   9 H :    0.166693
  10 C :   -0.188885
  11 C :   -0.090957
  12 C :   -0.368482
  13 H :    0.165759
  14 H :    0.150828
  15 H :    0.164029
  16 H :    0.165676
  17 H :    0.165627
  18 C :    0.381726
  19 C :   -0.322860
  20 C :   -0.119587
  21 C :   -0.039989
  22 C :   -0.190371
  23 H :    0.173111
  24 H :    0.156892
  25 H :    0.184965
  26 H :    0.168408
  27 H :    0.164568
  28 N :   -0.018901
  29 H :    0.176239
  30 S :   -0.029179
  31 N :   -0.438078
Sum of atomic charges:   -0.0000000

LOEWDIN ATOMIC CHARGES
----------------------
   0 C :   -0.144593
   1 C :   -0.145199
   2 C :   -0.328302
   3 C :   -0.159126
   4 C :   -0.102218
   5 C :   -0.142184
   6 C :   -0.164447
   7 C :   -0.328491
   8 C :   -0.139728
   9 H :    0.154127
  10 C :   -0.141263
  11 C :   -0.137898
  12 C :   -0.102300
  13 H :    0.153346
  14 H :    0.156431
  15 H :    0.152620
  16 H :    0.153201
  17 H :    0.153613
  18 C :   -0.219211
  19 C :   -0.135396
  20 C :   -0.107559
  21 C :   -0.197331
  22 C :   -0.182052
  23 H :    0.157466
  24 H :    0.143932
  25 H :    0.159830
  26 H :    0.150206
  27 H :    0.152537
  28 N :    0.265698
  29 H :    0.161357
  30 S :    0.660323
  31 N :    0.102612

  Mayer bond orders larger than 0.100000
B(  0-C ,  1-C ) :   1.4222 B(  0-C ,  5-C ) :   1.3807 B(  0-C , 27-H ) :   0.9804
B(  1-C ,  2-C ) :   1.3426 B(  1-C , 13-H ) :   0.9764 B(  2-C ,  3-C ) :   1.3437
B(  2-C , 30-S ) :   1.0784 B(  3-C ,  4-C ) :   1.3852 B(  3-C , 28-N ) :   0.8889
B(  4-C ,  5-C ) :   1.4222 B(  4-C , 14-H ) :   0.9816 B(  5-C , 15-H ) :   0.9799
B(  6-C ,  7-C ) :   1.3259 B(  6-C , 12-C ) :   1.3703 B(  6-C , 28-N ) :   0.9306
B(  7-C ,  8-C ) :   1.3490 B(  7-C , 30-S ) :   1.0895 B(  8-C ,  9-H ) :   0.9746
B(  8-C , 10-C ) :   1.4171 B( 10-C , 11-C ) :   1.3834 B( 10-C , 16-H ) :   0.9804
B( 11-C , 12-C ) :   1.4224 B( 11-C , 17-H ) :   0.9790 B( 12-C , 29-H ) :   0.9842
B( 18-C , 19-C ) :   1.3445 B( 18-C , 28-N ) :   1.1389 B( 18-C , 31-N ) :   1.3449
B( 19-C , 20-C ) :   1.5054 B( 19-C , 25-H ) :   0.9672 B( 20-C , 22-C ) :   1.3685
B( 20-C , 23-H ) :   0.9653 B( 21-C , 22-C ) :   1.4522 B( 21-C , 24-H ) :   0.9750
B( 21-C , 31-N ) :   1.4699 B( 22-C , 26-H ) :   0.9673

MP2 TOTAL ENERGY:    -1161.792125969 Eh

-----------------------------------------------------------------------------
         ABSORPTION SPECTRUM VIA TRANSITION ELECTRIC DIPOLE MOMENTS
-----------------------------------------------------------------------------
State   Energy    Wavelength  fosc         T2        TX        TY        TZ
        (cm-1)      (nm)                 (au**2)    (au)      (au)      (au)
-----------------------------------------------------------------------------
   1   27911.3    358.3   0.197484860   2.32932  -1.47390   0.38183  -0.10556
   2   32278.3    309.8   0.084864258   0.86554   0.82372   0.42187   0.09518
   3   28614.8    349.5   0.026219763   0.30166  -0.50238   0.02061  -0.22102
   4   31020.5    322.4   0.039584023   0.42009   0.61774   0.09956  -0.16904
   5   30879.7    323.8   0.007472672   0.07967   0.05272  -0.27663   0.01910
   6   39366.1    254.0   0.179682716   1.50266  -0.50404   1.01526  -0.46673
   7   39829.2    251.1   0.161662597   1.33624  -0.51931  -0.80507  -0.64685
   8   34703.7    288.2   0.023375194   0.22175  -0.44622   0.04894   0.14225
   9   34907.6    286.5   0.225361964   2.12538  -1.12390   0.41490   0.83071
  10   38377.2    260.6   0.535911694   4.59722   0.37166   2.09341  -0.27696
  11   38905.4    257.0   0.199720820   1.69001  -0.05539   1.28528   0.18708
  12   39614.3    252.4   0.038399992   0.31912   0.42382  -0.36939  -0.05517
  13   34924.8    286.3   0.022333018   0.21052  -0.17851   0.42258   0.00861
  14   40188.7    248.8   0.184225612   1.50911  -1.18844   0.28689   0.12009
  15   34921.8    286.4   0.193459594   1.82377   0.43553   1.26650  -0.17336
  16   37018.3    270.1   0.016894962   0.15025   0.28245   0.03171   0.26357
  17   37354.5    267.7   0.090517706   0.79775   0.32078   0.81896  -0.15543
  18   35790.4    279.4   0.085125547   0.78301  -0.72204   0.42751   0.28089
  19   46519.0    215.0   0.269604552   1.90797  -1.04447  -0.15976  -0.88968
  20   46666.1    214.3   0.037625548   0.26543  -0.33985   0.37783   0.08471
  21   42056.1    237.8   0.284884151   2.23005  -0.22232  -1.47641  -0.02912
  22   46481.0    215.1   0.234083043   1.65794  -0.79879  -0.18490   0.99282
  23   42180.1    237.1   0.058535940   0.45687   0.58790   0.27370  -0.19061
  24   44387.1    225.3   0.212865846   1.57879  -1.01439  -0.10575   0.73391
  25   38078.0    262.6   0.088575305   0.76580  -0.61993   0.57500   0.22552
  26   41457.3    241.2   0.132827765   1.05478  -0.89769  -0.49839  -0.02322
  27   40024.8    249.8   0.033778504   0.27784  -0.41083   0.29746   0.14343
  28   45475.0    219.9   0.169327422   1.22583   0.44120  -0.98785  -0.23521
  29   45427.3    220.1   0.096516684   0.69946  -0.34152   0.75999  -0.07234
  30   44214.9    226.2   0.007978537   0.05941   0.08801   0.00441  -0.22725

Dispersion correction           -0.033634311
FINAL SINGLE POINT ENERGY     -1160.119901619850

DIPOLE MOMENT
-------------
                                X             Y             Z
Electronic contribution:      4.12423       0.86615      -3.57397
Nuclear contribution   :     -4.55042      -1.91781       4.19685
                        -----------------------------------------
Total Dipole Moment    :     -0.42619      -1.05166       0.62288
                        -----------------------------------------
Magnitude (a.u.)       :      1.29445
Magnitude (Debye)      :      3.29023

Rotational constants in cm-1:     0.012999     0.011538     0.007110
Rotational constants in MHz :   389.700536   345.907776   213.155237

                             ****ORCA TERMINATED NORMALLY****
TOTAL RUN TIME: 0 days 0 hours 21 minutes 14 seconds 126 msec
