                         Program Version 5.0.2 -  RELEASE  -
|  1> %maxcore 20000
|  2> %pal
|  3>  nprocs= 4
|  4> end
|  5> ! RI-B2GP-PLYP   def2-TZVP def2/J def2-TZVP/C RIJCOSX CPCM TightSCF
|  6> %TDDFT
|  7>    NROOTS   30
|  8>    dcorr 4
|  9>    TDA      FALSE
| 10> END
| 11>
| 12> %CPCM
| 13>    SMD          TRUE
| 14>    SMDsolvent   "N,N-DIMETHYLACETAMIDE"
| 15> END
| 16>
| 17>
| 18> * xyz 0 1
| 19> C                   1.78498200    3.61579300    0.39144600
| 20> C                   2.20379200    2.58769900   -0.43540600
| 21> C                   1.49430000    1.39147600   -0.46602100
| 22> C                   0.36462500    1.22004400    0.33615900
| 23> C                  -0.01286700    2.23891100    1.20492000
| 24> C                   0.68545000    3.43460500    1.22025500
| 25> C                   0.47514600   -1.18095600    0.35687300
| 26> C                   1.61588100   -1.27453500   -0.44220300
| 27> C                   2.42213300   -2.40628000   -0.38184000
| 28> H                   3.30685200   -2.46562000   -1.00308000
| 29> C                   2.08895600   -3.44627900    0.46949100
| 30> C                   0.97556700   -3.34084000    1.29286400
| 31> C                   0.18271400   -2.20659000    1.24985200
| 32> H                   3.08047900    2.70476600   -1.05984800
| 33> H                  -0.86497500    2.09113700    1.85230400
| 34> H                   0.37188900    4.22641400    1.88825000
| 35> H                   2.71247900   -4.33016600    0.50451700
| 36> H                   0.72800800   -4.14022300    1.97905800
| 37> C                  -1.69837000   -0.08293300   -0.00669100
| 38> C                  -2.33090100   -1.30352800   -0.29588900
| 39> C                  -3.67921100   -1.29392100   -0.57597000
| 40> C                  -3.66556300    1.05431100   -0.30206400
| 41> C                  -4.38179300   -0.09428900   -0.57245700
| 42> H                  -4.18073800   -2.22571500   -0.80700600
| 43> H                  -4.15711300    2.02321600   -0.30678800
| 44> H                  -1.77748200   -2.22993500   -0.32312100
| 45> H                  -5.44118200   -0.05318700   -0.78305900
| 46> H                   2.33172600    4.54980800    0.40452600
| 47> N                  -0.33140600   -0.01730600    0.26705500
| 48> H                  -0.68181400   -2.11432500    1.89480800
| 49> S                   2.01748800    0.06866300   -1.51189200
| 50> N                  -2.36244900    1.07289200   -0.02565600
| 51> *
| 52>
| 53>
| 54>                          ****END OF INPUT****

CARTESIAN COORDINATES (ANGSTROEM)
---------------------------------
  C      1.784982    3.615793    0.391446
  C      2.203792    2.587699   -0.435406
  C      1.494300    1.391476   -0.466021
  C      0.364625    1.220044    0.336159
  C     -0.012867    2.238911    1.204920
  C      0.685450    3.434605    1.220255
  C      0.475146   -1.180956    0.356873
  C      1.615881   -1.274535   -0.442203
  C      2.422133   -2.406280   -0.381840
  H      3.306852   -2.465620   -1.003080
  C      2.088956   -3.446279    0.469491
  C      0.975567   -3.340840    1.292864
  C      0.182714   -2.206590    1.249852
  H      3.080479    2.704766   -1.059848
  H     -0.864975    2.091137    1.852304
  H      0.371889    4.226414    1.888250
  H      2.712479   -4.330166    0.504517
  H      0.728008   -4.140223    1.979058
  C     -1.698370   -0.082933   -0.006691
  C     -2.330901   -1.303528   -0.295889
  C     -3.679211   -1.293921   -0.575970
  C     -3.665563    1.054311   -0.302064
  C     -4.381793   -0.094289   -0.572457
  H     -4.180738   -2.225715   -0.807006
  H     -4.157113    2.023216   -0.306788
  H     -1.777482   -2.229935   -0.323121
  H     -5.441182   -0.053187   -0.783059
  H      2.331726    4.549808    0.404526
  N     -0.331406   -0.017306    0.267055
  H     -0.681814   -2.114325    1.894808
  S      2.017488    0.068663   -1.511892
  N     -2.362449    1.072892   -0.025656

 Total Charge           Charge          ....    0
 Multiplicity           Mult            ....    1
 Number of Electrons    NEL             ....  144
 Basis Dimension        Dim             ....  698

ORBITAL ENERGIES
----------------

  NO   OCC          E(Eh)            E(eV)
   0   2.0000     -90.630369     -2466.1777
   1   2.0000     -15.063101      -409.8878
   2   2.0000     -15.017912      -408.6582
   3   2.0000     -10.864187      -295.6296
   4   2.0000     -10.829352      -294.6817
   5   2.0000     -10.827565      -294.6330
   6   2.0000     -10.816318      -294.3270
   7   2.0000     -10.814908      -294.2886
   8   2.0000     -10.811767      -294.2031
   9   2.0000     -10.791737      -293.6581
  10   2.0000     -10.785855      -293.4980
  11   2.0000     -10.783653      -293.4381
  12   2.0000     -10.782801      -293.4149
  13   2.0000     -10.780643      -293.3562
  14   2.0000     -10.779825      -293.3339
  15   2.0000     -10.779606      -293.3280
  16   2.0000     -10.778363      -293.2942
  17   2.0000     -10.777288      -293.2649
  18   2.0000     -10.774854      -293.1987
  19   2.0000     -10.768126      -293.0156
  20   2.0000      -8.528856      -232.0820
  21   2.0000      -6.333731      -172.3496
  22   2.0000      -6.331590      -172.2913
  23   2.0000      -6.329200      -172.2263
  24   2.0000      -1.181287       -32.1445
  25   2.0000      -1.114599       -30.3298
  26   2.0000      -1.041735       -28.3470
  27   2.0000      -1.033278       -28.1169
  28   2.0000      -0.968388       -26.3512
  29   2.0000      -0.967164       -26.3179
  30   2.0000      -0.923489       -25.1294
  31   2.0000      -0.919252       -25.0141
  32   2.0000      -0.911252       -24.7964
  33   2.0000      -0.881955       -23.9992
  34   2.0000      -0.830917       -22.6104
  35   2.0000      -0.780471       -21.2377
  36   2.0000      -0.776650       -21.1337
  37   2.0000      -0.744470       -20.2580
  38   2.0000      -0.733609       -19.9625
  39   2.0000      -0.730321       -19.8730
  40   2.0000      -0.690435       -18.7877
  41   2.0000      -0.656032       -17.8515
  42   2.0000      -0.650991       -17.7144
  43   2.0000      -0.607451       -16.5296
  44   2.0000      -0.596749       -16.2384
  45   2.0000      -0.587507       -15.9869
  46   2.0000      -0.575142       -15.6504
  47   2.0000      -0.570032       -15.5114
  48   2.0000      -0.564212       -15.3530
  49   2.0000      -0.545222       -14.8362
  50   2.0000      -0.542200       -14.7540
  51   2.0000      -0.531615       -14.4660
  52   2.0000      -0.518415       -14.1068
  53   2.0000      -0.512035       -13.9332
  54   2.0000      -0.497797       -13.5458
  55   2.0000      -0.492035       -13.3889
  56   2.0000      -0.478540       -13.0217
  57   2.0000      -0.470715       -12.8088
  58   2.0000      -0.460805       -12.5391
  59   2.0000      -0.454839       -12.3768
  60   2.0000      -0.448104       -12.1935
  61   2.0000      -0.432989       -11.7822
  62   2.0000      -0.418821       -11.3967
  63   2.0000      -0.402664       -10.9570
  64   2.0000      -0.374226       -10.1832
  65   2.0000      -0.359882        -9.7929
  66   2.0000      -0.348166        -9.4741
  67   2.0000      -0.322914        -8.7869
  68   2.0000      -0.315764        -8.5924
  69   2.0000      -0.306951        -8.3526
  70   2.0000      -0.278493        -7.5782
  71   2.0000      -0.254524        -6.9259
  72   0.0000       0.040867         1.1120
  73   0.0000       0.042342         1.1522
  74   0.0000       0.049069         1.3352
  75   0.0000       0.052591         1.4311
  76   0.0000       0.066810         1.8180

MULLIKEN ATOMIC CHARGES
-----------------------
   0 C :   -0.193286
   1 C :   -0.141156
   2 C :   -0.115189
   3 C :    0.306438
   4 C :   -0.358254
   5 C :   -0.087220
   6 C :    0.265035
   7 C :   -0.112537
   8 C :   -0.142676
   9 H :    0.166503
  10 C :   -0.187990
  11 C :   -0.093152
  12 C :   -0.364022
  13 H :    0.165566
  14 H :    0.151410
  15 H :    0.164137
  16 H :    0.165752
  17 H :    0.165753
  18 C :    0.374362
  19 C :   -0.317950
  20 C :   -0.121616
  21 C :   -0.044209
  22 C :   -0.190105
  23 H :    0.173130
  24 H :    0.157227
  25 H :    0.185845
  26 H :    0.168248
  27 H :    0.164611
  28 N :   -0.019986
  29 H :    0.176929
  30 S :   -0.030873
  31 N :   -0.430727
Sum of atomic charges:    0.0000000

LOEWDIN ATOMIC CHARGES
----------------------
   0 C :   -0.144918
   1 C :   -0.145554
   2 C :   -0.328521
   3 C :   -0.159703
   4 C :   -0.102731
   5 C :   -0.142633
   6 C :   -0.164998
   7 C :   -0.328697
   8 C :   -0.140106
   9 H :    0.154495
  10 C :   -0.141567
  11 C :   -0.138363
  12 C :   -0.102740
  13 H :    0.153714
  14 H :    0.156794
  15 H :    0.152995
  16 H :    0.153596
  17 H :    0.153988
  18 C :   -0.221289
  19 C :   -0.134727
  20 C :   -0.109115
  21 C :   -0.199296
  22 C :   -0.181374
  23 H :    0.157750
  24 H :    0.144205
  25 H :    0.160247
  26 H :    0.150647
  27 H :    0.152929
  28 N :    0.267215
  29 H :    0.161779
  30 S :    0.661362
  31 N :    0.104615

  Mayer bond orders larger than 0.100000
B(  0-C ,  1-C ) :   1.4217 B(  0-C ,  5-C ) :   1.3805 B(  0-C , 27-H ) :   0.9794
B(  1-C ,  2-C ) :   1.3397 B(  1-C , 13-H ) :   0.9756 B(  2-C ,  3-C ) :   1.3418
B(  2-C , 30-S ) :   1.0791 B(  3-C ,  4-C ) :   1.3826 B(  3-C , 28-N ) :   0.8918
B(  4-C ,  5-C ) :   1.4208 B(  4-C , 14-H ) :   0.9802 B(  5-C , 15-H ) :   0.9789
B(  6-C ,  7-C ) :   1.3250 B(  6-C , 12-C ) :   1.3674 B(  6-C , 28-N ) :   0.9318
B(  7-C ,  8-C ) :   1.3462 B(  7-C , 30-S ) :   1.0902 B(  8-C ,  9-H ) :   0.9738
B(  8-C , 10-C ) :   1.4167 B( 10-C , 11-C ) :   1.3829 B( 10-C , 16-H ) :   0.9794
B( 11-C , 12-C ) :   1.4204 B( 11-C , 17-H ) :   0.9780 B( 12-C , 29-H ) :   0.9832
B( 18-C , 19-C ) :   1.3431 B( 18-C , 28-N ) :   1.1394 B( 18-C , 31-N ) :   1.3438
B( 19-C , 20-C ) :   1.5044 B( 19-C , 25-H ) :   0.9650 B( 20-C , 22-C ) :   1.3682
B( 20-C , 23-H ) :   0.9645 B( 21-C , 22-C ) :   1.4507 B( 21-C , 24-H ) :   0.9739
B( 21-C , 31-N ) :   1.4722 B( 22-C , 26-H ) :   0.9662

MP2 TOTAL ENERGY:    -1162.051043511 Eh

-----------------------------------------------------------------------------
         ABSORPTION SPECTRUM VIA TRANSITION ELECTRIC DIPOLE MOMENTS
-----------------------------------------------------------------------------
State   Energy    Wavelength  fosc         T2        TX        TY        TZ
        (cm-1)      (nm)                 (au**2)    (au)      (au)      (au)
-----------------------------------------------------------------------------
   1   34754.2    287.7   0.253728837   2.40347  -1.50745   0.34473  -0.11058
   2   36530.0    273.7   0.094086195   0.84791  -0.81277  -0.41925  -0.10744
   3   35786.5    279.4   0.025084905   0.23076  -0.42340   0.05734  -0.21957
   4   37669.2    265.5   0.054031030   0.47221   0.66070   0.07698  -0.17250
   5   38416.8    260.3   0.009371460   0.08031   0.04339  -0.27921   0.02156
   6   42908.7    233.1   0.220868531   1.69459  -0.44667   1.12409  -0.48114
   7   43284.6    231.0   0.182763265   1.39005  -0.43519  -0.83400  -0.71071
   8   42558.9    235.0   0.029493077   0.22814   0.46990  -0.00416  -0.08556
   9   43193.7    231.5   0.247561567   1.88686   1.13791  -0.24643  -0.72890
  10   44961.4    222.4   0.570913379   4.18029  -0.30618  -2.01430   0.17066
  11   45503.9    219.8   0.173283558   1.25367  -0.07263   1.10605   0.15830
  12   46047.5    217.2   0.035252301   0.25203  -0.24957   0.42859   0.07782
  13   45524.1    219.7   0.009659434   0.06985   0.04802  -0.25940   0.01613
  14   47726.5    209.5   0.214322932   1.47838  -0.75924   0.94947   0.02112
  15   47646.1    209.9   0.221546587   1.53078   0.82197   0.89286  -0.24075
  16   48193.0    207.5   0.038632344   0.26390   0.47654   0.00342   0.19183
  17   48865.2    204.6   0.104804324   0.70608  -0.43172  -0.69708   0.18380
  18   47701.0    209.6   0.096883874   0.66865   0.46410  -0.60358  -0.29824
  19   52679.2    189.8   0.298554529   1.86578   1.06035   0.02556   0.86069
  20   52087.1    192.0   0.341278322   2.15702  -0.07235   1.46329   0.10277
  21   53266.8    187.7   0.110743188   0.68444  -0.39002  -0.72829  -0.04380
  22   53155.4    188.1   0.299594021   1.85550   0.95232   0.24178  -0.94347
  23   52114.8    191.9   0.013694646   0.08651   0.13023   0.03247   0.26172
  24   50759.8    197.0   0.062711047   0.40672  -0.23966   0.58590   0.07754
  25   53782.0    185.9   0.439074667   2.68768   1.40667   0.21326  -0.81453
  26   52812.5    189.3   0.141856617   0.88428   0.81002   0.45181   0.15498
  27   51995.3    192.3   0.036063781   0.22834   0.41162  -0.21353  -0.11540
  28   54350.7    184.0   0.097351312   0.58967  -0.20137   0.69338   0.26143
  29   55349.5    180.7   0.268396765   1.59639  -0.56034   1.12627   0.11796
  30   54412.4    183.8   0.005492740   0.03323   0.00206  -0.13963  -0.11718

FINAL SINGLE POINT ENERGY     -1160.564870369495

DIPOLE MOMENT
-------------
                                X             Y             Z
Electronic contribution:      4.13317       0.86696      -3.57878
Nuclear contribution   :     -4.55042      -1.91781       4.19685
                        -----------------------------------------
Total Dipole Moment    :     -0.41725      -1.05085       0.61807
                        -----------------------------------------
Magnitude (a.u.)       :      1.28857
Magnitude (Debye)      :      3.27527

Rotational constants in cm-1:     0.012999     0.011538     0.007110
Rotational constants in MHz :   389.700536   345.907776   213.155237

                             ****ORCA TERMINATED NORMALLY****
TOTAL RUN TIME: 0 days 1 hours 51 minutes 23 seconds 17 msec
