 Gaussian 09, Revision E.01,

 ----------------------------------------------------------------------
 #p b3lyp/def2TZVP opt freq=noraman nosymm int=ultrafine scrf=(SMD,solv
 ent=n,n-DiMethylAcetamide) EmpiricalDispersion=GD3BJ
 ----------------------------------------------------------------------

 -----
 Title
 -----
 Symbolic Z-matrix:
 Charge =  0 Multiplicity = 1

 SCF Done:  E(RB3LYP) =  -1163.13484538     A.U. after   13 cycles
 SCF Done:  E(RB3LYP) =  -1163.13672635     A.U. after   11 cycles
 SCF Done:  E(RB3LYP) =  -1163.13687888     A.U. after   10 cycles
 SCF Done:  E(RB3LYP) =  -1163.13705217     A.U. after   10 cycles
 SCF Done:  E(RB3LYP) =  -1163.13712331     A.U. after   10 cycles
 SCF Done:  E(RB3LYP) =  -1163.13716361     A.U. after   10 cycles
 SCF Done:  E(RB3LYP) =  -1163.13716749     A.U. after    9 cycles
 SCF Done:  E(RB3LYP) =  -1163.13717063     A.U. after    8 cycles
 SCF Done:  E(RB3LYP) =  -1163.13717121     A.U. after    7 cycles
 SCF Done:  E(RB3LYP) =  -1163.13717138     A.U. after    7 cycles
 SCF Done:  E(RB3LYP) =  -1163.13717142     A.U. after    6 cycles
 Optimization completed.
    -- Stationary point found.

 1\1\GINC-CN020\FOpt\RB3LYP\def2TZVP\C17H12N2S1\PNG4RJV\16-Feb-2021\0\\
 #p b3lyp/def2TZVP opt freq=noraman nosymm int=ultrafine scrf=(SMD,solv
 ent=n,n-DiMethylAcetamide) EmpiricalDispersion=GD3BJ\\Title\\0,1\C,-1.
 9328560998,3.5463046771,-0.3619081125\C,-2.2658185642,2.495025353,0.48
 08309741\C,-1.4995494791,1.3315307233,0.4688060927\C,-0.4059366178,1.2
 140547246,-0.3923239309\C,-0.1098482382,2.2541540325,-1.2683779585\C,-
 0.8618091675,3.4208762411,-1.2428545614\C,-0.4092492948,-1.1965057227,
 -0.4252642834\C,-1.4974550949,-1.3493913175,0.4368855602\C,-2.25164029

 Normal termination of Gaussian 09 at Tue Feb 16 01:11:24 2021.

 --------------------------------------------------------------------
 #P Geom=AllCheck Guess=TCheck SCRF=Check GenChk RB3LYP/def2TZVP Freq
 --------------------------------------------------------------------

 Structure from the checkpoint file:  "cp.chk"
 -----
 Title
 -----
 Charge =  0 Multiplicity = 1

 SCF Done:  E(RB3LYP) =  -1163.13717142     A.U. after    1 cycles

  Exact polarizability: 367.879   3.947 412.364 -26.825  -2.509 251.786
 Approx polarizability: 389.223   4.802 433.361 -39.564  -3.774 295.323

                      1                      2                      3
                      A                      A                      A
 Frequencies --     39.7493                48.3795                66.8934
 Red. masses --      5.6573                 4.6222                 5.7629
 Frc consts  --      0.0053                 0.0064                 0.0152
 IR Inten    --      1.1386                 4.9506                 2.8076

                      4                      5                      6
                      A                      A                      A
 Frequencies --     81.5694               142.3790               156.7593
 Red. masses --      4.7588                 4.2039                 4.3959
 Frc consts  --      0.0187                 0.0502                 0.0636
 IR Inten    --      0.7165                 1.4719                 1.8650

                      7                      8                      9
                      A                      A                      A
 Frequencies --    178.5114               226.6097               256.1289
 Red. masses --      5.7321                 6.1054                 5.2547
 Frc consts  --      0.1076                 0.1847                 0.2031
 IR Inten    --      1.0616                 3.8623                 1.6938

                     10                     11                     12
                      A                      A                      A
 Frequencies --    321.7725               326.5623               355.3892
 Red. masses --      5.4945                 5.6282                 6.4332
 Frc consts  --      0.3352                 0.3536                 0.4787
 IR Inten    --      5.1081                 5.6931                 4.4739

                     13                     14                     15
                      A                      A                      A
 Frequencies --    396.0542               396.9680               421.7218
 Red. masses --      9.3502                 5.1619                 3.5812
 Frc consts  --      0.8641                 0.4793                 0.3753
 IR Inten    --      4.5125                 2.2200                 6.9550

                     16                     17                     18
                      A                      A                      A
 Frequencies --    451.8748               456.5529               475.6271
 Red. masses --      9.8299                 3.3995                 3.7082
 Frc consts  --      1.1826                 0.4175                 0.4943
 IR Inten    --      2.0476                 0.2843                33.4116

                     19                     20                     21
                      A                      A                      A
 Frequencies --    516.0630               541.4066               542.4333
 Red. masses --      3.0417                 4.9579                 4.2923
 Frc consts  --      0.4773                 0.8562                 0.7441
 IR Inten    --      3.8832                 2.2693                 1.8453

                     22                     23                     24
                      A                      A                      A
 Frequencies --    577.2666               633.7587               647.1979
 Red. masses --      4.4587                 6.7788                 6.7217
 Frc consts  --      0.8754                 1.6042                 1.6588
 IR Inten    --      6.9746                17.9491                 9.2217

                     25                     26                     27
                      A                      A                      A
 Frequencies --    657.3045               700.0391               711.9536
 Red. masses --      5.7958                 6.5373                 6.3921
 Frc consts  --      1.4754                 1.8875                 1.9090
 IR Inten    --     27.7361                 4.2174                 8.9308

                     28                     29                     30
                      A                      A                      A
 Frequencies --    752.8082               754.2632               758.3913
 Red. masses --      2.5036                 2.0567                 2.2364
 Frc consts  --      0.8360                 0.6894                 0.7578
 IR Inten    --     12.9550                57.1304                28.0442

                     31                     32                     33
                      A                      A                      A
 Frequencies --    768.0107               769.1724               779.6659
 Red. masses --      2.5762                 1.5364                 2.0673
 Frc consts  --      0.8953                 0.5356                 0.7404
 IR Inten    --    105.5184                30.3894                30.9020

                     34                     35                     36
                      A                      A                      A
 Frequencies --    791.4114               880.6769               881.1464
 Red. masses --      2.7475                 1.4122                 1.4159
 Frc consts  --      1.0139                 0.6453                 0.6477
 IR Inten    --     98.2559                 1.7004                 6.8580

                     37                     38                     39
                      A                      A                      A
 Frequencies --    886.9080               940.5385               956.8121
 Red. masses --      1.4162                 5.3508                 1.9766
 Frc consts  --      0.6563                 2.7888                 1.0662
 IR Inten    --      1.1009                 0.2477                 2.6498

                     40                     41                     42
                      A                      A                      A
 Frequencies --    968.5966               976.8177               982.6964
 Red. masses --      1.6488                 2.1164                 1.4084
 Frc consts  --      0.9114                 1.1898                 0.8013
 IR Inten    --      0.3391                 4.7485                 0.8936

                     43                     44                     45
                      A                      A                      A
 Frequencies --    993.6859               998.2270              1005.4733
 Red. masses --      1.3034                 1.3173                 5.9706
 Frc consts  --      0.7583                 0.7734                 3.5564
 IR Inten    --      0.2151                 0.2979                33.0733

                     46                     47                     48
                      A                      A                      A
 Frequencies --   1013.9907              1056.5667              1057.0125
 Red. masses --      1.3351                 2.6807                 2.6063
 Frc consts  --      0.8088                 1.7632                 1.7157
 IR Inten    --      0.0277                25.1257                21.3400

                     49                     50                     51
                      A                      A                      A
 Frequencies --   1074.5601              1082.4614              1099.7900
 Red. masses --      2.2774                 3.1097                 3.7416
 Frc consts  --      1.5493                 2.1468                 2.6664
 IR Inten    --      9.0286                 7.9785                23.2757

                     52                     53                     54
                      A                      A                      A
 Frequencies --   1127.4776              1143.5714              1150.9660
 Red. masses --      1.4849                 1.6511                 1.5787
 Frc consts  --      1.1122                 1.2722                 1.2321
 IR Inten    --      1.8227                25.9209                 6.2213

                     55                     56                     57
                      A                      A                      A
 Frequencies --   1176.0787              1176.5881              1179.2767
 Red. masses --      1.1038                 1.0963                 1.1386
 Frc consts  --      0.8995                 0.8942                 0.9329
 IR Inten    --      1.2366                 0.0796                28.1494

                     58                     59                     60
                      A                      A                      A
 Frequencies --   1227.9531              1257.3937              1291.8372
 Red. masses --      3.0330                 2.0418                 1.7536
 Frc consts  --      2.6945                 1.9019                 1.7242
 IR Inten    --     10.4847                57.2671               232.1569

                     61                     62                     63
                      A                      A                      A
 Frequencies --   1298.2031              1307.9435              1320.6915
 Red. masses --      2.2083                 4.7567                 6.3799
 Frc consts  --      2.1928                 4.7944                 6.5564
 IR Inten    --     30.2654                 5.1542                17.0549

                     64                     65                     66
                      A                      A                      A
 Frequencies --   1323.5154              1345.2587              1354.5238
 Red. masses --      6.3635                 3.6774                 2.0077
 Frc consts  --      6.5675                 3.9210                 2.1703
 IR Inten    --     88.2429               486.5297                64.9787

                     67                     68                     69
                      A                      A                      A
 Frequencies --   1459.8902              1473.8247              1481.2753
 Red. masses --      2.1646                 2.1645                 2.3259
 Frc consts  --      2.7181                 2.7701                 3.0068
 IR Inten    --    370.6404                88.9486                17.2396

                     70                     71                     72
                      A                      A                      A
 Frequencies --   1493.4355              1503.8472              1513.8438
 Red. masses --      2.5351                 2.3241                 2.5940
 Frc consts  --      3.3314                 3.0968                 3.5026
 IR Inten    --    245.0324               258.4761                59.5128

                     73                     74                     75
                      A                      A                      A
 Frequencies --   1600.3167              1609.2107              1618.1161
 Red. masses --      5.7132                 6.1612                 6.7246
 Frc consts  --      8.6206                 9.4002                10.3737
 IR Inten    --     73.3822                18.7681                21.8545

                     76                     77                     78
                      A                      A                      A
 Frequencies --   1618.9947              1624.2200              1640.3702
 Red. masses --      5.8226                 5.3806                 5.9765
 Frc consts  --      8.9921                 8.3631                 9.4750
 IR Inten    --      1.3898               261.6228               110.2625

                     79                     80                     81
                      A                      A                      A
 Frequencies --   3152.8058              3179.5506              3180.4352
 Red. masses --      1.0901                 1.0868                 1.0868
 Frc consts  --      6.3842                 6.4733                 6.4770
 IR Inten    --     39.9500                 0.3074                 0.1555

                     82                     83                     84
                      A                      A                      A
 Frequencies --   3183.4792              3187.9847              3188.0964
 Red. masses --      1.0898                 1.0899                 1.0908
 Frc consts  --      6.5072                 6.5264                 6.5320
 IR Inten    --     10.7724                 4.5593                 9.1227

                     85                     86                     87
                      A                      A                      A
 Frequencies --   3196.8017              3199.1703              3204.6369
 Red. masses --      1.0934                 1.0959                 1.0974
 Frc consts  --      6.5838                 6.6081                 6.6401
 IR Inten    --     17.3855                22.4400                10.1907

                     88                     89                     90
                      A                      A                      A
 Frequencies --   3207.6805              3217.1826              3231.4660
 Red. masses --      1.0956                 1.0940                 1.0925
 Frc consts  --      6.6415                 6.6716                 6.7213
 IR Inten    --     13.7756                 4.1168                 1.8055

 - Thermochemistry -
 -------------------
 Temperature   298.150 Kelvin.  Pressure   1.00000 Atm.
 Atom     1 has atomic number  6 and mass  12.00000

 Molecular mass:   276.07212 amu.
 Principal axes and moments of inertia in atomic units:
                           1         2         3
     Eigenvalues --  4715.639375150.083108350.83370
           X            0.99705  -0.07419  -0.01959
           Y            0.07412   0.99724  -0.00425
           Z            0.01985   0.00279   0.99980
 This molecule is an asymmetric top.
 Rotational symmetry number  1.
 Warning -- assumption of classical behavior for rotation
           may cause significant error
 Rotational temperatures (Kelvin)      0.01837     0.01682     0.01037
 Rotational constants (GHZ):           0.38271     0.35043     0.21612
 Zero-point vibrational energy     647206.8 (Joules/Mol)
                                  154.68613 (Kcal/Mol)
 Warning -- explicit consideration of  22 degrees of freedom as
           vibrations may cause significant error
 Vibrational temperatures:     57.19    69.61    96.24   117.36   204.85
          (Kelvin)            225.54   256.84   326.04   368.51   462.96
                              469.85   511.33   569.83   571.15   606.76
                              650.15   656.88   684.32   742.50   778.96
                              780.44   830.56   911.84   931.17   945.71
                             1007.20  1024.34  1083.12  1085.22  1091.15
                             1104.99  1106.67  1121.76  1138.66  1267.10
                             1267.77  1276.06  1353.22  1376.64  1393.59
                             1405.42  1413.88  1429.69  1436.22  1446.65
                             1458.90  1520.16  1520.80  1546.05  1557.42
                             1582.35  1622.19  1645.34  1655.98  1692.11
                             1692.85  1696.71  1766.75  1809.11  1858.66
                             1867.82  1881.84  1900.18  1904.24  1935.52
                             1948.86  2100.45  2120.50  2131.22  2148.72
                             2163.70  2178.08  2302.50  2315.29  2328.11
                             2329.37  2336.89  2360.12  4536.18  4574.66
                             4575.93  4580.31  4586.79  4586.95  4599.48
                             4602.89  4610.75  4615.13  4628.80  4649.35

 Zero-point correction=                           0.246508 (Hartree/Particle)
 Thermal correction to Energy=                    0.261262
 Thermal correction to Enthalpy=                  0.262206
 Thermal correction to Gibbs Free Energy=         0.203868
 Sum of electronic and zero-point Energies=          -1162.890663
 Sum of electronic and thermal Energies=             -1162.875909
 Sum of electronic and thermal Enthalpies=           -1162.874965
 Sum of electronic and thermal Free Energies=        -1162.933304

                     E (Thermal)             CV                S
                      KCal/Mol        Cal/Mol-Kelvin    Cal/Mol-Kelvin
 Total                  163.944             60.445            122.783
 Electronic               0.000              0.000              0.000
 Translational            0.889              2.981             42.745
 Rotational               0.889              2.981             33.672
 Vibrational            162.167             54.484             46.366
 Vibration     1          0.594              1.981              5.272
 Vibration     2          0.595              1.978              4.883
 Vibration     3          0.598              1.970              4.243
 Vibration     4          0.600              1.962              3.853
 Vibration     5          0.616              1.911              2.772
 Vibration     6          0.620              1.895              2.589
 Vibration     7          0.629              1.869              2.344
 Vibration     8          0.650              1.800              1.906
 Vibration     9          0.666              1.752              1.688
 Vibration    10          0.707              1.632              1.301
 Vibration    11          0.710              1.622              1.277
 Vibration    12          0.731              1.564              1.142
 Vibration    13          0.763              1.479              0.977
 Vibration    14          0.763              1.477              0.974
 Vibration    15          0.784              1.423              0.886
 Vibration    16          0.811              1.357              0.790
 Vibration    17          0.815              1.346              0.776
 Vibration    18          0.832              1.304              0.722
 Vibration    19          0.871              1.214              0.619
 Vibration    20          0.896              1.159              0.562
 Vibration    21          0.898              1.156              0.560
 Vibration    22          0.934              1.080              0.490

 Optimization completed.
    -- Stationary point found.

 1\1\GINC-CN020\Freq\RB3LYP\def2TZVP\C17H12N2S1\PNG4RJV\16-Feb-2021\0\\
 #P Geom=AllCheck Guess=TCheck SCRF=Check GenChk RB3LYP/def2TZVP Freq\\
 Title\\0,1\C,-1.9328560998,3.5463046771,-0.3619081125\C,-2.2658185642,
 2.495025353,0.4808309741\C,-1.4995494791,1.3315307233,0.4688060927\C,-
 0.4059366178,1.2140547246,-0.3923239309\C,-0.1098482382,2.2541540325,-
 1.2683779585\C,-0.8618091675,3.4208762411,-1.2428545614\C,-0.409249294
 8,-1.1965057227,-0.4252642834\C,-1.4974550949,-1.3493913175,0.43688556
 02\C,-2.2516402902,-2.5201451345,0.4150719929\H,-3.1001638219,-2.62619

 Normal termination of Gaussian 09 at Tue Feb 16 03:18:19 2021.
 Gaussian 09:  ES64L-G09RevE.01 30-Nov-2015

 ----------------------------------------------------------------------
 #p b3lyp chkbasis geom=allcheck Guess=Read int=ultrafine scrf=(SMD,sol
 vent=n,n-DiMethylAcetamide) td=(NStates=30) EmpiricalDispersion=GD3BJ
 ----------------------------------------------------------------------

 Structure from the checkpoint file:  "cp.chk"
 -----
 Title
 -----
 Charge =  0 Multiplicity = 1

                         Standard orientation:
 ---------------------------------------------------------------------
 Center     Atomic      Atomic             Coordinates (Angstroms)
 Number     Number       Type             X           Y           Z
 ---------------------------------------------------------------------
      1          6           0        1.752390    3.646507    0.336487
      2          6           0        2.124089    2.617750   -0.517774
      3          6           0        1.425552    1.412595   -0.491693
      4          6           0        0.361375    1.231249    0.394860
      5          6           0        0.027915    2.250862    1.281505
      6          6           0        0.711664    3.458458    1.242282
      7          6           0        0.502188   -1.175302    0.418952
      8          6           0        1.576278   -1.264185   -0.469474
      9          6           0        2.395954   -2.390270   -0.469921
     10          1           0        3.232932   -2.446458   -1.153990
     11          6           0        2.136521   -3.431261    0.411365
     12          6           0        1.086441   -3.331609    1.320111
     13          6           0        0.282743   -2.199644    1.335233
     14          1           0        2.954969    2.743278   -1.200118
     15          1           0       -0.776444    2.096421    1.985489
     16          1           0        0.435502    4.251632    1.924858
     17          1           0        2.768528   -4.309770    0.403012
     18          1           0        0.898809   -4.131261    2.024625
     19          6           0       -1.678730   -0.100569    0.048496
     20          6           0       -2.284943   -1.333282   -0.257965
     21          6           0       -3.625368   -1.343796   -0.587349
     22          6           0       -3.656803    1.011806   -0.314922
     23          6           0       -4.345022   -0.150236   -0.613807
     24          1           0       -4.106979   -2.282591   -0.830976
     25          1           0       -4.161888    1.972037   -0.334251
     26          1           0       -1.718801   -2.250727   -0.253330
     27          1           0       -5.396199   -0.123861   -0.864758
     28          1           0        2.289357    4.585872    0.309769
     29          7           0       -0.325295   -0.017915    0.386000
     30          1           0       -0.530562   -2.110285    2.042974
     31         16           0        1.885192    0.085433   -1.575680
     32          7           0       -2.361242    1.044250    0.008181
 ---------------------------------------------------------------------

 SCF Done:  E(RB3LYP) =  -1163.13717719     A.U. after    6 cycles

 Excitation energies and oscillator strengths:

 Excited State   1:      Singlet-A      4.0541 eV  305.82 nm  f=0.0037  <S**2>=0.000
      72 -> 73         0.49663
      72 -> 74        -0.47729
 This state for optimization and/or second-order correction.
 Total Energy, E(TD-HF/TD-KS) =  -1162.98819129
 Copying the excited state density for this state as the 1-particle RhoCI density.

 Excited State   2:      Singlet-A      4.0673 eV  304.83 nm  f=0.1813  <S**2>=0.000
      72 -> 73         0.47454
      72 -> 74         0.50463

 Excited State   3:      Singlet-A      4.1273 eV  300.40 nm  f=0.0080  <S**2>=0.000
      72 -> 73        -0.10550
      72 -> 75         0.67454
      72 -> 76        -0.14473

 Excited State   4:      Singlet-A      4.3447 eV  285.37 nm  f=0.0962  <S**2>=0.000
      71 -> 74         0.16191
      72 -> 75         0.12782
      72 -> 76         0.65416

 Excited State   5:      Singlet-A      4.5712 eV  271.23 nm  f=0.0236  <S**2>=0.000
      71 -> 73        -0.13027
      71 -> 74         0.10777
      71 -> 75        -0.22246
      72 -> 77         0.62573

 Excited State   6:      Singlet-A      4.7159 eV  262.90 nm  f=0.0314  <S**2>=0.000
      71 -> 73         0.25653
      71 -> 74         0.60864
      72 -> 76        -0.16372

 Excited State   7:      Singlet-A      4.7234 eV  262.49 nm  f=0.0160  <S**2>=0.000
      71 -> 73         0.59869
      71 -> 74        -0.23774
      71 -> 75         0.13351
      72 -> 77         0.22077

 Excited State   8:      Singlet-A      4.8190 eV  257.28 nm  f=0.2656  <S**2>=0.000
      71 -> 73        -0.18790
      71 -> 75         0.60413
      71 -> 76        -0.10237
      72 -> 77         0.18423
      72 -> 79         0.11655

 Excited State   9:      Singlet-A      4.9746 eV  249.23 nm  f=0.0095  <S**2>=0.000
      67 -> 73         0.25812
      69 -> 73         0.13072
      70 -> 73         0.55872
      71 -> 76         0.24748

 Excited State  10:      Singlet-A      5.0264 eV  246.67 nm  f=0.0584  <S**2>=0.000
      67 -> 73        -0.10996
      70 -> 73        -0.20315
      71 -> 75         0.11022
      71 -> 76         0.62858

 Excited State  11:      Singlet-A      5.1343 eV  241.48 nm  f=0.1671  <S**2>=0.000
      72 -> 78         0.67052

 Excited State  12:      Singlet-A      5.2242 eV  237.33 nm  f=0.0027  <S**2>=0.000
      70 -> 76         0.25085
      71 -> 77         0.60874

 Excited State  13:      Singlet-A      5.2472 eV  236.28 nm  f=0.0123  <S**2>=0.000
      70 -> 74         0.12214
      71 -> 75        -0.11721
      71 -> 79         0.22379
      72 -> 79         0.62676

 Excited State  14:      Singlet-A      5.3133 eV  233.35 nm  f=0.0492  <S**2>=0.000
      67 -> 74         0.15143
      67 -> 78        -0.11846
      69 -> 74         0.15229
      70 -> 74         0.56744
      70 -> 76        -0.16075
      70 -> 78        -0.16674
      71 -> 77         0.14099

 Excited State  15:      Singlet-A      5.4826 eV  226.14 nm  f=0.0448  <S**2>=0.000
      67 -> 73        -0.12228
      68 -> 75         0.13191
      69 -> 73        -0.10194
      69 -> 74         0.36732
      70 -> 73         0.12544
      70 -> 74        -0.24135
      70 -> 75        -0.29853
      70 -> 76        -0.22123
      71 -> 77         0.19946

 Excited State  16:      Singlet-A      5.5220 eV  224.53 nm  f=0.0140  <S**2>=0.000
      69 -> 73         0.29348
      69 -> 74         0.12240
      69 -> 75         0.15107
      69 -> 77        -0.18811
      70 -> 75         0.36171
      70 -> 76        -0.35200
      71 -> 77         0.15414

 Excited State  17:      Singlet-A      5.6705 eV  218.65 nm  f=0.0874  <S**2>=0.000
      67 -> 73         0.12249
      68 -> 73         0.11195
      69 -> 73         0.28832
      70 -> 73        -0.11084
      70 -> 75        -0.37841
      71 -> 78         0.44996

 Excited State  18:      Singlet-A      5.6764 eV  218.42 nm  f=0.0043  <S**2>=0.000
      67 -> 73        -0.13781
      68 -> 74        -0.14961
      69 -> 73        -0.39482
      70 -> 73         0.16979
      70 -> 75         0.13430
      71 -> 78         0.45142

 Excited State  19:      Singlet-A      5.7258 eV  216.54 nm  f=0.0409  <S**2>=0.000
      67 -> 73         0.16693
      67 -> 76         0.13060
      68 -> 73        -0.19031
      68 -> 75         0.23864
      69 -> 74         0.37801
      70 -> 73        -0.17381
      70 -> 74         0.11876
      70 -> 75         0.14777
      70 -> 76         0.29373
      71 -> 78         0.12661

 Excited State  20:      Singlet-A      5.7972 eV  213.87 nm  f=0.0142  <S**2>=0.000
      67 -> 74         0.33663
      67 -> 76        -0.14876
      67 -> 78        -0.13914
      69 -> 75        -0.22416
      69 -> 76        -0.27291
      70 -> 74        -0.18787
      70 -> 78        -0.29900
      71 -> 78         0.13954

 Excited State  21:      Singlet-A      5.8148 eV  213.22 nm  f=0.0116  <S**2>=0.000
      66 -> 74         0.14716
      66 -> 78        -0.12125
      67 -> 73        -0.26065
      68 -> 73         0.52309
      68 -> 75         0.10790
      69 -> 74         0.14308
      70 -> 76         0.18616

 Excited State  22:      Singlet-A      5.8572 eV  211.68 nm  f=0.0060  <S**2>=0.000
      68 -> 75         0.12189
      71 -> 79         0.62880
      72 -> 79        -0.23255

 Excited State  23:      Singlet-A      5.8715 eV  211.16 nm  f=0.0407  <S**2>=0.000
      67 -> 73         0.42977
      68 -> 73         0.29606
      69 -> 73        -0.28890
      69 -> 75         0.16523
      70 -> 73        -0.14326
      70 -> 76        -0.10192
      70 -> 77         0.11789

 Excited State  24:      Singlet-A      5.9216 eV  209.38 nm  f=0.0124  <S**2>=0.000
      67 -> 73        -0.12652
      68 -> 74         0.28312
      69 -> 73        -0.11532
      69 -> 74         0.14368
      69 -> 76        -0.20768
      69 -> 77        -0.10448
      70 -> 77         0.51683

 Excited State  25:      Singlet-A      5.9669 eV  207.79 nm  f=0.0193  <S**2>=0.000
      67 -> 74         0.13726
      67 -> 75        -0.12300
      67 -> 76         0.10157
      68 -> 74        -0.37308
      68 -> 76        -0.24473
      69 -> 75         0.40583
      69 -> 76        -0.11312
      70 -> 76         0.16550

 Excited State  26:      Singlet-A      6.0268 eV  205.72 nm  f=0.0137  <S**2>=0.000
      67 -> 73        -0.17144
      67 -> 74        -0.15659
      67 -> 76        -0.14598
      68 -> 75         0.26133
      68 -> 76         0.14776
      69 -> 73         0.12057
      69 -> 74        -0.14209
      69 -> 75         0.11653
      69 -> 76         0.19789
      69 -> 77         0.29690
      70 -> 77         0.22719
      70 -> 78        -0.26430

 Excited State  27:      Singlet-A      6.0740 eV  204.12 nm  f=0.1664  <S**2>=0.000
      67 -> 73         0.10383
      67 -> 75        -0.34377
      67 -> 76         0.11866
      67 -> 78        -0.10334
      68 -> 76        -0.11364
      69 -> 75        -0.11250
      69 -> 76         0.41019
      69 -> 77        -0.20953
      70 -> 78        -0.18381

 Excited State  28:      Singlet-A      6.1284 eV  202.31 nm  f=0.0529  <S**2>=0.000
      67 -> 75        -0.22723
      67 -> 76         0.20093
      67 -> 77         0.10333
      68 -> 74        -0.32441
      68 -> 75        -0.19881
      68 -> 76         0.35061
      68 -> 77         0.12353
      69 -> 75        -0.19977
      70 -> 77         0.13183

 Excited State  29:      Singlet-A      6.1524 eV  201.52 nm  f=0.1845  <S**2>=0.000
      67 -> 74         0.39984
      67 -> 75         0.13057
      68 -> 74         0.10240
      68 -> 75        -0.19210
      68 -> 76         0.24570
      68 -> 77        -0.14271
      69 -> 75         0.17602
      69 -> 76         0.25489
      69 -> 77         0.11010
      70 -> 77         0.13441
      70 -> 78         0.18362

 Excited State  30:      Singlet-A      6.1989 eV  200.01 nm  f=0.0990  <S**2>=0.000
      67 -> 74         0.23120
      67 -> 75        -0.25635
      67 -> 76        -0.22461
      68 -> 75         0.29990
      68 -> 76        -0.10445
      69 -> 75        -0.12298
      70 -> 78         0.36146
      72 -> 80         0.11395

 The electronic state is 1-A.
 Alpha  occ. eigenvalues --  -88.87360 -14.35659 -14.30803 -10.25324 -10.22465
 Alpha  occ. eigenvalues --  -10.22301 -10.21438 -10.21288 -10.20528 -10.18627
 Alpha  occ. eigenvalues --  -10.18410 -10.18210 -10.18178 -10.17930 -10.17893
 Alpha  occ. eigenvalues --  -10.17860 -10.17734 -10.17616 -10.17529 -10.16870
 Alpha  occ. eigenvalues --   -7.95013  -5.91334  -5.90993  -5.90459  -0.99562
 Alpha  occ. eigenvalues --   -0.93548  -0.87130  -0.86520  -0.81065  -0.80378
 Alpha  occ. eigenvalues --   -0.76891  -0.76496  -0.75751  -0.73218  -0.69275
 Alpha  occ. eigenvalues --   -0.64914  -0.64610  -0.61709  -0.60819  -0.60652
 Alpha  occ. eigenvalues --   -0.57148  -0.54674  -0.54359  -0.50229  -0.49305
 Alpha  occ. eigenvalues --   -0.48440  -0.47450  -0.46822  -0.46462  -0.44670
 Alpha  occ. eigenvalues --   -0.44469  -0.43646  -0.42781  -0.42151  -0.40712
 Alpha  occ. eigenvalues --   -0.39991  -0.38999  -0.38189  -0.37911  -0.36916
 Alpha  occ. eigenvalues --   -0.36216  -0.35201  -0.34413  -0.32570  -0.30683
 Alpha  occ. eigenvalues --   -0.29045  -0.27721  -0.27186  -0.26500  -0.25390
 Alpha  occ. eigenvalues --   -0.22946  -0.20809
 Alpha virt. eigenvalues --   -0.03323  -0.03081  -0.02561  -0.02221  -0.01136
 Alpha virt. eigenvalues --    0.00138   0.01968   0.04995   0.06140   0.07274
 Alpha virt. eigenvalues --    0.07462   0.07807   0.08713   0.09670   0.09718

 Mulliken charges:
               1
     1  C   -0.169713
     2  C   -0.159424
     3  C   -0.033236
     4  C    0.247077
     5  C   -0.313482
     6  C   -0.097592
     7  C    0.194092
     8  C   -0.024286
     9  C   -0.163292
    10  H    0.149955
    11  C   -0.161316
    12  C   -0.098123
    13  C   -0.296800
    14  H    0.149020
    15  H    0.137801
    16  H    0.151252
    17  H    0.153061
    18  H    0.152949
    19  C    0.277719
    20  C   -0.250501
    21  C   -0.125411
    22  C   -0.076866
    23  C   -0.178090
    24  H    0.158731
    25  H    0.146586
    26  H    0.176100
    27  H    0.152102
    28  H    0.151513
    29  N   -0.000569
    30  H    0.158394
    31  S   -0.064745
    32  N   -0.342907
 Sum of Mulliken charges =  -0.00000

 Dipole moment (field-independent basis, Debye):
    X=             -0.3674    Y=             -2.5808    Z=              1.3233  Tot=              2.9235
 Quadrupole moment (field-independent basis, Debye-Ang):
   XX=           -109.8778   YY=           -103.9819   ZZ=           -122.9700
   XY=              3.1143   XZ=             -1.3589   YZ=              0.0209

 Normal termination of Gaussian 09 at Tue Feb 16 04:33:50 2021.
