                         Program Version 5.0.2 -  RELEASE  -
|  1> %maxcore 3200
|  2> %pal
|  3>  nprocs= 8
|  4> end
|  5> ! RI-B2PLYP D3BJ def2-TZVP def2/J def2-TZVP/C RIJCOSX CPCM TightSCF
|  6> %TDDFT DCORR 4
|  7>    NROOTS   30
|  8>
|  9>    TDA      FALSE
| 10> END
| 11>
| 12> %CPCM
| 13>    SMD          TRUE
| 14>    SMDsolvent   "N,N-DIMETHYLACETAMIDE"
| 15> END
| 16>
| 17>
| 18> * xyz 0 1
| 19> C                   1.78498200    3.61579300    0.39144600
| 20> C                   2.20379200    2.58769900   -0.43540600
| 21> C                   1.49430000    1.39147600   -0.46602100
| 22> C                   0.36462500    1.22004400    0.33615900
| 23> C                  -0.01286700    2.23891100    1.20492000
| 24> C                   0.68545000    3.43460500    1.22025500
| 25> C                   0.47514600   -1.18095600    0.35687300
| 26> C                   1.61588100   -1.27453500   -0.44220300
| 27> C                   2.42213300   -2.40628000   -0.38184000
| 28> H                   3.30685200   -2.46562000   -1.00308000
| 29> C                   2.08895600   -3.44627900    0.46949100
| 30> C                   0.97556700   -3.34084000    1.29286400
| 31> C                   0.18271400   -2.20659000    1.24985200
| 32> H                   3.08047900    2.70476600   -1.05984800
| 33> H                  -0.86497500    2.09113700    1.85230400
| 34> H                   0.37188900    4.22641400    1.88825000
| 35> H                   2.71247900   -4.33016600    0.50451700
| 36> H                   0.72800800   -4.14022300    1.97905800
| 37> C                  -1.69837000   -0.08293300   -0.00669100
| 38> C                  -2.33090100   -1.30352800   -0.29588900
| 39> C                  -3.67921100   -1.29392100   -0.57597000
| 40> C                  -3.66556300    1.05431100   -0.30206400
| 41> C                  -4.38179300   -0.09428900   -0.57245700
| 42> H                  -4.18073800   -2.22571500   -0.80700600
| 43> H                  -4.15711300    2.02321600   -0.30678800
| 44> H                  -1.77748200   -2.22993500   -0.32312100
| 45> H                  -5.44118200   -0.05318700   -0.78305900
| 46> H                   2.33172600    4.54980800    0.40452600
| 47> N                  -0.33140600   -0.01730600    0.26705500
| 48> H                  -0.68181400   -2.11432500    1.89480800
| 49> S                   2.01748800    0.06866300   -1.51189200
| 50> N                  -2.36244900    1.07289200   -0.02565600
| 51> *
| 52>
| 53>
| 54>                          ****END OF INPUT****

CARTESIAN COORDINATES (ANGSTROEM)
---------------------------------
  C      1.784982    3.615793    0.391446
  C      2.203792    2.587699   -0.435406
  C      1.494300    1.391476   -0.466021
  C      0.364625    1.220044    0.336159
  C     -0.012867    2.238911    1.204920
  C      0.685450    3.434605    1.220255
  C      0.475146   -1.180956    0.356873
  C      1.615881   -1.274535   -0.442203
  C      2.422133   -2.406280   -0.381840
  H      3.306852   -2.465620   -1.003080
  C      2.088956   -3.446279    0.469491
  C      0.975567   -3.340840    1.292864
  C      0.182714   -2.206590    1.249852
  H      3.080479    2.704766   -1.059848
  H     -0.864975    2.091137    1.852304
  H      0.371889    4.226414    1.888250
  H      2.712479   -4.330166    0.504517
  H      0.728008   -4.140223    1.979058
  C     -1.698370   -0.082933   -0.006691
  C     -2.330901   -1.303528   -0.295889
  C     -3.679211   -1.293921   -0.575970
  C     -3.665563    1.054311   -0.302064
  C     -4.381793   -0.094289   -0.572457
  H     -4.180738   -2.225715   -0.807006
  H     -4.157113    2.023216   -0.306788
  H     -1.777482   -2.229935   -0.323121
  H     -5.441182   -0.053187   -0.783059
  H      2.331726    4.549808    0.404526
  N     -0.331406   -0.017306    0.267055
  H     -0.681814   -2.114325    1.894808
  S      2.017488    0.068663   -1.511892
  N     -2.362449    1.072892   -0.025656

 Total Charge           Charge          ....    0
 Multiplicity           Mult            ....    1
 Number of Electrons    NEL             ....  144
 Basis Dimension        Dim             ....  698

ORBITAL ENERGIES
----------------

  NO   OCC          E(Eh)            E(eV)
   0   2.0000     -90.167097     -2453.5715
   1   2.0000     -14.875606      -404.7858
   2   2.0000     -14.829361      -403.5274
   3   2.0000     -10.701493      -291.2024
   4   2.0000     -10.668323      -290.2998
   5   2.0000     -10.666530      -290.2510
   6   2.0000     -10.655597      -289.9535
   7   2.0000     -10.654181      -289.9150
   8   2.0000     -10.650075      -289.8033
   9   2.0000     -10.630261      -289.2641
  10   2.0000     -10.625322      -289.1297
  11   2.0000     -10.623150      -289.0706
  12   2.0000     -10.622466      -289.0520
  13   2.0000     -10.620150      -288.9890
  14   2.0000     -10.619462      -288.9702
  15   2.0000     -10.619244      -288.9643
  16   2.0000     -10.617933      -288.9287
  17   2.0000     -10.616891      -288.9003
  18   2.0000     -10.615280      -288.8565
  19   2.0000     -10.608537      -288.6730
  20   2.0000      -8.372461      -227.8262
  21   2.0000      -6.219153      -169.2317
  22   2.0000      -6.216660      -169.1639
  23   2.0000      -6.213623      -169.0813
  24   2.0000      -1.130382       -30.7592
  25   2.0000      -1.065473       -28.9930
  26   2.0000      -0.994672       -27.0664
  27   2.0000      -0.986973       -26.8569
  28   2.0000      -0.924880       -25.1673
  29   2.0000      -0.922199       -25.0943
  30   2.0000      -0.880609       -23.9626
  31   2.0000      -0.876372       -23.8473
  32   2.0000      -0.868524       -23.6337
  33   2.0000      -0.840322       -22.8663
  34   2.0000      -0.792304       -21.5597
  35   2.0000      -0.744074       -20.2473
  36   2.0000      -0.740193       -20.1417
  37   2.0000      -0.708809       -19.2877
  38   2.0000      -0.698138       -18.9973
  39   2.0000      -0.695332       -18.9210
  40   2.0000      -0.656706       -17.8699
  41   2.0000      -0.625088       -17.0095
  42   2.0000      -0.620789       -16.8925
  43   2.0000      -0.577713       -15.7204
  44   2.0000      -0.567186       -15.4339
  45   2.0000      -0.558061       -15.1856
  46   2.0000      -0.546365       -14.8674
  47   2.0000      -0.541131       -14.7249
  48   2.0000      -0.535666       -14.5762
  49   2.0000      -0.517052       -14.0697
  50   2.0000      -0.514340       -13.9959
  51   2.0000      -0.504263       -13.7217
  52   2.0000      -0.492344       -13.3974
  53   2.0000      -0.486004       -13.2248
  54   2.0000      -0.471212       -12.8223
  55   2.0000      -0.466144       -12.6844
  56   2.0000      -0.453228       -12.3330
  57   2.0000      -0.445018       -12.1096
  58   2.0000      -0.437221       -11.8974
  59   2.0000      -0.429968       -11.7000
  60   2.0000      -0.423186       -11.5155
  61   2.0000      -0.409331       -11.1385
  62   2.0000      -0.396887       -10.7998
  63   2.0000      -0.380679       -10.3588
  64   2.0000      -0.354048        -9.6341
  65   2.0000      -0.335168        -9.1204
  66   2.0000      -0.331104        -9.0098
  67   2.0000      -0.307714        -8.3733
  68   2.0000      -0.300513        -8.1774
  69   2.0000      -0.291729        -7.9383
  70   2.0000      -0.263391        -7.1672
  71   2.0000      -0.239339        -6.5127
  72   0.0000       0.023194         0.6311
  73   0.0000       0.024854         0.6763
  74   0.0000       0.031295         0.8516
  75   0.0000       0.034937         0.9507
  76   0.0000       0.048248         1.3129

MULLIKEN ATOMIC CHARGES
-----------------------
   0 C :   -0.186958
   1 C :   -0.145825
   2 C :   -0.090636
   3 C :    0.289173
   4 C :   -0.344146
   5 C :   -0.090703
   6 C :    0.250859
   7 C :   -0.088494
   8 C :   -0.147048
   9 H :    0.161269
  10 C :   -0.181652
  11 C :   -0.095572
  12 C :   -0.349105
  13 H :    0.160322
  14 H :    0.147079
  15 H :    0.159879
  16 H :    0.161403
  17 H :    0.161496
  18 C :    0.352676
  19 C :   -0.301834
  20 C :   -0.122966
  21 C :   -0.052571
  22 C :   -0.185374
  23 H :    0.168735
  24 H :    0.153389
  25 H :    0.183124
  26 H :    0.163316
  27 H :    0.160148
  28 N :   -0.013967
  29 H :    0.172937
  30 S :   -0.041055
  31 N :   -0.407900
Sum of atomic charges:   -0.0000000

LOEWDIN ATOMIC CHARGES
----------------------
   0 C :   -0.145058
   1 C :   -0.145805
   2 C :   -0.328560
   3 C :   -0.160500
   4 C :   -0.103305
   5 C :   -0.143102
   6 C :   -0.165628
   7 C :   -0.328717
   8 C :   -0.140436
   9 H :    0.154305
  10 C :   -0.141669
  11 C :   -0.138892
  12 C :   -0.102963
  13 H :    0.153524
  14 H :    0.156652
  15 H :    0.152828
  16 H :    0.153485
  17 H :    0.153820
  18 C :   -0.226531
  19 C :   -0.132188
  20 C :   -0.112656
  21 C :   -0.204140
  22 C :   -0.179023
  23 H :    0.157302
  24 H :    0.143667
  25 H :    0.160401
  26 H :    0.150633
  27 H :    0.152807
  28 N :    0.272815
  29 H :    0.161773
  30 S :    0.663957
  31 N :    0.111204

  Mayer bond orders larger than 0.100000
B(  0-C ,  1-C ) :   1.4176 B(  0-C ,  5-C ) :   1.3771 B(  0-C , 27-H ) :   0.9795
B(  1-C ,  2-C ) :   1.3270 B(  1-C , 13-H ) :   0.9775 B(  2-C ,  3-C ) :   1.3349
B(  2-C , 30-S ) :   1.0787 B(  3-C ,  4-C ) :   1.3722 B(  3-C , 28-N ) :   0.8978
B(  4-C ,  5-C ) :   1.4142 B(  4-C , 14-H ) :   0.9808 B(  5-C , 15-H ) :   0.9788
B(  6-C ,  7-C ) :   1.3196 B(  6-C , 12-C ) :   1.3569 B(  6-C , 28-N ) :   0.9338
B(  7-C ,  8-C ) :   1.3333 B(  7-C , 30-S ) :   1.0899 B(  8-C ,  9-H ) :   0.9758
B(  8-C , 10-C ) :   1.4129 B( 10-C , 11-C ) :   1.3786 B( 10-C , 16-H ) :   0.9794
B( 11-C , 12-C ) :   1.4122 B( 11-C , 17-H ) :   0.9782 B( 12-C , 29-H ) :   0.9843
B( 18-C , 19-C ) :   1.3377 B( 18-C , 28-N ) :   1.1412 B( 18-C , 31-N ) :   1.3418
B( 19-C , 20-C ) :   1.4993 B( 19-C , 25-H ) :   0.9622 B( 20-C , 22-C ) :   1.3657
B( 20-C , 23-H ) :   0.9647 B( 21-C , 22-C ) :   1.4446 B( 21-C , 24-H ) :   0.9728
B( 21-C , 31-N ) :   1.4788 B( 22-C , 26-H ) :   0.9655

MP2 TOTAL ENERGY:    -1162.251746385 Eh

-----------------------------------------------------------------------------
         ABSORPTION SPECTRUM VIA TRANSITION ELECTRIC DIPOLE MOMENTS
-----------------------------------------------------------------------------
State   Energy    Wavelength  fosc         T2        TX        TY        TZ
        (cm-1)      (nm)                 (au**2)    (au)      (au)      (au)
-----------------------------------------------------------------------------
   1   33512.4    298.4   0.263375202   2.58729   1.58602  -0.23443   0.12986
   2   34420.7    290.5   0.071466932   0.68353  -0.72932  -0.35919  -0.15039
   3   34538.4    289.5   0.008289534   0.07901  -0.12415   0.15541  -0.19862
   4   36284.6    275.6   0.068278059   0.61949  -0.76286  -0.00952   0.19350
   5   37570.7    266.2   0.010878711   0.09532   0.02584  -0.30616   0.03033
   6   40689.6    245.8   0.271824170   2.19928  -0.27933   1.35431  -0.53581
   7   40658.7    245.9   0.193474205   1.56655  -0.07305  -0.97464  -0.78185
   8   41452.7    241.2   0.027886552   0.22147   0.42947   0.08354   0.17335
   9   42084.9    237.6   0.171325090   1.34020   1.11634   0.09887  -0.29018
  10   43981.7    227.4   0.357398245   2.67520  -0.21226  -1.62176  -0.00641
  11   43386.4    230.5   0.041079564   0.31171  -0.22118   0.50895   0.06129
  12   44346.0    225.5   0.029303830   0.21754  -0.19802  -0.40042  -0.13415
  13   43551.2    229.6   0.010006957   0.07564  -0.10766   0.25271   0.01393
  14   44835.6    223.0   0.208147652   1.52836   0.08369  -1.22769   0.11887
  15   45608.0    219.3   0.041641378   0.30058  -0.47583  -0.11176   0.24834
  16   46766.8    213.8   0.109551291   0.77118   0.74920  -0.41809  -0.18729
  17   48373.1    206.7   0.018450541   0.12557  -0.25454  -0.08705  -0.23065
  18   48332.1    206.9   0.081302129   0.55379   0.32079   0.67098  -0.02576
  19   51106.7    195.7   0.191153287   1.23134  -0.70697   0.41854  -0.74589
  20   49488.8    202.1   0.158598995   1.05504  -0.20125   0.98887   0.19152
  21   49571.1    201.7   0.057741698   0.38347   0.40434   0.46286   0.07576
  22   49729.1    201.1   0.360557868   2.38693  -0.21050   1.53030   0.02840
  23   51798.4    193.1   0.042539281   0.27036  -0.17948  -0.25372  -0.41687
  24   52551.6    190.3   0.304508699   1.90761   1.06205   0.36165  -0.80553
  25   50499.8    198.0   0.139232044   0.90766  -0.66040  -0.62664  -0.28081
  26   50309.3    198.8   0.179633068   1.17548   1.07017   0.17066  -0.03285
  27   52478.7    190.6   0.460707310   2.89013   1.46684   0.35588  -0.78221
  28   51082.3    195.8   0.010093614   0.06505  -0.15972  -0.04120  -0.19453
  29   51904.3    192.7   0.093080756   0.59038   0.31033  -0.39141  -0.58385
  30   53832.9    185.8   0.171541480   1.04905   0.08221  -1.00815  -0.16099

Dispersion correction           -0.040075097
FINAL SINGLE POINT ENERGY     -1161.086239575295

DIPOLE MOMENT
-------------
                                X             Y             Z
Electronic contribution:      4.16137       0.87226      -3.59006
Nuclear contribution   :     -4.55042      -1.91781       4.19685
                        -----------------------------------------
Total Dipole Moment    :     -0.38904      -1.04555       0.60679
                        -----------------------------------------
Magnitude (a.u.)       :      1.26993
Magnitude (Debye)      :      3.22791

Rotational constants in cm-1:     0.012999     0.011538     0.007110
Rotational constants in MHz :   389.700536   345.907776   213.155237

                             ****ORCA TERMINATED NORMALLY****
TOTAL RUN TIME: 0 days 0 hours 18 minutes 14 seconds 274 msec
