                         Program Version 5.0.2 -  RELEASE  -
|  1> %maxcore 20000
|  2> %pal
|  3>  nprocs= 4
|  4> end
|  5> ! RI-wPBEPP86   def2-TZVP def2/J def2-TZVP/C RIJCOSX CPCM TightSCF
|  6> %TDDFT
|  7>    NROOTS   30
|  8>    dcorr 1
|  9>    TDA      FALSE
| 10> END
| 11>
| 12> %CPCM
| 13>    SMD          TRUE
| 14>    SMDsolvent   "N,N-DIMETHYLACETAMIDE"
| 15> END
| 16>
| 17>
| 18> * xyz 0 1
| 19> C                   1.78498200    3.61579300    0.39144600
| 20> C                   2.20379200    2.58769900   -0.43540600
| 21> C                   1.49430000    1.39147600   -0.46602100
| 22> C                   0.36462500    1.22004400    0.33615900
| 23> C                  -0.01286700    2.23891100    1.20492000
| 24> C                   0.68545000    3.43460500    1.22025500
| 25> C                   0.47514600   -1.18095600    0.35687300
| 26> C                   1.61588100   -1.27453500   -0.44220300
| 27> C                   2.42213300   -2.40628000   -0.38184000
| 28> H                   3.30685200   -2.46562000   -1.00308000
| 29> C                   2.08895600   -3.44627900    0.46949100
| 30> C                   0.97556700   -3.34084000    1.29286400
| 31> C                   0.18271400   -2.20659000    1.24985200
| 32> H                   3.08047900    2.70476600   -1.05984800
| 33> H                  -0.86497500    2.09113700    1.85230400
| 34> H                   0.37188900    4.22641400    1.88825000
| 35> H                   2.71247900   -4.33016600    0.50451700
| 36> H                   0.72800800   -4.14022300    1.97905800
| 37> C                  -1.69837000   -0.08293300   -0.00669100
| 38> C                  -2.33090100   -1.30352800   -0.29588900
| 39> C                  -3.67921100   -1.29392100   -0.57597000
| 40> C                  -3.66556300    1.05431100   -0.30206400
| 41> C                  -4.38179300   -0.09428900   -0.57245700
| 42> H                  -4.18073800   -2.22571500   -0.80700600
| 43> H                  -4.15711300    2.02321600   -0.30678800
| 44> H                  -1.77748200   -2.22993500   -0.32312100
| 45> H                  -5.44118200   -0.05318700   -0.78305900
| 46> H                   2.33172600    4.54980800    0.40452600
| 47> N                  -0.33140600   -0.01730600    0.26705500
| 48> H                  -0.68181400   -2.11432500    1.89480800
| 49> S                   2.01748800    0.06866300   -1.51189200
| 50> N                  -2.36244900    1.07289200   -0.02565600
| 51> *
| 52>
| 53>
| 54>                          ****END OF INPUT****

CARTESIAN COORDINATES (ANGSTROEM)
---------------------------------
  C      1.784982    3.615793    0.391446
  C      2.203792    2.587699   -0.435406
  C      1.494300    1.391476   -0.466021
  C      0.364625    1.220044    0.336159
  C     -0.012867    2.238911    1.204920
  C      0.685450    3.434605    1.220255
  C      0.475146   -1.180956    0.356873
  C      1.615881   -1.274535   -0.442203
  C      2.422133   -2.406280   -0.381840
  H      3.306852   -2.465620   -1.003080
  C      2.088956   -3.446279    0.469491
  C      0.975567   -3.340840    1.292864
  C      0.182714   -2.206590    1.249852
  H      3.080479    2.704766   -1.059848
  H     -0.864975    2.091137    1.852304
  H      0.371889    4.226414    1.888250
  H      2.712479   -4.330166    0.504517
  H      0.728008   -4.140223    1.979058
  C     -1.698370   -0.082933   -0.006691
  C     -2.330901   -1.303528   -0.295889
  C     -3.679211   -1.293921   -0.575970
  C     -3.665563    1.054311   -0.302064
  C     -4.381793   -0.094289   -0.572457
  H     -4.180738   -2.225715   -0.807006
  H     -4.157113    2.023216   -0.306788
  H     -1.777482   -2.229935   -0.323121
  H     -5.441182   -0.053187   -0.783059
  H      2.331726    4.549808    0.404526
  N     -0.331406   -0.017306    0.267055
  H     -0.681814   -2.114325    1.894808
  S      2.017488    0.068663   -1.511892
  N     -2.362449    1.072892   -0.025656

 Total Charge           Charge          ....    0
 Multiplicity           Mult            ....    1
 Number of Electrons    NEL             ....  144
 Basis Dimension        Dim             ....  698

ORBITAL ENERGIES
----------------

  NO   OCC          E(Eh)            E(eV)
   0   2.0000     -90.845007     -2472.0183
   1   2.0000     -15.171904      -412.8485
   2   2.0000     -15.125968      -411.5985
   3   2.0000     -10.957014      -298.1555
   4   2.0000     -10.922228      -297.2089
   5   2.0000     -10.920404      -297.1593
   6   2.0000     -10.910229      -296.8824
   7   2.0000     -10.908817      -296.8440
   8   2.0000     -10.902831      -296.6811
   9   2.0000     -10.883460      -296.1540
  10   2.0000     -10.877296      -295.9863
  11   2.0000     -10.875068      -295.9256
  12   2.0000     -10.874300      -295.9047
  13   2.0000     -10.871866      -295.8385
  14   2.0000     -10.871265      -295.8222
  15   2.0000     -10.870752      -295.8082
  16   2.0000     -10.869530      -295.7749
  17   2.0000     -10.868446      -295.7455
  18   2.0000     -10.865733      -295.6716
  19   2.0000     -10.858361      -295.4710
  20   2.0000      -8.638278      -235.0595
  21   2.0000      -6.419603      -174.6863
  22   2.0000      -6.417603      -174.6319
  23   2.0000      -6.415464      -174.5736
  24   2.0000      -1.248578       -33.9755
  25   2.0000      -1.180318       -32.1181
  26   2.0000      -1.106566       -30.1112
  27   2.0000      -1.097563       -29.8662
  28   2.0000      -1.030822       -28.0501
  29   2.0000      -1.029515       -28.0145
  30   2.0000      -0.984905       -26.8006
  31   2.0000      -0.980632       -26.6844
  32   2.0000      -0.972389       -26.4600
  33   2.0000      -0.942001       -25.6332
  34   2.0000      -0.889615       -24.2077
  35   2.0000      -0.838227       -22.8093
  36   2.0000      -0.834220       -22.7003
  37   2.0000      -0.800767       -21.7900
  38   2.0000      -0.789394       -21.4805
  39   2.0000      -0.786607       -21.4047
  40   2.0000      -0.745105       -20.2753
  41   2.0000      -0.710518       -19.3342
  42   2.0000      -0.705500       -19.1976
  43   2.0000      -0.660000       -17.9595
  44   2.0000      -0.649101       -17.6629
  45   2.0000      -0.640021       -17.4158
  46   2.0000      -0.625821       -17.0294
  47   2.0000      -0.620619       -16.8879
  48   2.0000      -0.615333       -16.7441
  49   2.0000      -0.595389       -16.2014
  50   2.0000      -0.592187       -16.1142
  51   2.0000      -0.580668       -15.8008
  52   2.0000      -0.567349       -15.4384
  53   2.0000      -0.563539       -15.3347
  54   2.0000      -0.547998       -14.9118
  55   2.0000      -0.541917       -14.7463
  56   2.0000      -0.527372       -14.3505
  57   2.0000      -0.517913       -14.0931
  58   2.0000      -0.511889       -13.9292
  59   2.0000      -0.501443       -13.6450
  60   2.0000      -0.494207       -13.4480
  61   2.0000      -0.478431       -13.0188
  62   2.0000      -0.468029       -12.7357
  63   2.0000      -0.450515       -12.2591
  64   2.0000      -0.421990       -11.4829
  65   2.0000      -0.407491       -11.0884
  66   2.0000      -0.394372       -10.7314
  67   2.0000      -0.367984       -10.0134
  68   2.0000      -0.360348        -9.8056
  69   2.0000      -0.351164        -9.5557
  70   2.0000      -0.321540        -8.7496
  71   2.0000      -0.297220        -8.0878
  72   0.0000       0.059323         1.6143
  73   0.0000       0.060783         1.6540
  74   0.0000       0.067658         1.8411
  75   0.0000       0.071332         1.9411
  76   0.0000       0.086757         2.3608

MULLIKEN ATOMIC CHARGES
-----------------------
   0 C :   -0.219213
   1 C :   -0.153266
   2 C :   -0.141861
   3 C :    0.298806
   4 C :   -0.384316
   5 C :   -0.108882
   6 C :    0.249231
   7 C :   -0.136857
   8 C :   -0.154346
   9 H :    0.191660
  10 C :   -0.213443
  11 C :   -0.109157
  12 C :   -0.394979
  13 H :    0.191033
  14 H :    0.182825
  15 H :    0.188248
  16 H :    0.189890
  17 H :    0.189820
  18 C :    0.393289
  19 C :   -0.356142
  20 C :   -0.141467
  21 C :   -0.062157
  22 C :   -0.219456
  23 H :    0.195855
  24 H :    0.180163
  25 H :    0.216797
  26 H :    0.194384
  27 H :    0.188883
  28 N :   -0.024314
  29 H :    0.208712
  30 S :    0.001886
  31 N :   -0.441623
Sum of atomic charges:   -0.0000000

LOEWDIN ATOMIC CHARGES
----------------------
   0 C :   -0.148894
   1 C :   -0.148972
   2 C :   -0.332982
   3 C :   -0.166045
   4 C :   -0.107233
   5 C :   -0.146351
   6 C :   -0.171696
   7 C :   -0.333125
   8 C :   -0.143381
   9 H :    0.160779
  10 C :   -0.145485
  11 C :   -0.141950
  12 C :   -0.107500
  13 H :    0.160005
  14 H :    0.162848
  15 H :    0.159096
  16 H :    0.159676
  17 H :    0.160082
  18 C :   -0.226142
  19 C :   -0.140799
  20 C :   -0.111367
  21 C :   -0.201789
  22 C :   -0.186808
  23 H :    0.163864
  24 H :    0.150154
  25 H :    0.165472
  26 H :    0.156587
  27 H :    0.159021
  28 N :    0.267284
  29 H :    0.168032
  30 S :    0.663180
  31 N :    0.104437

  Mayer bond orders larger than 0.100000
B(  0-C ,  1-C ) :   1.4241 B(  0-C ,  5-C ) :   1.3800 B(  0-C , 27-H ) :   0.9740
B(  1-C ,  2-C ) :   1.3580 B(  1-C , 13-H ) :   0.9622 B(  2-C ,  3-C ) :   1.3497
B(  2-C , 30-S ) :   1.0934 B(  3-C ,  4-C ) :   1.3805 B(  3-C , 28-N ) :   0.8988
B(  4-C ,  5-C ) :   1.4267 B(  4-C , 14-H ) :   0.9677 B(  5-C , 15-H ) :   0.9723
B(  6-C ,  7-C ) :   1.3339 B(  6-C , 12-C ) :   1.3661 B(  6-C , 28-N ) :   0.9428
B(  7-C ,  8-C ) :   1.3643 B(  7-C , 30-S ) :   1.1052 B(  8-C ,  9-H ) :   0.9603
B(  8-C , 10-C ) :   1.4185 B( 10-C , 11-C ) :   1.3814 B( 10-C , 16-H ) :   0.9741
B( 11-C , 12-C ) :   1.4248 B( 11-C , 17-H ) :   0.9713 B( 12-C , 29-H ) :   0.9696
B( 18-C , 19-C ) :   1.3360 B( 18-C , 28-N ) :   1.1428 B( 18-C , 31-N ) :   1.3390
B( 19-C , 20-C ) :   1.5159 B( 19-C , 25-H ) :   0.9511 B( 20-C , 22-C ) :   1.3690
B( 20-C , 23-H ) :   0.9580 B( 21-C , 22-C ) :   1.4554 B( 21-C , 24-H ) :   0.9663
B( 21-C , 31-N ) :   1.4757 B( 22-C , 26-H ) :   0.9586

MP2 TOTAL ENERGY:    -1162.246586372 Eh

-----------------------------------------------------------------------------
         ABSORPTION SPECTRUM VIA TRANSITION ELECTRIC DIPOLE MOMENTS
-----------------------------------------------------------------------------
State   Energy    Wavelength  fosc         T2        TX        TY        TZ
        (cm-1)      (nm)                 (au**2)    (au)      (au)      (au)
-----------------------------------------------------------------------------
   1   35738.3    279.8   0.251777141   2.31931  -1.45998   0.42153  -0.10039
   2   38314.3    261.0   0.091922390   0.78983   0.76527   0.44576   0.07409
   3   37041.5    270.0   0.050713250   0.45072   0.63738   0.00488   0.21080
   4   38827.7    257.5   0.049347830   0.41841  -0.61785  -0.12563   0.14454
   5   39037.8    256.2   0.008192138   0.06909  -0.03057   0.26047  -0.01749
   6   44718.0    223.6   0.176605876   1.30017  -0.48440   0.94185  -0.42243
   7   45125.5    221.6   0.171853337   1.25375  -0.61163  -0.66458  -0.66181
   8   43112.7    232.0   0.012681899   0.09684  -0.29600   0.08421   0.04616
   9   45111.2    221.7   0.448630968   3.27401  -1.10865   1.12789   0.87907
  10   45843.7    218.1   0.812738735   5.83642   0.71160   2.23082  -0.59456
  11   47364.2    211.1   0.230525619   1.60230  -0.14063   1.22908   0.26812
  12   47695.4    209.7   0.068702775   0.47421  -0.65552   0.21016   0.01833
  13   47351.9    211.2   0.024417970   0.16976  -0.12185   0.39355   0.00634
  14   50978.0    196.2   0.310739201   2.00673  -1.39799   0.08436   0.21267
  15   50784.6    196.9   0.122187607   0.79208   0.52262   0.71740   0.06558
  16   49494.5    202.0   0.362680168   2.41236  -0.44454  -1.48483   0.10009
  17   52176.2    191.7   0.240075290   1.51478  -0.91444   0.01804  -0.82356
  18   50597.9    197.6   0.119284508   0.77612   0.86033  -0.13442   0.13371
  19   50338.4    198.7   0.083764460   0.54782   0.42132  -0.18004  -0.58129
  20   55398.2    180.5   0.087419570   0.51950   0.46869  -0.11588  -0.53517
  21   53769.8    186.0   0.287188721   1.75835  -0.39702  -1.13052   0.56802
  22   54876.8    182.2   0.166978796   1.00172   0.36179  -0.59033  -0.72274
  23   55450.0    180.3   0.089551446   0.53168  -0.61009  -0.24573   0.31477
  24   54999.7    181.8   0.143417674   0.85846  -0.56834   0.61328   0.39916
  25   54622.9    183.1   0.232687081   1.40240   0.93280  -0.68792  -0.24300
  26   54767.6    182.6   0.164626856   0.98958  -0.77032  -0.61545   0.13195
  27   55156.6    181.3   0.026920008   0.16068   0.23223  -0.31084  -0.10062
  28   57820.7    172.9   0.045182617   0.25726   0.20202  -0.42971  -0.17830
  29   56837.7    175.9   0.067155145   0.38897  -0.24999   0.54180  -0.18147
  30   59456.0    168.2   0.049579926   0.27453  -0.02125   0.15648   0.49959

FINAL SINGLE POINT ENERGY     -1160.427968081695

DIPOLE MOMENT
-------------
                                X             Y             Z
Electronic contribution:      4.10991       0.85959      -3.56051
Nuclear contribution   :     -4.55042      -1.91781       4.19685
                        -----------------------------------------
Total Dipole Moment    :     -0.44051      -1.05822       0.63633
                        -----------------------------------------
Magnitude (a.u.)       :      1.31103
Magnitude (Debye)      :      3.33238

Rotational constants in cm-1:     0.012999     0.011538     0.007110
Rotational constants in MHz :   389.700536   345.907776   213.155237

                             ****ORCA TERMINATED NORMALLY****
TOTAL RUN TIME: 0 days 4 hours 36 minutes 21 seconds 200 msec
