 Gaussian 09, Revision E.01,

 ----------------------------------------------------------------------
 #p hf/def2TZVP opt freq=noraman nosymm int=ultrafine scrf=(SMD,solvent
 =n,n-DiMethylAcetamide)
 ----------------------------------------------------------------------

 -----
 Title
 -----
 Symbolic Z-matrix:
 Charge =  0 Multiplicity = 1

 SCF Done:  E(RHF) =  -1157.46093726     A.U. after   15 cycles
 SCF Done:  E(RHF) =  -1157.46967305     A.U. after   13 cycles
 SCF Done:  E(RHF) =  -1157.47024698     A.U. after   12 cycles
 SCF Done:  E(RHF) =  -1157.47063727     A.U. after   13 cycles
 SCF Done:  E(RHF) =  -1157.47074895     A.U. after   12 cycles
 SCF Done:  E(RHF) =  -1157.47081647     A.U. after   11 cycles
 SCF Done:  E(RHF) =  -1157.47083511     A.U. after   11 cycles
 SCF Done:  E(RHF) =  -1157.47083658     A.U. after    9 cycles
 SCF Done:  E(RHF) =  -1157.47083704     A.U. after    9 cycles
 Optimization completed.
    -- Stationary point found.
 Normal termination of Gaussian 09 at Sun Apr  4 02:09:39 2021.

 -----------------------------------------------------------------
 #P Geom=AllCheck Guess=TCheck SCRF=Check GenChk RHF/def2TZVP Freq
 -----------------------------------------------------------------

 Structure from the checkpoint file:  "cp.chk"
 -----
 Title
 -----
 Charge =  0 Multiplicity = 1

 SCF Done:  E(RHF) =  -1157.47083704     A.U. after    1 cycles

  Exact polarizability: 312.574   4.038 364.061 -23.198  -0.939 248.267
 Approx polarizability: 204.834   1.983 228.397 -15.865  -0.847 183.083

                      1                      2                      3
                      A                      A                      A
 Frequencies --     35.2766                45.8280                72.4461
 Red. masses --      4.8046                 5.4446                 5.5916
 Frc consts  --      0.0035                 0.0067                 0.0173
 IR Inten    --      0.7943                 4.8784                 3.9306

                      4                      5                      6
                      A                      A                      A
 Frequencies --     89.1297               149.0173               169.1378
 Red. masses --      4.8786                 4.1001                 4.4297
 Frc consts  --      0.0228                 0.0536                 0.0747
 IR Inten    --      0.7786                 0.4986                 1.5641

                      7                      8                      9
                      A                      A                      A
 Frequencies --    200.4288               246.5988               277.6038
 Red. masses --      5.8482                 6.0955                 5.1780
 Frc consts  --      0.1384                 0.2184                 0.2351
 IR Inten    --      1.0646                 2.0721                 1.1312

                     10                     11                     12
                      A                      A                      A
 Frequencies --    344.7613               351.4782               378.9194
 Red. masses --      5.5839                 5.7807                 5.9249
 Frc consts  --      0.3910                 0.4208                 0.5012
 IR Inten    --      2.9907                 8.6344                 6.0667

                     13                     14                     15
                      A                      A                      A
 Frequencies --    421.8465               431.9915               460.1918
 Red. masses --      5.2603                 9.9766                 3.5435
 Frc consts  --      0.5515                 1.0969                 0.4421
 IR Inten    --      2.1344                 8.6697                 6.3755

                     16                     17                     18
                      A                      A                      A
 Frequencies --    482.3615               499.3579               522.2639
 Red. masses --     10.2272                 3.3077                 3.8120
 Frc consts  --      1.4020                 0.4860                 0.6126
 IR Inten    --      1.8475                 0.3920                40.2182

                     19                     20                     21
                      A                      A                      A
 Frequencies --    564.5275               587.5597               589.1714
 Red. masses --      3.0995                 3.9832                 4.6530
 Frc consts  --      0.5820                 0.8102                 0.9516
 IR Inten    --      4.4204                 1.8631                 3.4256

                     22                     23                     24
                      A                      A                      A
 Frequencies --    626.5746               674.9521               687.8978
 Red. masses --      4.4286                 6.6759                 6.5867
 Frc consts  --      1.0244                 1.7919                 1.8364
 IR Inten    --      7.6817                19.8872                 9.1741

                     25                     26                     27
                      A                      A                      A
 Frequencies --    700.4267               743.5291               760.0545
 Red. masses --      5.4785                 6.5395                 6.5409
 Frc consts  --      1.5836                 2.1301                 2.2263
 IR Inten    --     27.2511                 2.7375                 5.6434

                     28                     29                     30
                      A                      A                      A
 Frequencies --    808.1744               825.0999               832.1905
 Red. masses --      5.9271                 3.3117                 1.6591
 Frc consts  --      2.2809                 1.3284                 0.6770
 IR Inten    --      1.4500                13.1641                37.4513

                     31                     32                     33
                      A                      A                      A
 Frequencies --    841.5471               852.3518               859.7968
 Red. masses --      2.3883                 1.3408                 1.6299
 Frc consts  --      0.9965                 0.5739                 0.7099
 IR Inten    --    104.8958                40.5877                66.7145

                     34                     35                     36
                      A                      A                      A
 Frequencies --    871.2315               963.4956               979.8759
 Red. masses --      2.4143                 1.4261                 1.7021
 Frc consts  --      1.0797                 0.7800                 0.9629
 IR Inten    --    164.1470                 8.7904                 4.6738

                     37                     38                     39
                      A                      A                      A
 Frequencies --    983.9365              1007.0288              1032.1359
 Red. masses --      1.6147                 3.3255                 4.3315
 Frc consts  --      0.9210                 1.9870                 2.7187
 IR Inten    --      0.3460                 1.9457                 4.3691

                     40                     41                     42
                      A                      A                      A
 Frequencies --   1072.4226              1087.4356              1090.8725
 Red. masses --      5.9316                 1.4192                 1.4622
 Frc consts  --      4.0194                 0.9888                 1.0252
 IR Inten    --     39.8951                 4.2288                 6.0201

                     43                     44                     45
                      A                      A                      A
 Frequencies --   1115.7913              1118.9704              1120.6954
 Red. masses --      1.4055                 2.6184                 1.3664
 Frc consts  --      1.0309                 1.9316                 1.0111
 IR Inten    --      0.5670                 6.5837                 0.2623

                     46                     47                     48
                      A                      A                      A
 Frequencies --   1121.3581              1124.0080              1135.6213
 Red. masses --      2.5729                 1.3531                 1.3857
 Frc consts  --      1.9061                 1.0072                 1.0529
 IR Inten    --     20.2818                 0.0217                 0.9202

                     49                     50                     51
                      A                      A                      A
 Frequencies --   1137.3888              1160.5693              1177.6376
 Red. masses --      2.1729                 3.3399                 3.4656
 Frc consts  --      1.6562                 2.6505                 2.8317
 IR Inten    --     18.4596                 3.3910                 9.3819

                     52                     53                     54
                      A                      A                      A
 Frequencies --   1178.5911              1186.0060              1192.0843
 Red. masses --      3.1020                 3.0612                 2.4367
 Frc consts  --      2.5388                 2.5370                 2.0401
 IR Inten    --     42.3674                 8.7906                47.1611

                     55                     56                     57
                      A                      A                      A
 Frequencies --   1213.8231              1226.9516              1231.3632
 Red. masses --      1.7519                 1.7760                 1.6889
 Frc consts  --      1.5208                 1.5753                 1.5088
 IR Inten    --     23.2924                15.3570                 5.1400

                     58                     59                     60
                      A                      A                      A
 Frequencies --   1293.8453              1297.7591              1298.8998
 Red. masses --      1.3877                 1.7737                 1.4504
 Frc consts  --      1.3687                 1.7600                 1.4418
 IR Inten    --      0.0189                 5.4501                14.0297

                     61                     62                     63
                      A                      A                      A
 Frequencies --   1314.7146              1352.1053              1390.0727
 Red. masses --      2.1608                 2.0022                 1.7511
 Frc consts  --      2.2005                 2.1567                 1.9936
 IR Inten    --      9.0001                35.6687               216.8021

                     64                     65                     66
                      A                      A                      A
 Frequencies --   1401.4670              1433.3870              1460.0013
 Red. masses --      1.7188                 3.6588                 1.9106
 Frc consts  --      1.9890                 4.4291                 2.3995
 IR Inten    --     43.3615               512.5844                54.0926

                     67                     68                     69
                      A                      A                      A
 Frequencies --   1572.8333              1589.7033              1594.7449
 Red. masses --      2.0788                 2.0898                 2.1979
 Frc consts  --      3.0299                 3.1116                 3.2934
 IR Inten    --    386.6866                58.5823                24.1288

                     70                     71                     72
                      A                      A                      A
 Frequencies --   1619.7824              1630.3843              1635.7865
 Red. masses --      2.4766                 2.2612                 2.5191
 Frc consts  --      3.8285                 3.5414                 3.9714
 IR Inten    --    232.5342               248.9677                85.6817

                     73                     74                     75
                      A                      A                      A
 Frequencies --   1738.2662              1746.3767              1754.6480
 Red. masses --      5.8550                 6.2671                 6.5848
 Frc consts  --     10.4235                11.2613                11.9447
 IR Inten    --     65.7975               129.4489                14.9531

                     76                     77                     78
                      A                      A                      A
 Frequencies --   1762.9477              1766.4369              1781.3886
 Red. masses --      5.5122                 5.1951                 5.5962
 Frc consts  --     10.0939                 9.5509                10.4632
 IR Inten    --     43.1493               268.8011               137.9025

                     79                     80                     81
                      A                      A                      A
 Frequencies --   3319.8967              3329.1342              3330.3190
 Red. masses --      1.0910                 1.0880                 1.0880
 Frc consts  --      7.0845                 7.1047                 7.1094
 IR Inten    --     33.7413                 0.7691                 0.3778

                     82                     83                     84
                      A                      A                      A
 Frequencies --   3335.7141              3339.6900              3339.9307
 Red. masses --      1.0919                 1.0923                 1.0918
 Frc consts  --      7.1583                 7.1783                 7.1756
 IR Inten    --     17.8456                11.5410                 7.9909

                     85                     86                     87
                      A                      A                      A
 Frequencies --   3349.6254              3351.5635              3357.7296
 Red. masses --      1.0955                 1.0969                 1.0989
 Frc consts  --      7.2421                 7.2594                 7.2997
 IR Inten    --     22.0839                27.9701                15.7705

                     88                     89                     90
                      A                      A                      A
 Frequencies --   3363.1626              3363.6437              3401.1195
 Red. masses --      1.0980                 1.0968                 1.0939
 Frc consts  --      7.3172                 7.3113                 7.4554
 IR Inten    --     18.9521                 8.9973                 2.3518

 - Thermochemistry -
 -------------------
 Temperature   298.150 Kelvin.  Pressure   1.00000 Atm.
 Atom     1 has atomic number  6 and mass  12.00000

 Molecular mass:   276.07212 amu.
 Principal axes and moments of inertia in atomic units:
                           1         2         3
     Eigenvalues --  4699.958175067.468558099.11069
           X            0.99121  -0.12355  -0.04727
           Y            0.12342   0.99234  -0.00574
           Z            0.04762  -0.00015   0.99887
 This molecule is an asymmetric top.
 Rotational symmetry number  1.
 Warning -- assumption of classical behavior for rotation
           may cause significant error
 Rotational temperatures (Kelvin)      0.01843     0.01709     0.01069
 Rotational constants (GHZ):           0.38399     0.35614     0.22283
 Zero-point vibrational energy     689520.7 (Joules/Mol)
                                  164.79941 (Kcal/Mol)
 Warning -- explicit consideration of  21 degrees of freedom as
           vibrations may cause significant error
 Vibrational temperatures:     50.76    65.94   104.23   128.24   214.40
          (Kelvin)            243.35   288.37   354.80   399.41   496.03
                              505.70   545.18   606.94   621.54   662.11
                              694.01   718.46   751.42   812.23   845.37
                              847.69   901.50   971.10   989.73  1007.76
                             1069.77  1093.55  1162.78  1187.13  1197.33
                             1210.80  1226.34  1237.05  1253.51  1386.25
                             1409.82  1415.66  1448.89  1485.01  1542.97
                             1564.58  1569.52  1605.37  1609.95  1612.43
                             1613.38  1617.19  1633.90  1636.45  1669.80
                             1694.36  1695.73  1706.40  1715.14  1746.42
                             1765.31  1771.65  1861.55  1867.18  1868.82
                             1891.58  1945.38  2000.00  2016.40  2062.32
                             2100.61  2262.95  2287.23  2294.48  2330.50
                             2345.76  2353.53  2500.97  2512.64  2524.54
                             2536.49  2541.51  2563.02  4776.58  4789.88
                             4791.58  4799.34  4805.06  4805.41  4819.36
                             4822.15  4831.02  4838.83  4839.53  4893.45

 Zero-point correction=                           0.262625 (Hartree/Particle)
 Thermal correction to Energy=                    0.276365
 Thermal correction to Enthalpy=                  0.277309
 Thermal correction to Gibbs Free Energy=         0.220626
 Sum of electronic and zero-point Energies=          -1157.208212
 Sum of electronic and thermal Energies=             -1157.194472
 Sum of electronic and thermal Enthalpies=           -1157.193528
 Sum of electronic and thermal Free Energies=        -1157.250211

                     E (Thermal)             CV                S
                      KCal/Mol        Cal/Mol-Kelvin    Cal/Mol-Kelvin
 Total                  173.421             55.738            119.299
 Electronic               0.000              0.000              0.000
 Translational            0.889              2.981             42.745
 Rotational               0.889              2.981             33.622
 Vibrational            171.644             49.776             42.932
 Vibration     1          0.594              1.982              5.508
 Vibration     2          0.595              1.979              4.990
 Vibration     3          0.599              1.967              4.086
 Vibration     4          0.602              1.957              3.679
 Vibration     5          0.618              1.904              2.685
 Vibration     6          0.625              1.880              2.445
 Vibration     7          0.638              1.839              2.129
 Vibration     8          0.661              1.768              1.755
 Vibration     9          0.679              1.715              1.548
 Vibration    10          0.723              1.586              1.190
 Vibration    11          0.728              1.572              1.160
 Vibration    12          0.749              1.515              1.043
 Vibration    13          0.784              1.423              0.886
 Vibration    14          0.793              1.401              0.852
 Vibration    15          0.818              1.338              0.766
 Vibration    16          0.839              1.289              0.704
 Vibration    17          0.855              1.251              0.660
 Vibration    18          0.877              1.201              0.605
 Vibration    19          0.920              1.108              0.515
 Vibration    20          0.945              1.058              0.472
 Vibration    21          0.946              1.055              0.469

 Normal termination of Gaussian 09 at Sun Apr  4 03:41:08 2021.
 Gaussian 09:  ES64L-G09RevE.01 30-Nov-2015

 ----------------------------------------------------------------------
 #p hf chkbasis geom=allcheck Guess=Read int=ultrafine scrf=(SMD,solven
 t=n,n-DiMethylAcetamide) td=(NStates=30)
 ----------------------------------------------------------------------

 Structure from the checkpoint file:  "cp.chk"
 -----
 Title
 -----
 Charge =  0 Multiplicity = 1

                         Standard orientation:
 ---------------------------------------------------------------------
 Center     Atomic      Atomic             Coordinates (Angstroms)
 Number     Number       Type             X           Y           Z
 ---------------------------------------------------------------------
      1          6           0        1.564306    3.698679    0.293365
      2          6           0        1.890586    2.706645   -0.607470
      3          6           0        1.255739    1.476949   -0.535028
      4          6           0        0.300173    1.237071    0.437368
      5          6           0        0.010987    2.221348    1.365901
      6          6           0        0.631173    3.451136    1.286649
      7          6           0        0.581198   -1.141865    0.454268
      8          6           0        1.564218   -1.176985   -0.521198
      9          6           0        2.456948   -2.233708   -0.576836
     10          1           0        3.223782   -2.249472   -1.328299
     11          6           0        2.362873   -3.259100    0.342706
     12          6           0        1.402941   -3.210167    1.338509
     13          6           0        0.524613   -2.146687    1.402984
     14          1           0        2.638871    2.880532   -1.357721
     15          1           0       -0.709535    2.024304    2.135238
     16          1           0        0.391663    4.214462    2.002902
     17          1           0        3.051563   -4.081527    0.295539
     18          1           0        1.343855   -3.994149    2.069700
     19          6           0       -1.654118   -0.194792    0.103911
     20          6           0       -2.199501   -1.455569   -0.177983
     21          6           0       -3.521335   -1.525202   -0.532268
     22          6           0       -3.652057    0.812006   -0.319274
     23          6           0       -4.286396   -0.368244   -0.606461
     24          1           0       -3.957573   -2.481229   -0.756142
     25          1           0       -4.187472    1.743476   -0.366626
     26          1           0       -1.608980   -2.344553   -0.130668
     27          1           0       -5.322868   -0.388909   -0.879796
     28          1           0        2.051758    4.653676    0.234978
     29          7           0       -0.321861   -0.043369    0.484700
     30          1           0       -0.217847   -2.100029    2.176826
     31         16           0        1.674571    0.173879   -1.659974
     32          7           0       -2.375917    0.899407    0.025124
 ---------------------------------------------------------------------

 SCF Done:  E(RHF) =  -1157.47087474     A.U. after    8 cycles

 Excitation energies and oscillator strengths:

 Excited State   1:      Singlet-A      5.3857 eV  230.21 nm  f=0.0812  <S**2>=0.000
      68 -> 77        -0.14277
      69 -> 73         0.10930
      69 -> 75        -0.18357
      70 -> 74         0.20882
      71 -> 73        -0.15998
      71 -> 76         0.26286
      72 -> 75         0.12399
      72 -> 76         0.40379
 This state for optimization and/or second-order correction.
 Total Energy, E(TD-HF/TD-KS) =  -1157.27295322
 Copying the excited state density for this state as the 1-particle RhoCI density.

 Excited State   2:      Singlet-A      5.4455 eV  227.68 nm  f=0.1599  <S**2>=0.000
      67 -> 78        -0.12383
      68 -> 73         0.17764
      71 -> 73        -0.19205
      71 -> 74         0.16982
      71 -> 75        -0.13530
      71 -> 76        -0.11207
      71 -> 77         0.15224
      72 -> 73         0.40387
      72 -> 74        -0.26915
      72 -> 77        -0.12741

 Excited State   3:      Singlet-A      5.6239 eV  220.46 nm  f=0.0610  <S**2>=0.000
      68 -> 74        -0.16571
      68 -> 78         0.10241
      69 -> 74        -0.12477
      69 -> 76        -0.14441
      70 -> 76         0.14198
      70 -> 77         0.17143
      71 -> 73        -0.22973
      71 -> 74        -0.11438
      71 -> 75         0.10671
      71 -> 78        -0.14009
      72 -> 74         0.23951
      72 -> 75         0.34896
      72 -> 76        -0.11035

 Excited State   4:      Singlet-A      5.6777 eV  218.37 nm  f=0.0060  <S**2>=0.000
      68 -> 73        -0.11244
      68 -> 75         0.19793
      69 -> 73        -0.12580
      69 -> 76        -0.13765
      69 -> 77        -0.19209
      70 -> 73         0.11007
      70 -> 76        -0.22495
      70 -> 77         0.14935
      71 -> 73         0.10798
      71 -> 74         0.25994
      71 -> 75         0.11723
      72 -> 73         0.20788
      72 -> 74         0.30518
      72 -> 75        -0.15875

 Excited State   5:      Singlet-A      5.7684 eV  214.94 nm  f=0.0100  <S**2>=0.000
      68 -> 74         0.14084
      68 -> 76         0.18593
      69 -> 73        -0.11165
      69 -> 74        -0.24563
      69 -> 76         0.13076
      70 -> 73         0.18349
      70 -> 75        -0.27171
      71 -> 73         0.10914
      71 -> 76         0.21744
      71 -> 77         0.16966
      72 -> 76        -0.10121
      72 -> 77         0.26395

 Excited State   6:      Singlet-A      6.0214 eV  205.91 nm  f=0.1430  <S**2>=0.000
      67 -> 73         0.10901
      69 -> 75        -0.10255
      69 -> 76         0.11821
      70 -> 74         0.21001
      71 -> 75        -0.23580
      71 -> 78        -0.11727
      71 -> 79         0.15911
      71 -> 80        -0.11789
      72 -> 77         0.11561
      72 -> 78         0.25215
      72 -> 79         0.19443

 Excited State   7:      Singlet-A      6.0495 eV  204.95 nm  f=0.1645  <S**2>=0.000
      67 -> 73         0.12443
      68 -> 73         0.15551
      68 -> 77         0.10480
      69 -> 75         0.12183
      70 -> 74        -0.14627
      71 -> 75        -0.20309
      71 -> 78        -0.17647
      71 -> 79        -0.17510
      72 -> 78         0.27742
      72 -> 79        -0.15906
      72 -> 80         0.13177

 Excited State   8:      Singlet-A      6.6057 eV  187.69 nm  f=0.0255  <S**2>=0.000
      65 -> 73         0.36854
      65 -> 74        -0.21389
      65 -> 75         0.16535
      65 -> 77        -0.20568
      66 -> 73        -0.24331
      66 -> 74         0.14852
      66 -> 75        -0.12707
      66 -> 77         0.13907
      70 -> 73         0.12275
      70 -> 74        -0.10912

 Excited State   9:      Singlet-A      6.7584 eV  183.45 nm  f=0.9299  <S**2>=0.000
      67 -> 73        -0.13473
      68 -> 74        -0.12135
      68 -> 75        -0.20562
      68 -> 76        -0.11866
      69 -> 73        -0.11893
      69 -> 75         0.10782
      70 -> 74         0.16037
      71 -> 73         0.12981
      71 -> 74        -0.16348
      71 -> 75        -0.19389
      71 -> 76        -0.18779
      71 -> 78         0.11063
      72 -> 73         0.25458
      72 -> 74         0.16248
      72 -> 77         0.17474
      72 -> 78        -0.13472

 Excited State  10:      Singlet-A      6.8014 eV  182.29 nm  f=0.1748  <S**2>=0.000
      68 -> 73         0.19092
      68 -> 74         0.10474
      68 -> 76        -0.11340
      68 -> 77         0.11395
      69 -> 73        -0.13234
      69 -> 74        -0.20291
      70 -> 73        -0.13971
      70 -> 75         0.14485
      71 -> 73         0.15731
      71 -> 75         0.12559
      71 -> 76        -0.13562
      71 -> 77         0.20129
      72 -> 75         0.24563
      72 -> 76         0.25237
      72 -> 77         0.12771

 Excited State  11:      Singlet-A      6.8132 eV  181.98 nm  f=0.9543  <S**2>=0.000
      67 -> 73        -0.13182
      68 -> 77         0.11593
      69 -> 74        -0.11208
      69 -> 75        -0.15137
      69 -> 76         0.16987
      70 -> 73        -0.11011
      70 -> 74        -0.19956
      70 -> 76         0.13798
      71 -> 75        -0.14799
      71 -> 76         0.24191
      71 -> 79         0.10323
      72 -> 74         0.25860
      72 -> 77        -0.20411

 Excited State  12:      Singlet-A      6.8489 eV  181.03 nm  f=0.6826  <S**2>=0.000
      68 -> 75         0.10765
      69 -> 74        -0.15843
      69 -> 77         0.16099
      70 -> 75         0.10501
      70 -> 77         0.15532
      71 -> 74        -0.29300
      71 -> 77         0.10274
      72 -> 73         0.12432
      72 -> 74        -0.13216
      72 -> 75        -0.31892
      72 -> 76         0.17946
      72 -> 78         0.11620

 Excited State  13:      Singlet-A      7.4295 eV  166.88 nm  f=0.6020  <S**2>=0.000
      64 -> 74        -0.10389
      67 -> 73        -0.18990
      67 -> 74         0.12278
      67 -> 75        -0.10079
      68 -> 74        -0.10295
      69 -> 76        -0.13165
      70 -> 75         0.13598
      70 -> 76         0.27803
      70 -> 77         0.13290
      71 -> 73         0.13482
      71 -> 74         0.20860
      71 -> 78        -0.13183
      72 -> 74        -0.17360
      72 -> 78         0.25055

 Excited State  14:      Singlet-A      7.4903 eV  165.53 nm  f=0.3383  <S**2>=0.000
      67 -> 73         0.29718
      67 -> 74        -0.15186
      67 -> 75         0.16712
      67 -> 77        -0.14084
      69 -> 74        -0.11112
      70 -> 74         0.17815
      70 -> 75         0.15970
      70 -> 76         0.17166
      71 -> 73         0.13712
      71 -> 74         0.12658
      72 -> 75        -0.13787
      72 -> 76        -0.15877
      72 -> 78        -0.18132

 Excited State  15:      Singlet-A      7.5806 eV  163.56 nm  f=0.0896  <S**2>=0.000
      64 -> 76         0.12046
      67 -> 73         0.17468
      67 -> 75         0.11353
      68 -> 76         0.10229
      70 -> 74        -0.14654
      70 -> 75        -0.25580
      70 -> 76         0.25835
      71 -> 74         0.12348
      71 -> 76        -0.12254
      71 -> 77        -0.15256
      72 -> 76         0.28132

 Excited State  16:      Singlet-A      7.7473 eV  160.03 nm  f=0.0047  <S**2>=0.000
      65 -> 74         0.13488
      65 -> 75         0.19284
      65 -> 78         0.44542
      66 -> 75        -0.13678
      66 -> 78        -0.30035
      70 -> 78         0.18211

 Excited State  17:      Singlet-A      7.8123 eV  158.70 nm  f=0.1669  <S**2>=0.000
      67 -> 78        -0.10284
      68 -> 74        -0.14344
      69 -> 76         0.14172
      70 -> 73         0.10327
      71 -> 80         0.14163
      71 -> 83         0.11288
      71 -> 94        -0.10755
      72 -> 73        -0.13775
      72 -> 80        -0.16757
      72 -> 81         0.21679
      72 -> 83         0.24416
      72 -> 84         0.17389
      72 -> 90         0.11038
      72 -> 94        -0.10312

 Excited State  18:      Singlet-A      7.8219 eV  158.51 nm  f=0.1961  <S**2>=0.000
      67 -> 78         0.13141
      69 -> 73         0.12020
      70 -> 73        -0.22845
      70 -> 77        -0.12973
      71 -> 75         0.17997
      71 -> 78        -0.10961
      72 -> 73         0.25329
      72 -> 77         0.19475
      72 -> 81         0.13149
      72 -> 83         0.10893

 Excited State  19:      Singlet-A      7.8693 eV  157.55 nm  f=0.1029  <S**2>=0.000
      69 -> 75         0.10422
      70 -> 74         0.12303
      71 -> 75         0.12421
      71 -> 80        -0.16547
      71 -> 81         0.10441
      71 -> 83         0.10038
      72 -> 75        -0.15584
      72 -> 77        -0.11998
      72 -> 79         0.16862
      72 -> 80         0.32007

 Excited State  20:      Singlet-A      7.9349 eV  156.25 nm  f=0.2246  <S**2>=0.000
      64 -> 74        -0.10589
      67 -> 78         0.10311
      68 -> 73        -0.15779
      68 -> 74        -0.12104
      69 -> 76         0.19238
      70 -> 74        -0.19062
      70 -> 75         0.11804
      70 -> 76        -0.10926
      70 -> 77         0.20405
      71 -> 73         0.15704
      72 -> 74        -0.19878
      72 -> 75         0.17380
      72 -> 78        -0.13185
      72 -> 80         0.19585

 Excited State  21:      Singlet-A      8.0730 eV  153.58 nm  f=0.1035  <S**2>=0.000
      67 -> 74         0.13831
      67 -> 78         0.31424
      68 -> 74         0.12593
      69 -> 76        -0.25721
      71 -> 75        -0.19068
      72 -> 77        -0.22032
      72 -> 83         0.12372

 Excited State  22:      Singlet-A      8.0818 eV  153.41 nm  f=0.0634  <S**2>=0.000
      67 -> 75         0.11773
      67 -> 78         0.23257
      68 -> 75        -0.11250
      69 -> 73        -0.10270
      69 -> 75         0.11308
      69 -> 76         0.16450
      71 -> 75         0.16908
      71 -> 78        -0.12434
      71 -> 79         0.12943
      71 -> 80         0.14154
      71 -> 84        -0.10367
      72 -> 73         0.12154
      72 -> 77        -0.23264
      72 -> 80        -0.12346
      72 -> 82         0.11894

 Excited State  23:      Singlet-A      8.2172 eV  150.88 nm  f=0.0497  <S**2>=0.000
      64 -> 76        -0.13943
      66 -> 76         0.13266
      68 -> 75        -0.13802
      69 -> 73        -0.11360
      69 -> 74         0.12367
      69 -> 75         0.24789
      69 -> 76        -0.10134
      71 -> 76         0.37779
      72 -> 76        -0.10019
      72 -> 77         0.16653
      72 -> 79         0.14204

 Excited State  24:      Singlet-A      8.2579 eV  150.14 nm  f=0.0954  <S**2>=0.000
      67 -> 74        -0.12602
      67 -> 75        -0.12934
      67 -> 78        -0.27980
      68 -> 73        -0.16822
      69 -> 74         0.13763
      69 -> 76        -0.13980
      71 -> 73         0.30041
      71 -> 74        -0.15988
      71 -> 75         0.12354
      72 -> 73         0.15153
      72 -> 77        -0.14866

 Excited State  25:      Singlet-A      8.4174 eV  147.29 nm  f=0.0336  <S**2>=0.000
      69 -> 74         0.13317
      69 -> 79         0.24623
      71 -> 75         0.21133
      71 -> 77         0.11574
      71 -> 78         0.13471
      71 -> 80        -0.19257
      71 -> 82        -0.12896
      72 -> 78         0.11592
      72 -> 79        -0.10220
      72 -> 82        -0.13028

 Excited State  26:      Singlet-A      8.4981 eV  145.90 nm  f=0.1559  <S**2>=0.000
      66 -> 73        -0.10553
      66 -> 74        -0.12510
      68 -> 74         0.11006
      68 -> 77         0.13002
      69 -> 73        -0.18608
      69 -> 75        -0.10013
      69 -> 77        -0.20387
      70 -> 77         0.11376
      71 -> 73        -0.10318
      71 -> 74        -0.17921
      71 -> 77        -0.11488
      71 -> 81        -0.14832
      71 -> 83         0.11261
      72 -> 78        -0.12768
      72 -> 81         0.27729

 Excited State  27:      Singlet-A      8.5520 eV  144.98 nm  f=0.0564  <S**2>=0.000
      69 -> 77        -0.15381
      69 -> 80         0.13481
      70 -> 76         0.15376
      70 -> 80         0.19295
      70 -> 82         0.10179
      71 -> 74        -0.14044
      71 -> 79        -0.13982
      71 -> 80         0.12748
      71 -> 81         0.20958
      72 -> 79         0.14258
      72 -> 81        -0.17603
      72 -> 83         0.14124

 Excited State  28:      Singlet-A      8.5547 eV  144.93 nm  f=0.0401  <S**2>=0.000
      68 -> 76         0.12094
      68 -> 79        -0.22854
      69 -> 73         0.11597
      70 -> 80         0.15672
      70 -> 81         0.13825
      71 -> 73         0.10769
      71 -> 79        -0.19398
      71 -> 81        -0.15994
      71 -> 83         0.10666
      72 -> 79         0.21707
      72 -> 80        -0.10137
      72 -> 81         0.18658
      72 -> 83        -0.18220

 Excited State  29:      Singlet-A      8.6173 eV  143.88 nm  f=0.0588  <S**2>=0.000
      62 -> 74        -0.10660
      68 -> 73         0.13080
      68 -> 74        -0.10328
      68 -> 79         0.12077
      69 -> 73         0.12975
      69 -> 74         0.23735
      69 -> 77        -0.16054
      69 -> 79        -0.12872
      71 -> 77         0.30553
      71 -> 79         0.10744
      72 -> 77         0.12124

 Excited State  30:      Singlet-A      8.6422 eV  143.46 nm  f=0.0258  <S**2>=0.000
      63 -> 76        -0.10072
      65 -> 76         0.11113
      65 -> 79        -0.10267
      66 -> 76         0.16223
      66 -> 79        -0.12459
      69 -> 75        -0.13494
      69 -> 80        -0.20342
      69 -> 81        -0.10053
      69 -> 82        -0.11055
      70 -> 79         0.23859
      71 -> 77         0.12976
      71 -> 79         0.14956
      72 -> 79         0.15580
      72 -> 82         0.11674
      72 -> 84         0.13926

 The electronic state is 1-A.
 Alpha  occ. eigenvalues --  -91.96650 -15.59020 -15.54911 -11.31960 -11.27931
 Alpha  occ. eigenvalues --  -11.27782 -11.26917 -11.26748 -11.26559 -11.24628
 Alpha  occ. eigenvalues --  -11.23775 -11.23584 -11.23420 -11.23285 -11.23163
 Alpha  occ. eigenvalues --  -11.23160 -11.23073 -11.22936 -11.22245 -11.21582
 Alpha  occ. eigenvalues --   -8.97097  -6.65249  -6.65179  -6.65098  -1.31914
 Alpha  occ. eigenvalues --   -1.24956  -1.17020  -1.15790  -1.08805  -1.08235
 Alpha  occ. eigenvalues --   -1.03866  -1.03392  -1.02576  -0.99262  -0.93256
 Alpha  occ. eigenvalues --   -0.87355  -0.87076  -0.83641  -0.82805  -0.82428
 Alpha  occ. eigenvalues --   -0.77931  -0.73595  -0.72721  -0.68483  -0.67399
 Alpha  occ. eigenvalues --   -0.66418  -0.64980  -0.64138  -0.63809  -0.61703
 Alpha  occ. eigenvalues --   -0.61275  -0.60086  -0.58359  -0.57770  -0.56772
 Alpha  occ. eigenvalues --   -0.55582  -0.53816  -0.53425  -0.52151  -0.51591
 Alpha  occ. eigenvalues --   -0.50921  -0.49026  -0.47159  -0.45059  -0.42345
 Alpha  occ. eigenvalues --   -0.41697  -0.38623  -0.35406  -0.34830  -0.33776
 Alpha  occ. eigenvalues --   -0.31180  -0.29652
 Alpha virt. eigenvalues --    0.10533   0.10847   0.11376   0.11735   0.13488
 Alpha virt. eigenvalues --    0.14481   0.15993   0.16106   0.17466   0.18025
 Alpha virt. eigenvalues --    0.18496   0.18687   0.19285   0.20308   0.20789

 Mulliken charges:
               1
     1  C   -0.198505
     2  C   -0.122289
     3  C   -0.185964
     4  C    0.387942
     5  C   -0.420732
     6  C   -0.054192
     7  C    0.306398
     8  C   -0.173005
     9  C   -0.136923
    10  H    0.169377
    11  C   -0.185004
    12  C   -0.065205
    13  C   -0.380158
    14  H    0.168471
    15  H    0.152287
    16  H    0.164904
    17  H    0.167430
    18  H    0.166135
    19  C    0.425927
    20  C   -0.337806
    21  C   -0.098072
    22  C   -0.006318
    23  C   -0.197323
    24  H    0.172666
    25  H    0.155070
    26  H    0.176884
    27  H    0.171368
    28  H    0.166076
    29  N   -0.039419
    30  H    0.165790
    31  S   -0.015537
    32  N   -0.500273
 Sum of Mulliken charges =  -0.00000

 Dipole moment (field-independent basis, Debye):
    X=             -0.3478    Y=             -2.6240    Z=              1.5120  Tot=              3.0483
 Quadrupole moment (field-independent basis, Debye-Ang):
   XX=           -109.7235   YY=           -102.1236   ZZ=           -123.1866
   XY=              2.6651   XZ=             -1.0820   YZ=             -0.1885

 Normal termination of Gaussian 09 at Sun Apr  4 04:56:13 2021.
