                         Program Version 5.0.2 -  RELEASE  -
|  1> %maxcore 20000
|  2> %pal
|  3>  nprocs= 6
|  4> end
|  5> ! RI-SCS-PBE-QIDH   def2-TZVP def2/J def2-TZVP/C RIJCOSX CPCM TightSCF
|  6> %TDDFT
|  7>    NROOTS   30
|  8>    dcorr 4
|  9>    doscs true
| 10>    TDA      FALSE
| 11> END
| 12>
| 13> %CPCM
| 14>    SMD          TRUE
| 15>    SMDsolvent   "N,N-DIMETHYLACETAMIDE"
| 16> END
| 17>
| 18>
| 19> * xyz 0 1
| 20> C                   1.78498200    3.61579300    0.39144600
| 21> C                   2.20379200    2.58769900   -0.43540600
| 22> C                   1.49430000    1.39147600   -0.46602100
| 23> C                   0.36462500    1.22004400    0.33615900
| 24> C                  -0.01286700    2.23891100    1.20492000
| 25> C                   0.68545000    3.43460500    1.22025500
| 26> C                   0.47514600   -1.18095600    0.35687300
| 27> C                   1.61588100   -1.27453500   -0.44220300
| 28> C                   2.42213300   -2.40628000   -0.38184000
| 29> H                   3.30685200   -2.46562000   -1.00308000
| 30> C                   2.08895600   -3.44627900    0.46949100
| 31> C                   0.97556700   -3.34084000    1.29286400
| 32> C                   0.18271400   -2.20659000    1.24985200
| 33> H                   3.08047900    2.70476600   -1.05984800
| 34> H                  -0.86497500    2.09113700    1.85230400
| 35> H                   0.37188900    4.22641400    1.88825000
| 36> H                   2.71247900   -4.33016600    0.50451700
| 37> H                   0.72800800   -4.14022300    1.97905800
| 38> C                  -1.69837000   -0.08293300   -0.00669100
| 39> C                  -2.33090100   -1.30352800   -0.29588900
| 40> C                  -3.67921100   -1.29392100   -0.57597000
| 41> C                  -3.66556300    1.05431100   -0.30206400
| 42> C                  -4.38179300   -0.09428900   -0.57245700
| 43> H                  -4.18073800   -2.22571500   -0.80700600
| 44> H                  -4.15711300    2.02321600   -0.30678800
| 45> H                  -1.77748200   -2.22993500   -0.32312100
| 46> H                  -5.44118200   -0.05318700   -0.78305900
| 47> H                   2.33172600    4.54980800    0.40452600
| 48> N                  -0.33140600   -0.01730600    0.26705500
| 49> H                  -0.68181400   -2.11432500    1.89480800
| 50> S                   2.01748800    0.06866300   -1.51189200
| 51> N                  -2.36244900    1.07289200   -0.02565600
| 52> *
| 53>
| 54>
| 55>                          ****END OF INPUT****

CARTESIAN COORDINATES (ANGSTROEM)
---------------------------------
  C      1.784982    3.615793    0.391446
  C      2.203792    2.587699   -0.435406
  C      1.494300    1.391476   -0.466021
  C      0.364625    1.220044    0.336159
  C     -0.012867    2.238911    1.204920
  C      0.685450    3.434605    1.220255
  C      0.475146   -1.180956    0.356873
  C      1.615881   -1.274535   -0.442203
  C      2.422133   -2.406280   -0.381840
  H      3.306852   -2.465620   -1.003080
  C      2.088956   -3.446279    0.469491
  C      0.975567   -3.340840    1.292864
  C      0.182714   -2.206590    1.249852
  H      3.080479    2.704766   -1.059848
  H     -0.864975    2.091137    1.852304
  H      0.371889    4.226414    1.888250
  H      2.712479   -4.330166    0.504517
  H      0.728008   -4.140223    1.979058
  C     -1.698370   -0.082933   -0.006691
  C     -2.330901   -1.303528   -0.295889
  C     -3.679211   -1.293921   -0.575970
  C     -3.665563    1.054311   -0.302064
  C     -4.381793   -0.094289   -0.572457
  H     -4.180738   -2.225715   -0.807006
  H     -4.157113    2.023216   -0.306788
  H     -1.777482   -2.229935   -0.323121
  H     -5.441182   -0.053187   -0.783059
  H      2.331726    4.549808    0.404526
  N     -0.331406   -0.017306    0.267055
  H     -0.681814   -2.114325    1.894808
  S      2.017488    0.068663   -1.511892
  N     -2.362449    1.072892   -0.025656

 Total Charge           Charge          ....    0
 Multiplicity           Mult            ....    1
 Number of Electrons    NEL             ....  144
 Basis Dimension        Dim             ....  698

ORBITAL ENERGIES
----------------

  NO   OCC          E(Eh)            E(eV)
   0   2.0000     -90.760182     -2469.7101
   1   2.0000     -15.122579      -411.5063
   2   2.0000     -15.075468      -410.2243
   3   2.0000     -10.909859      -296.8724
   4   2.0000     -10.875933      -295.9492
   5   2.0000     -10.874134      -295.9002
   6   2.0000     -10.863977      -295.6238
   7   2.0000     -10.862591      -295.5861
   8   2.0000     -10.856422      -295.4183
   9   2.0000     -10.837082      -294.8920
  10   2.0000     -10.831335      -294.7356
  11   2.0000     -10.829145      -294.6760
  12   2.0000     -10.828312      -294.6534
  13   2.0000     -10.825955      -294.5892
  14   2.0000     -10.825299      -294.5714
  15   2.0000     -10.824869      -294.5597
  16   2.0000     -10.823664      -294.5269
  17   2.0000     -10.822580      -294.4974
  18   2.0000     -10.819876      -294.4238
  19   2.0000     -10.812718      -294.2290
  20   2.0000      -8.589452      -233.7309
  21   2.0000      -6.375905      -173.4972
  22   2.0000      -6.373848      -173.4412
  23   2.0000      -6.371594      -173.3799
  24   2.0000      -1.208690       -32.8901
  25   2.0000      -1.140666       -31.0391
  26   2.0000      -1.067202       -29.0400
  27   2.0000      -1.058301       -28.7978
  28   2.0000      -0.991858       -26.9898
  29   2.0000      -0.990697       -26.9582
  30   2.0000      -0.946432       -25.7537
  31   2.0000      -0.942258       -25.6402
  32   2.0000      -0.934082       -25.4177
  33   2.0000      -0.903959       -24.5980
  34   2.0000      -0.851734       -23.1769
  35   2.0000      -0.800852       -21.7923
  36   2.0000      -0.796807       -21.6822
  37   2.0000      -0.763947       -20.7880
  38   2.0000      -0.752747       -20.4833
  39   2.0000      -0.749546       -20.3962
  40   2.0000      -0.708739       -19.2858
  41   2.0000      -0.674090       -18.3429
  42   2.0000      -0.669129       -18.2079
  43   2.0000      -0.624113       -16.9830
  44   2.0000      -0.613277       -16.6881
  45   2.0000      -0.604134       -16.4393
  46   2.0000      -0.590847       -16.0778
  47   2.0000      -0.585787       -15.9401
  48   2.0000      -0.579834       -15.7781
  49   2.0000      -0.560218       -15.2443
  50   2.0000      -0.557289       -15.1646
  51   2.0000      -0.546210       -14.8631
  52   2.0000      -0.533014       -14.5040
  53   2.0000      -0.528154       -14.3718
  54   2.0000      -0.512837       -13.9550
  55   2.0000      -0.507226       -13.8023
  56   2.0000      -0.493113       -13.4183
  57   2.0000      -0.484028       -13.1711
  58   2.0000      -0.476642       -12.9701
  59   2.0000      -0.468047       -12.7362
  60   2.0000      -0.460895       -12.5416
  61   2.0000      -0.445610       -12.1257
  62   2.0000      -0.433898       -11.8070
  63   2.0000      -0.416868       -11.3435
  64   2.0000      -0.388584       -10.5739
  65   2.0000      -0.373585       -10.1658
  66   2.0000      -0.362233        -9.8569
  67   2.0000      -0.336478        -9.1560
  68   2.0000      -0.329315        -8.9611
  69   2.0000      -0.320398        -8.7185
  70   2.0000      -0.291326        -7.9274
  71   2.0000      -0.266993        -7.2652
  72   0.0000       0.039739         1.0813
  73   0.0000       0.041461         1.1282
  74   0.0000       0.047885         1.3030
  75   0.0000       0.051553         1.4028
  76   0.0000       0.066305         1.8043

MULLIKEN ATOMIC CHARGES
-----------------------
   0 C :   -0.205075
   1 C :   -0.149119
   2 C :   -0.136409
   3 C :    0.321359
   4 C :   -0.387390
   5 C :   -0.085192
   6 C :    0.271347
   7 C :   -0.130840
   8 C :   -0.152187
   9 H :    0.177271
  10 C :   -0.198614
  11 C :   -0.093057
  12 C :   -0.389126
  13 H :    0.176562
  14 H :    0.161090
  15 H :    0.173569
  16 H :    0.175196
  17 H :    0.174790
  18 C :    0.372943
  19 C :   -0.338169
  20 C :   -0.137020
  21 C :   -0.060144
  22 C :   -0.192213
  23 H :    0.180939
  24 H :    0.163791
  25 H :    0.196499
  26 H :    0.181131
  27 H :    0.174139
  28 N :    0.025280
  29 H :    0.186990
  30 S :   -0.030338
  31 N :   -0.428003
Sum of atomic charges:    0.0000000

LOEWDIN ATOMIC CHARGES
----------------------
   0 C :   -0.146950
   1 C :   -0.147049
   2 C :   -0.331523
   3 C :   -0.163838
   4 C :   -0.104996
   5 C :   -0.144423
   6 C :   -0.169393
   7 C :   -0.331672
   8 C :   -0.141589
   9 H :    0.158081
  10 C :   -0.143591
  11 C :   -0.140173
  12 C :   -0.105258
  13 H :    0.157329
  14 H :    0.160384
  15 H :    0.156345
  16 H :    0.156933
  17 H :    0.157314
  18 C :   -0.225244
  19 C :   -0.137493
  20 C :   -0.110978
  21 C :   -0.200562
  22 C :   -0.184072
  23 H :    0.160932
  24 H :    0.147270
  25 H :    0.163209
  26 H :    0.153845
  27 H :    0.156287
  28 N :    0.268293
  29 H :    0.165343
  30 S :    0.662259
  31 N :    0.104982

  Mayer bond orders larger than 0.100000
B(  0-C ,  1-C ) :   1.4209 B(  0-C ,  5-C ) :   1.3803 B(  0-C , 27-H ) :   0.9773
B(  1-C ,  2-C ) :   1.3547 B(  1-C , 13-H ) :   0.9709 B(  2-C ,  3-C ) :   1.3515
B(  2-C , 30-S ) :   1.0863 B(  3-C ,  4-C ) :   1.3856 B(  3-C , 28-N ) :   0.8926
B(  4-C ,  5-C ) :   1.4244 B(  4-C , 14-H ) :   0.9813 B(  5-C , 15-H ) :   0.9745
B(  6-C ,  7-C ) :   1.3323 B(  6-C , 12-C ) :   1.3772 B(  6-C , 28-N ) :   0.9395
B(  7-C ,  8-C ) :   1.3606 B(  7-C , 30-S ) :   1.0978 B(  8-C ,  9-H ) :   0.9695
B(  8-C , 10-C ) :   1.4157 B( 10-C , 11-C ) :   1.3825 B( 10-C , 16-H ) :   0.9772
B( 11-C , 12-C ) :   1.4262 B( 11-C , 17-H ) :   0.9743 B( 12-C , 29-H ) :   0.9803
B( 18-C , 19-C ) :   1.3458 B( 18-C , 28-N ) :   1.1445 B( 18-C , 31-N ) :   1.3435
B( 19-C , 20-C ) :   1.5154 B( 19-C , 25-H ) :   0.9619 B( 20-C , 22-C ) :   1.3757
B( 20-C , 23-H ) :   0.9616 B( 21-C , 22-C ) :   1.4561 B( 21-C , 24-H ) :   0.9718
B( 21-C , 31-N ) :   1.4755 B( 22-C , 26-H ) :   0.9600

MP2 TOTAL ENERGY:    -1161.781223624 Eh

-----------------------------------------------------------------------------
         ABSORPTION SPECTRUM VIA TRANSITION ELECTRIC DIPOLE MOMENTS
-----------------------------------------------------------------------------
State   Energy    Wavelength  fosc         T2        TX        TY        TZ
        (cm-1)      (nm)                 (au**2)    (au)      (au)      (au)
-----------------------------------------------------------------------------
   1   34560.1    289.4   0.261759254   2.49346  -1.53540   0.35174  -0.11082
   2   37078.0    269.7   0.088033997   0.78164   0.76142   0.44025   0.08980
   3   35826.8    279.1   0.027962878   0.25695   0.45921  -0.03470   0.21183
   4   37387.6    267.5   0.050596019   0.44552   0.63857   0.09061  -0.17187
   5   37409.7    267.3   0.008273854   0.07281   0.03930  -0.26588   0.02397
   6   43299.1    231.0   0.209449359   1.59248  -0.51269   1.01182  -0.55304
   7   43728.8    228.7   0.195902736   1.47485  -0.41474  -0.93878  -0.64926
   8   43042.2    232.3   0.018518578   0.14164  -0.37490  -0.02534   0.02116
   9   44113.2    226.7   0.287837572   2.14810  -1.18578   0.33976   0.79158
  10   45558.3    219.5   0.633816709   4.58007   0.34581   2.10059  -0.21914
  11   46246.6    216.2   0.195156002   1.38924  -0.07475   1.16300   0.17629
  12   46590.6    214.6   0.039710750   0.28060  -0.32879   0.41064   0.06223
  13   47220.8    211.8   0.032575030   0.22710   0.10716  -0.46406   0.01656
  14   48802.1    204.9   0.188748262   1.27327   0.99848  -0.51465  -0.10691
  15   48258.6    207.2   0.189669027   1.29389   0.75161   0.82968  -0.20150
  16   48474.0    206.3   0.043955116   0.29852  -0.33613   0.34579  -0.25684
  17   49846.0    200.6   0.208996256   1.38033   0.31656   1.13021  -0.05234
  18   48766.9    205.1   0.092843270   0.62676   0.64137  -0.32198  -0.33426
  19   53110.9    188.3   0.313391834   1.94258   1.06870   0.12630   0.88573
  20   52649.2    189.9   0.382497891   2.39173  -0.09939  -1.54257  -0.04825
  21   54369.2    183.9   0.411447183   2.49136  -1.13904  -0.27783   1.05677
  22   53196.3    188.0   0.021356058   0.13216  -0.02909  -0.15938  -0.32545
  23   56181.2    178.0   0.013324574   0.07808  -0.17530   0.00375  -0.21757
  24   53267.5    187.7   0.271685953   1.67911   1.10995  -0.40223  -0.53417
  25   53943.6    185.4   0.121002377   0.73846  -0.55979  -0.59134   0.27463
  26   54542.3    183.3   0.136429016   0.82347   0.82073   0.38076   0.07006
  27   54196.6    184.5   0.039175781   0.23797   0.31749  -0.33927  -0.14854
  28   56175.8    178.0   0.232880870   1.36477   0.41664  -1.06007  -0.25967
  29   56157.7    178.1   0.088932502   0.52135  -0.31146   0.62364  -0.18817
  30   56055.9    178.4   0.003673282   0.02157   0.13492   0.05201  -0.02577

FINAL SINGLE POINT ENERGY     -1160.430243353653

DIPOLE MOMENT
-------------
                                X             Y             Z
Electronic contribution:      4.12754       0.86967      -3.56577
Nuclear contribution   :     -4.55042      -1.91781       4.19685
                        -----------------------------------------
Total Dipole Moment    :     -0.42288      -1.04814       0.63108
                        -----------------------------------------
Magnitude (a.u.)       :      1.29449
Magnitude (Debye)      :      3.29032

Rotational constants in cm-1:     0.012999     0.011538     0.007110
Rotational constants in MHz :   389.700536   345.907776   213.155237

                             ****ORCA TERMINATED NORMALLY****
TOTAL RUN TIME: 0 days 2 hours 19 minutes 12 seconds 754 msec
