                         Program Version 5.0.2 -  RELEASE  -
|  1> %maxcore 3200
|  2> %pal
|  3>  nprocs= 8
|  4> end
|  5> ! RI-wB2PLYP def2-TZVP def2/J def2-TZVP/C RIJCOSX CPCM TightSCF
|  6> %TDDFT DCORR 1
|  7>    NROOTS   30
|  8>
|  9>    TDA      FALSE
| 10> END
| 11>
| 12> %CPCM
| 13>    SMD          TRUE
| 14>    SMDsolvent   "N,N-DIMETHYLACETAMIDE"
| 15> END
| 16>
| 17>
| 18> * xyz 0 1
| 19> C                   1.78498200    3.61579300    0.39144600
| 20> C                   2.20379200    2.58769900   -0.43540600
| 21> C                   1.49430000    1.39147600   -0.46602100
| 22> C                   0.36462500    1.22004400    0.33615900
| 23> C                  -0.01286700    2.23891100    1.20492000
| 24> C                   0.68545000    3.43460500    1.22025500
| 25> C                   0.47514600   -1.18095600    0.35687300
| 26> C                   1.61588100   -1.27453500   -0.44220300
| 27> C                   2.42213300   -2.40628000   -0.38184000
| 28> H                   3.30685200   -2.46562000   -1.00308000
| 29> C                   2.08895600   -3.44627900    0.46949100
| 30> C                   0.97556700   -3.34084000    1.29286400
| 31> C                   0.18271400   -2.20659000    1.24985200
| 32> H                   3.08047900    2.70476600   -1.05984800
| 33> H                  -0.86497500    2.09113700    1.85230400
| 34> H                   0.37188900    4.22641400    1.88825000
| 35> H                   2.71247900   -4.33016600    0.50451700
| 36> H                   0.72800800   -4.14022300    1.97905800
| 37> C                  -1.69837000   -0.08293300   -0.00669100
| 38> C                  -2.33090100   -1.30352800   -0.29588900
| 39> C                  -3.67921100   -1.29392100   -0.57597000
| 40> C                  -3.66556300    1.05431100   -0.30206400
| 41> C                  -4.38179300   -0.09428900   -0.57245700
| 42> H                  -4.18073800   -2.22571500   -0.80700600
| 43> H                  -4.15711300    2.02321600   -0.30678800
| 44> H                  -1.77748200   -2.22993500   -0.32312100
| 45> H                  -5.44118200   -0.05318700   -0.78305900
| 46> H                   2.33172600    4.54980800    0.40452600
| 47> N                  -0.33140600   -0.01730600    0.26705500
| 48> H                  -0.68181400   -2.11432500    1.89480800
| 49> S                   2.01748800    0.06866300   -1.51189200
| 50> N                  -2.36244900    1.07289200   -0.02565600
| 51> *
| 52>
| 53>
| 54>                          ****END OF INPUT****

CARTESIAN COORDINATES (ANGSTROEM)
---------------------------------
  C      1.784982    3.615793    0.391446
  C      2.203792    2.587699   -0.435406
  C      1.494300    1.391476   -0.466021
  C      0.364625    1.220044    0.336159
  C     -0.012867    2.238911    1.204920
  C      0.685450    3.434605    1.220255
  C      0.475146   -1.180956    0.356873
  C      1.615881   -1.274535   -0.442203
  C      2.422133   -2.406280   -0.381840
  H      3.306852   -2.465620   -1.003080
  C      2.088956   -3.446279    0.469491
  C      0.975567   -3.340840    1.292864
  C      0.182714   -2.206590    1.249852
  H      3.080479    2.704766   -1.059848
  H     -0.864975    2.091137    1.852304
  H      0.371889    4.226414    1.888250
  H      2.712479   -4.330166    0.504517
  H      0.728008   -4.140223    1.979058
  C     -1.698370   -0.082933   -0.006691
  C     -2.330901   -1.303528   -0.295889
  C     -3.679211   -1.293921   -0.575970
  C     -3.665563    1.054311   -0.302064
  C     -4.381793   -0.094289   -0.572457
  H     -4.180738   -2.225715   -0.807006
  H     -4.157113    2.023216   -0.306788
  H     -1.777482   -2.229935   -0.323121
  H     -5.441182   -0.053187   -0.783059
  H      2.331726    4.549808    0.404526
  N     -0.331406   -0.017306    0.267055
  H     -0.681814   -2.114325    1.894808
  S      2.017488    0.068663   -1.511892
  N     -2.362449    1.072892   -0.025656

 Total Charge           Charge          ....    0
 Multiplicity           Mult            ....    1
 Number of Electrons    NEL             ....  144
 Basis Dimension        Dim             ....  698

ORBITAL ENERGIES
----------------

  NO   OCC          E(Eh)            E(eV)
   0   2.0000     -90.239980     -2455.5547
   1   2.0000     -14.947013      -406.7289
   2   2.0000     -14.902518      -405.5181
   3   2.0000     -10.776021      -293.2304
   4   2.0000     -10.740879      -292.2742
   5   2.0000     -10.739043      -292.2242
   6   2.0000     -10.728394      -291.9344
   7   2.0000     -10.726950      -291.8951
   8   2.0000     -10.722842      -291.7834
   9   2.0000     -10.703252      -291.2503
  10   2.0000     -10.697071      -291.0821
  11   2.0000     -10.694832      -291.0212
  12   2.0000     -10.694104      -291.0014
  13   2.0000     -10.691827      -290.9394
  14   2.0000     -10.691044      -290.9181
  15   2.0000     -10.690852      -290.9129
  16   2.0000     -10.689505      -290.8762
  17   2.0000     -10.688508      -290.8491
  18   2.0000     -10.686254      -290.7877
  19   2.0000     -10.679270      -290.5977
  20   2.0000      -8.450940      -229.9618
  21   2.0000      -6.297631      -171.3673
  22   2.0000      -6.295062      -171.2973
  23   2.0000      -6.292001      -171.2140
  24   2.0000      -1.214929       -33.0599
  25   2.0000      -1.149287       -31.2737
  26   2.0000      -1.079056       -29.3626
  27   2.0000      -1.070725       -29.1359
  28   2.0000      -1.007988       -27.4287
  29   2.0000      -1.004297       -27.3283
  30   2.0000      -0.961766       -26.1710
  31   2.0000      -0.957299       -26.0494
  32   2.0000      -0.949298       -25.8317
  33   2.0000      -0.920063       -25.0362
  34   2.0000      -0.871070       -23.7030
  35   2.0000      -0.821092       -22.3430
  36   2.0000      -0.817362       -22.2416
  37   2.0000      -0.784406       -21.3448
  38   2.0000      -0.773375       -21.0446
  39   2.0000      -0.771289       -20.9879
  40   2.0000      -0.730599       -19.8806
  41   2.0000      -0.698998       -19.0207
  42   2.0000      -0.694311       -18.8932
  43   2.0000      -0.649996       -17.6873
  44   2.0000      -0.638863       -17.3843
  45   2.0000      -0.630004       -17.1433
  46   2.0000      -0.616144       -16.7661
  47   2.0000      -0.610357       -16.6086
  48   2.0000      -0.605836       -16.4856
  49   2.0000      -0.587452       -15.9854
  50   2.0000      -0.583777       -15.8854
  51   2.0000      -0.572271       -15.5723
  52   2.0000      -0.559696       -15.2301
  53   2.0000      -0.556923       -15.1546
  54   2.0000      -0.542057       -14.7501
  55   2.0000      -0.534513       -14.5448
  56   2.0000      -0.520580       -14.1657
  57   2.0000      -0.511467       -13.9177
  58   2.0000      -0.507461       -13.8087
  59   2.0000      -0.494782       -13.4637
  60   2.0000      -0.487577       -13.2677
  61   2.0000      -0.471981       -12.8433
  62   2.0000      -0.463221       -12.6049
  63   2.0000      -0.445407       -12.1201
  64   2.0000      -0.417845       -11.3701
  65   2.0000      -0.400442       -10.8966
  66   2.0000      -0.391434       -10.6515
  67   2.0000      -0.365793        -9.9537
  68   2.0000      -0.357854        -9.7377
  69   2.0000      -0.348596        -9.4858
  70   2.0000      -0.318685        -8.6719
  71   2.0000      -0.293876        -7.9968
  72   0.0000       0.065651         1.7864
  73   0.0000       0.067079         1.8253
  74   0.0000       0.074022         2.0143
  75   0.0000       0.077582         2.1111
  76   0.0000       0.092556         2.5186

MULLIKEN ATOMIC CHARGES
-----------------------
   0 C :   -0.209127
   1 C :   -0.157227
   2 C :   -0.107953
   3 C :    0.263894
   4 C :   -0.346230
   5 C :   -0.118385
   6 C :    0.224154
   7 C :   -0.106419
   8 C :   -0.156719
   9 H :    0.183609
  10 C :   -0.204637
  11 C :   -0.116274
  12 C :   -0.356459
  13 H :    0.182610
  14 H :    0.175384
  15 H :    0.181681
  16 H :    0.183425
  17 H :    0.183758
  18 C :    0.364084
  19 C :   -0.330556
  20 C :   -0.132129
  21 C :   -0.078343
  22 C :   -0.217998
  23 H :    0.191031
  24 H :    0.175138
  25 H :    0.206710
  26 H :    0.184027
  27 H :    0.182199
  28 N :   -0.048024
  29 H :    0.201157
  30 S :   -0.000007
  31 N :   -0.396376
Sum of atomic charges:   -0.0000000

LOEWDIN ATOMIC CHARGES
----------------------
   0 C :   -0.147985
   1 C :   -0.148585
   2 C :   -0.330319
   3 C :   -0.163668
   4 C :   -0.106663
   5 C :   -0.145827
   6 C :   -0.168992
   7 C :   -0.330455
   8 C :   -0.143062
   9 H :    0.158496
  10 C :   -0.144589
  11 C :   -0.141433
  12 C :   -0.106371
  13 H :    0.157693
  14 H :    0.160573
  15 H :    0.156966
  16 H :    0.157582
  17 H :    0.157983
  18 C :   -0.225899
  19 C :   -0.138198
  20 C :   -0.111916
  21 C :   -0.204876
  22 C :   -0.184457
  23 H :    0.161901
  24 H :    0.148160
  25 H :    0.164118
  26 H :    0.154654
  27 H :    0.156903
  28 N :    0.269719
  29 H :    0.165933
  30 S :    0.662886
  31 N :    0.109727

  Mayer bond orders larger than 0.100000
B(  0-C ,  1-C ) :   1.4309 B(  0-C ,  5-C ) :   1.3847 B(  0-C , 27-H ) :   0.9731
B(  1-C ,  2-C ) :   1.3423 B(  1-C , 13-H ) :   0.9644 B(  2-C ,  3-C ) :   1.3318
B(  2-C , 30-S ) :   1.0931 B(  3-C ,  4-C ) :   1.3786 B(  3-C , 28-N ) :   0.9027
B(  4-C ,  5-C ) :   1.4258 B(  4-C , 14-H ) :   0.9636 B(  5-C , 15-H ) :   0.9729
B(  6-C ,  7-C ) :   1.3190 B(  6-C , 12-C ) :   1.3602 B(  6-C , 28-N ) :   0.9363
B(  7-C ,  8-C ) :   1.3489 B(  7-C , 30-S ) :   1.1051 B(  8-C ,  9-H ) :   0.9622
B(  8-C , 10-C ) :   1.4257 B( 10-C , 11-C ) :   1.3865 B( 10-C , 16-H ) :   0.9730
B( 11-C , 12-C ) :   1.4197 B( 11-C , 17-H ) :   0.9713 B( 12-C , 29-H ) :   0.9690
B( 18-C , 19-C ) :   1.3308 B( 18-C , 28-N ) :   1.1363 B( 18-C , 31-N ) :   1.3473
B( 19-C , 20-C ) :   1.5068 B( 19-C , 25-H ) :   0.9532 B( 20-C , 22-C ) :   1.3605
B( 20-C , 23-H ) :   0.9599 B( 21-C , 22-C ) :   1.4516 B( 21-C , 24-H ) :   0.9704
B( 21-C , 31-N ) :   1.4857 B( 22-C , 26-H ) :   0.9625

MP2 TOTAL ENERGY:    -1161.277149277 Eh

-----------------------------------------------------------------------------
         ABSORPTION SPECTRUM VIA TRANSITION ELECTRIC DIPOLE MOMENTS
-----------------------------------------------------------------------------
State   Energy    Wavelength  fosc         T2        TX        TY        TZ
        (cm-1)      (nm)                 (au**2)    (au)      (au)      (au)
-----------------------------------------------------------------------------
   1   37128.5    269.3   0.263875544   2.33974  -1.47351   0.39608  -0.10784
   2   39105.7    255.7   0.085045551   0.71596   0.71108   0.45101   0.08313
   3   38625.6    258.9   0.056664863   0.48296   0.65786  -0.02282   0.22285
   4   40196.4    248.8   0.066721859   0.54646  -0.72107  -0.11562   0.11469
   5   40575.7    246.5   0.008890289   0.07213  -0.03696  -0.26568   0.01344
   6   45206.5    221.2   0.179713945   1.30875  -0.33384   1.04969  -0.30896
   7   45681.0    218.9   0.168063703   1.21119  -0.64705  -0.47497  -0.75294
   8   44695.1    223.7   0.009996485   0.07363   0.26755  -0.04472   0.00698
   9   47327.0    211.3   0.648839892   4.51340  -0.90558   1.78524   0.71150
  10   47399.2    211.0   0.767828285   5.33297   1.00184   1.92899  -0.77993
  11   48818.7    204.8   0.127009058   0.85649   0.12958  -0.87804  -0.26219
  12   49209.1    203.2   0.074011325   0.49514   0.66473  -0.22410  -0.05520
  13   49355.5    202.6   0.001267310   0.00845   0.00967  -0.07620   0.05054
  14   53324.7    187.5   0.276740149   1.70852   1.23038  -0.41269  -0.15611
  15   53554.2    186.7   0.246098426   1.51283  -0.86060  -0.87844  -0.02317
  16   53400.8    187.3   0.380642040   2.34663  -0.74444  -1.33707  -0.06849
  17   54562.1    183.3   0.277154837   1.67227   0.88717  -0.43165   0.83599
  18   53136.5    188.2   0.105643180   0.65452   0.70493  -0.33771  -0.20869
  19   54335.6    184.0   0.072143586   0.43711   0.41431  -0.09744  -0.50593
  20   56030.1    178.5   0.012125322   0.07124   0.18577  -0.15930  -0.10658
  21   56928.2    175.7   0.148203182   0.85705  -0.35569  -0.01199   0.85463
  22   56093.3    178.3   0.270693340   1.58870   0.18457   1.24169  -0.11334
  23   57543.6    173.8   0.218019966   1.24731   0.84107  -0.03610  -0.73389
  24   57561.9    173.7   0.133889267   0.76575   0.39602  -0.72581  -0.28657
  25   58046.8    172.3   0.226490004   1.28454  -0.92580   0.60563   0.24627
  26   58336.6    171.4   0.165755166   0.93541   0.69999   0.65540  -0.12601
  27   58609.6    170.6   0.026261250   0.14751  -0.32501   0.17643   0.10369
  28   61009.8    163.9   0.033750822   0.18212   0.22131  -0.35380  -0.08926
  29   60465.0    165.4   0.054250008   0.29537   0.28706  -0.43792   0.14558
  30   62433.3    160.2   0.028956631   0.15269  -0.03560   0.11498  -0.37175

FINAL SINGLE POINT ENERGY     -1160.162283109347

DIPOLE MOMENT
-------------
                                X             Y             Z
Electronic contribution:      4.12227       0.85495      -3.57533
Nuclear contribution   :     -4.55042      -1.91781       4.19685
                        -----------------------------------------
Total Dipole Moment    :     -0.42815      -1.06286       0.62152
                        -----------------------------------------
Magnitude (a.u.)       :      1.30356
Magnitude (Debye)      :      3.31338

Rotational constants in cm-1:     0.012999     0.011538     0.007110
Rotational constants in MHz :   389.700536   345.907776   213.155237

                             ****ORCA TERMINATED NORMALLY****
TOTAL RUN TIME: 0 days 0 hours 21 minutes 22 seconds 62 msec
