                         Program Version 5.0.2 -  RELEASE  -
|  1> %maxcore 38400
|  2> %pal
|  3>  nprocs= 4
|  4> end
|  5> !STEOM-DLPNO-CCSD DEF2-TZVP DEF2-TZVP/C def2/J TightSCF TightPNO CPCM
|  6> %MDCI
|  7>    Dorootwise true
|  8>    OTHRESH 0.005
|  9>    VTHRESH 0.005
| 10>    TCutPNOSingles 1e-11
| 11>    DTol 1e-5
| 12>    NROOTS  25
| 13>    DOSOLV  TRUE
| 14>    MAXITER 500
| 15> END
| 16> %CPCM
| 17>    SMD          TRUE
| 18>    SMDsolvent   "N,N-DIMETHYLACETAMIDE"
| 19> END
| 20>
| 21>
| 22> * xyz 0 1
| 23> C                   1.78498200    3.61579300    0.39144600
| 24> C                   2.20379200    2.58769900   -0.43540600
| 25> C                   1.49430000    1.39147600   -0.46602100
| 26> C                   0.36462500    1.22004400    0.33615900
| 27> C                  -0.01286700    2.23891100    1.20492000
| 28> C                   0.68545000    3.43460500    1.22025500
| 29> C                   0.47514600   -1.18095600    0.35687300
| 30> C                   1.61588100   -1.27453500   -0.44220300
| 31> C                   2.42213300   -2.40628000   -0.38184000
| 32> H                   3.30685200   -2.46562000   -1.00308000
| 33> C                   2.08895600   -3.44627900    0.46949100
| 34> C                   0.97556700   -3.34084000    1.29286400
| 35> C                   0.18271400   -2.20659000    1.24985200
| 36> H                   3.08047900    2.70476600   -1.05984800
| 37> H                  -0.86497500    2.09113700    1.85230400
| 38> H                   0.37188900    4.22641400    1.88825000
| 39> H                   2.71247900   -4.33016600    0.50451700
| 40> H                   0.72800800   -4.14022300    1.97905800
| 41> C                  -1.69837000   -0.08293300   -0.00669100
| 42> C                  -2.33090100   -1.30352800   -0.29588900
| 43> C                  -3.67921100   -1.29392100   -0.57597000
| 44> C                  -3.66556300    1.05431100   -0.30206400
| 45> C                  -4.38179300   -0.09428900   -0.57245700
| 46> H                  -4.18073800   -2.22571500   -0.80700600
| 47> H                  -4.15711300    2.02321600   -0.30678800
| 48> H                  -1.77748200   -2.22993500   -0.32312100
| 49> H                  -5.44118200   -0.05318700   -0.78305900
| 50> H                   2.33172600    4.54980800    0.40452600
| 51> N                  -0.33140600   -0.01730600    0.26705500
| 52> H                  -0.68181400   -2.11432500    1.89480800
| 53> S                   2.01748800    0.06866300   -1.51189200
| 54> N                  -2.36244900    1.07289200   -0.02565600
| 55> *
| 56>
| 57>
| 58>                          ****END OF INPUT****

CARTESIAN COORDINATES (ANGSTROEM)
---------------------------------
  C      1.784982    3.615793    0.391446
  C      2.203792    2.587699   -0.435406
  C      1.494300    1.391476   -0.466021
  C      0.364625    1.220044    0.336159
  C     -0.012867    2.238911    1.204920
  C      0.685450    3.434605    1.220255
  C      0.475146   -1.180956    0.356873
  C      1.615881   -1.274535   -0.442203
  C      2.422133   -2.406280   -0.381840
  H      3.306852   -2.465620   -1.003080
  C      2.088956   -3.446279    0.469491
  C      0.975567   -3.340840    1.292864
  C      0.182714   -2.206590    1.249852
  H      3.080479    2.704766   -1.059848
  H     -0.864975    2.091137    1.852304
  H      0.371889    4.226414    1.888250
  H      2.712479   -4.330166    0.504517
  H      0.728008   -4.140223    1.979058
  C     -1.698370   -0.082933   -0.006691
  C     -2.330901   -1.303528   -0.295889
  C     -3.679211   -1.293921   -0.575970
  C     -3.665563    1.054311   -0.302064
  C     -4.381793   -0.094289   -0.572457
  H     -4.180738   -2.225715   -0.807006
  H     -4.157113    2.023216   -0.306788
  H     -1.777482   -2.229935   -0.323121
  H     -5.441182   -0.053187   -0.783059
  H      2.331726    4.549808    0.404526
  N     -0.331406   -0.017306    0.267055
  H     -0.681814   -2.114325    1.894808
  S      2.017488    0.068663   -1.511892
  N     -2.362449    1.072892   -0.025656

 Total Charge           Charge          ....    0
 Multiplicity           Mult            ....    1
 Number of Electrons    NEL             ....  144
 Basis Dimension        Dim             ....  698

ORBITAL ENERGIES
----------------

  NO   OCC          E(Eh)            E(eV)
   0   2.0000     -91.966655     -2502.5399
   1   2.0000     -15.596464      -424.4014
   2   2.0000     -15.553292      -423.2266
   3   2.0000     -11.324747      -308.1620
   4   2.0000     -11.284912      -307.0781
   5   2.0000     -11.283181      -307.0310
   6   2.0000     -11.270796      -306.6939
   7   2.0000     -11.270263      -306.6795
   8   2.0000     -11.269431      -306.6568
   9   2.0000     -11.249593      -306.1170
  10   2.0000     -11.240551      -305.8709
  11   2.0000     -11.238272      -305.8089
  12   2.0000     -11.236840      -305.7700
  13   2.0000     -11.235196      -305.7252
  14   2.0000     -11.233986      -305.6923
  15   2.0000     -11.233765      -305.6863
  16   2.0000     -11.232762      -305.6590
  17   2.0000     -11.231590      -305.6271
  18   2.0000     -11.225745      -305.4681
  19   2.0000     -11.219237      -305.2910
  20   2.0000      -8.971276      -244.1208
  21   2.0000      -6.652826      -181.0326
  22   2.0000      -6.652091      -181.0126
  23   2.0000      -6.651273      -180.9903
  24   2.0000      -1.317464       -35.8500
  25   2.0000      -1.245358       -33.8879
  26   2.0000      -1.166585       -31.7444
  27   2.0000      -1.156042       -31.4575
  28   2.0000      -1.086174       -29.5563
  29   2.0000      -1.082467       -29.4554
  30   2.0000      -1.036188       -28.1961
  31   2.0000      -1.032015       -28.0826
  32   2.0000      -1.023621       -27.8541
  33   2.0000      -0.991114       -26.9696
  34   2.0000      -0.930889       -25.3308
  35   2.0000      -0.874081       -23.7850
  36   2.0000      -0.870511       -23.6878
  37   2.0000      -0.836107       -22.7516
  38   2.0000      -0.824823       -22.4446
  39   2.0000      -0.819846       -22.3091
  40   2.0000      -0.776555       -21.1311
  41   2.0000      -0.733832       -19.9686
  42   2.0000      -0.726358       -19.7652
  43   2.0000      -0.681698       -18.5500
  44   2.0000      -0.670527       -18.2460
  45   2.0000      -0.661035       -17.9877
  46   2.0000      -0.647024       -17.6064
  47   2.0000      -0.642413       -17.4809
  48   2.0000      -0.635009       -17.2795
  49   2.0000      -0.615696       -16.7539
  50   2.0000      -0.611457       -16.6386
  51   2.0000      -0.599520       -16.3138
  52   2.0000      -0.582594       -15.8532
  53   2.0000      -0.575814       -15.6687
  54   2.0000      -0.565557       -15.3896
  55   2.0000      -0.554475       -15.0880
  56   2.0000      -0.539468       -14.6797
  57   2.0000      -0.533968       -14.5300
  58   2.0000      -0.519368       -14.1327
  59   2.0000      -0.514398       -13.9975
  60   2.0000      -0.508399       -13.8343
  61   2.0000      -0.490309       -13.3420
  62   2.0000      -0.471181       -12.8215
  63   2.0000      -0.455327       -12.3901
  64   2.0000      -0.425723       -11.5845
  65   2.0000      -0.416755       -11.3405
  66   2.0000      -0.385615       -10.4931
  67   2.0000      -0.354575        -9.6485
  68   2.0000      -0.347445        -9.4545
  69   2.0000      -0.338042        -9.1986
  70   2.0000      -0.310499        -8.4491
  71   2.0000      -0.287179        -7.8146
  72   0.0000       0.104101         2.8327
  73   0.0000       0.104670         2.8482
  74   0.0000       0.112254         3.0546
  75   0.0000       0.115627         3.1464
  76   0.0000       0.132046         3.5931

E(0)                                       ...  -1157.467863436
E(0)                                       ...  -1157.467863436
E(CORR)(strong-pairs)                      ...     -3.216064160
E(CORR)(weak-pairs)                        ...     -0.006224784
E(CORR)(corrected)                         ...     -3.222288944
E(TOT)                                     ...  -1160.690152380

MULLIKEN ATOMIC CHARGES
-----------------------
   0 C :   -0.198501
   1 C :   -0.146046
   2 C :   -0.143562
   3 C :    0.291717
   4 C :   -0.358863
   5 C :   -0.089123
   6 C :    0.232802
   7 C :   -0.123480
   8 C :   -0.153091
   9 H :    0.172808
  10 C :   -0.194556
  11 C :   -0.094244
  12 C :   -0.368989
  13 H :    0.172808
  14 H :    0.159401
  15 H :    0.172623
  16 H :    0.174245
  17 H :    0.175154
  18 C :    0.329126
  19 C :   -0.325062
  20 C :   -0.132435
  21 C :   -0.088325
  22 C :   -0.192347
  23 H :    0.181617
  24 H :    0.166063
  25 H :    0.189544
  26 H :    0.177129
  27 H :    0.172522
  28 N :    0.017488
  29 H :    0.183636
  30 S :    0.010166
  31 N :   -0.370226
Sum of atomic charges:   -0.0000000

LOEWDIN ATOMIC CHARGES
----------------------
   0 C :   -0.148451
   1 C :   -0.150248
   2 C :   -0.334850
   3 C :   -0.165622
   4 C :   -0.109888
   5 C :   -0.146709
   6 C :   -0.170786
   7 C :   -0.334745
   8 C :   -0.145213
   9 H :    0.159475
  10 C :   -0.145145
  11 C :   -0.142949
  12 C :   -0.108544
  13 H :    0.158705
  14 H :    0.161550
  15 H :    0.158310
  16 H :    0.158872
  17 H :    0.159419
  18 C :   -0.241093
  19 C :   -0.132176
  20 C :   -0.124250
  21 C :   -0.217818
  22 C :   -0.177763
  23 H :    0.162537
  24 H :    0.148694
  25 H :    0.164992
  26 H :    0.155825
  27 H :    0.158138
  28 N :    0.280780
  29 H :    0.166832
  30 S :    0.673042
  31 N :    0.129080

  Mayer bond orders larger than 0.100000
B(  0-C ,  1-C ) :   1.3106 B(  0-C ,  5-C ) :   1.2707 B(  0-C , 27-H ) :   0.9325
B(  1-C ,  2-C ) :   1.2579 B(  1-C , 13-H ) :   0.9229 B(  2-C ,  3-C ) :   1.2521
B(  2-C , 30-S ) :   1.0179 B(  3-C ,  4-C ) :   1.2813 B(  3-C , 28-N ) :   0.8425
B(  4-C ,  5-C ) :   1.3196 B(  4-C , 14-H ) :   0.9268 B(  5-C , 15-H ) :   0.9280
B(  6-C ,  7-C ) :   1.2458 B(  6-C , 12-C ) :   1.2643 B(  6-C , 28-N ) :   0.8898
B(  7-C ,  8-C ) :   1.2679 B(  7-C , 30-S ) :   1.0230 B(  8-C ,  9-H ) :   0.9238
B(  8-C , 10-C ) :   1.3041 B( 10-C , 11-C ) :   1.2705 B( 10-C , 16-H ) :   0.9322
B( 11-C , 12-C ) :   1.3116 B( 11-C , 17-H ) :   0.9273 B( 12-C , 29-H ) :   0.9319
B( 18-C , 19-C ) :   1.2439 B( 18-C , 28-N ) :   1.0847 B( 18-C , 31-N ) :   1.2623
B( 19-C , 20-C ) :   1.3982 B( 19-C , 25-H ) :   0.9159 B( 20-C , 22-C ) :   1.2628
B( 20-C , 23-H ) :   0.9165 B( 21-C , 22-C ) :   1.3449 B( 21-C , 24-H ) :   0.9235
B( 21-C , 31-N ) :   1.3959 B( 22-C , 26-H ) :   0.9156

-----------------------------------------------------------------------------
         ABSORPTION SPECTRUM VIA TRANSITION ELECTRIC DIPOLE MOMENTS
-----------------------------------------------------------------------------
State   Energy  Wavelength   fosc         T2         TX        TY        TZ
        (cm-1)    (nm)                  (au**2)     (au)      (au)      (au)
-----------------------------------------------------------------------------
   1   33276.9    300.5   0.163988032   1.62235   1.22854   0.31036   0.09872
   2   34042.3    293.8   0.035319177   0.34156   0.56467   0.01867   0.14723
   3   35362.5    282.8   0.028251273   0.26301   0.44811   0.19330   0.07551
   4   36444.6    274.4   0.119616102   1.08052   1.02517   0.12010   0.10158
   5   37434.8    267.1   0.060527395   0.53229   0.64287   0.32865   0.01879
   6   42145.8    237.3   0.102175223   0.79812   0.23623   0.19047   0.59931
   7   42738.5    234.0   0.286721922   2.20860   0.56868   1.26363   0.29329
   8   44687.0    223.8   0.237091400   1.74667   0.59673   1.17192   0.03274
   9   45849.4    218.1   0.125687973   0.90248   0.90273   0.07604   0.26478
  10   46608.9    214.6   0.062588581   0.44208   0.46409   0.39476   0.21646
  11   46909.0    213.2   0.054184735   0.38027   0.15490   0.42320   0.14083
  12   49189.6    203.3   0.011056059   0.07399   0.18963   0.08373   0.10242
  13   51071.4    195.8   0.146484277   0.94425   0.01350   0.91543   0.27325
  14   54041.2    185.0   0.131820621   0.80303   0.51894   0.28951   0.31324
  15   54671.0    182.9   0.226898176   1.36631   0.48652   0.51688   0.68805
  16   56003.7    178.6   0.228365523   1.34242   0.91568   0.45423   0.20000
  17   61433.1    162.8   0.042707038   0.22886   0.22364   0.22225   0.29602
  18   80595.8    124.1   0.072372554   0.29562   0.40617   0.17942   0.21242

FINAL SINGLE POINT ENERGY     -1160.538531481576

DIPOLE MOMENT
-------------
                                X             Y             Z
Electronic contribution:      4.18052       0.89540      -3.59133
Nuclear contribution   :     -4.55042      -1.91781       4.19685
                        -----------------------------------------
Total Dipole Moment    :     -0.36990      -1.02241       0.60552
                        -----------------------------------------
Magnitude (a.u.)       :      1.24451
Magnitude (Debye)      :      3.16329

Rotational constants in cm-1:     0.012999     0.011538     0.007110
Rotational constants in MHz :   389.700536   345.907776   213.155237

                             ****ORCA TERMINATED NORMALLY****
TOTAL RUN TIME: 0 days 7 hours 29 minutes 8 seconds 600 msec
