 Gaussian 09, Revision E.01,

 ----------------------------------------------------------------------
 #p B97D3/def2TZVP opt freq=noraman nosymm int=ultrafine scrf=(SMD,solv
 ent=n,n-DiMethylAcetamide)
 ----------------------------------------------------------------------

 -----
 Title
 -----
 Symbolic Z-matrix:
 Charge =  0 Multiplicity = 1

 SCF Done:  E(RB97D3) =  -1162.54752047     A.U. after   14 cycles
 SCF Done:  E(RB97D3) =  -1162.54804724     A.U. after   11 cycles
 SCF Done:  E(RB97D3) =  -1162.54825187     A.U. after   10 cycles
 SCF Done:  E(RB97D3) =  -1162.54836798     A.U. after   10 cycles
 SCF Done:  E(RB97D3) =  -1162.54842618     A.U. after   10 cycles
 SCF Done:  E(RB97D3) =  -1162.54845168     A.U. after    9 cycles
 SCF Done:  E(RB97D3) =  -1162.54845618     A.U. after    8 cycles
 SCF Done:  E(RB97D3) =  -1162.54845725     A.U. after    8 cycles
 SCF Done:  E(RB97D3) =  -1162.54845764     A.U. after    8 cycles
 SCF Done:  E(RB97D3) =  -1162.54845782     A.U. after    8 cycles
 Optimization completed.
    -- Stationary point found.

 1\1\GINC-CN015\FOpt\RB97D3\def2TZVP\C17H12N2S1\PNG4RJV\30-Mar-2021\0\\
 #p B97D3/def2TZVP opt freq=noraman nosymm int=ultrafine scrf=(SMD,solv
 ent=n,n-DiMethylAcetamide)\\Title\\0,1\C,-1.9411501752,3.562552937,-0.
 3593968125\C,-2.2856888488,2.5046076943,0.4799822586\C,-1.5183085119,1
 .3343874537,0.4704921512\C,-0.4112874469,1.2182821321,-0.3852467833\C,
 -0.1070963001,2.2639511967,-1.2613732422\C,-0.8601465375,3.4370563544,
 -1.237032111\C,-0.412707986,-1.1970005888,-0.4190280233\C,-1.514432518
 6,-1.3513395953,0.4370486982\C,-2.2676250993,-2.530145083,0.4106585161

 Normal termination of Gaussian 09 at Tue Mar 30 06:07:30 2021.

 --------------------------------------------------------------------
 #P Geom=AllCheck Guess=TCheck SCRF=Check GenChk RB97D3/def2TZVP Freq
 --------------------------------------------------------------------

 Structure from the checkpoint file:  "cp.chk"
 -----
 Title
 -----
 Charge =  0 Multiplicity = 1

 SCF Done:  E(RB97D3) =  -1162.54845782     A.U. after    1 cycles

  Exact polarizability: 392.682   3.600 436.632 -27.133  -2.890 258.272
 Approx polarizability: 501.570   6.704 557.102 -54.246  -5.524 354.912

                      1                      2                      3
                      A                      A                      A
 Frequencies --     39.9270                48.8533                65.1925
 Red. masses --      5.6718                 4.6268                 5.7599
 Frc consts  --      0.0053                 0.0065                 0.0144
 IR Inten    --      1.3026                 4.8318                 2.5055

                      4                      5                      6
                      A                      A                      A
 Frequencies --     79.2269               138.4894               152.7100
 Red. masses --      4.7444                 4.2362                 4.3869
 Frc consts  --      0.0175                 0.0479                 0.0603
 IR Inten    --      0.6831                 1.9872                 1.8966

                      7                      8                      9
                      A                      A                      A
 Frequencies --    170.9522               220.5184               249.5113
 Red. masses --      5.6758                 6.1309                 5.2806
 Frc consts  --      0.0977                 0.1757                 0.1937
 IR Inten    --      1.0158                 4.7968                 2.0637

                     10                     11                     12
                      A                      A                      A
 Frequencies --    314.4331               319.0522               348.4623
 Red. masses --      5.4438                 5.6543                 6.5399
 Frc consts  --      0.3171                 0.3391                 0.4679
 IR Inten    --      5.2219                 5.5929                 4.1786

                     13                     14                     15
                      A                      A                      A
 Frequencies --    385.5409               388.6469               407.6094
 Red. masses --      9.3820                 5.0489                 3.6207
 Frc consts  --      0.8216                 0.4493                 0.3544
 IR Inten    --      3.4191                 2.6202                 6.9599

                     16                     17                     18
                      A                      A                      A
 Frequencies --    441.1415               443.6308               461.4106
 Red. masses --      6.0955                 4.4346                 3.7300
 Frc consts  --      0.6989                 0.5142                 0.4679
 IR Inten    --      1.4016                 1.3412                32.5802

                     19                     20                     21
                      A                      A                      A
 Frequencies --    498.7095               526.2345               527.3367
 Red. masses --      3.0033                 4.5581                 4.9451
 Frc consts  --      0.4401                 0.7437                 0.8102
 IR Inten    --      5.0601                 1.9916                 1.6250

                     22                     23                     24
                      A                      A                      A
 Frequencies --    560.3656               618.9993               632.3768
 Red. masses --      4.6305                 6.8293                 6.7682
 Frc consts  --      0.8567                 1.5417                 1.5947
 IR Inten    --      7.1748                17.1065                 9.4933

                     25                     26                     27
                      A                      A                      A
 Frequencies --    641.8988               683.9158               693.6519
 Red. masses --      5.8814                 6.5459                 6.3488
 Frc consts  --      1.4278                 1.8039                 1.7998
 IR Inten    --     28.4894                 4.6051                10.6911

                     28                     29                     30
                      A                      A                      A
 Frequencies --    727.7996               731.0950               735.0044
 Red. masses --      2.5993                 1.8438                 2.1752
 Frc consts  --      0.8112                 0.5806                 0.6924
 IR Inten    --     14.9098                75.7877                36.8521

                     31                     32                     33
                      A                      A                      A
 Frequencies --    742.7975               747.3804               753.3186
 Red. masses --      1.5556                 3.1819                 2.1112
 Frc consts  --      0.5057                 1.0472                 0.7059
 IR Inten    --     30.2564                82.5842                27.6612

                     34                     35                     36
                      A                      A                      A
 Frequencies --    764.5090               847.4443               851.5929
 Red. masses --      2.8943                 1.4114                 1.3854
 Frc consts  --      0.9967                 0.5972                 0.5920
 IR Inten    --     80.5621                 2.5650                 4.8073

                     37                     38                     39
                      A                      A                      A
 Frequencies --    855.5869               917.0348               923.1783
 Red. masses --      1.3776                 4.3411                 1.5167
 Frc consts  --      0.5942                 2.1509                 0.7616
 IR Inten    --      1.1041                 0.1671                 3.0712

                     40                     41                     42
                      A                      A                      A
 Frequencies --    934.7352               945.0907               947.1228
 Red. masses --      1.6419                 1.4069                 3.5212
 Frc consts  --      0.8452                 0.7404                 1.8610
 IR Inten    --      1.0487                 0.7862                 2.7815

                     43                     44                     45
                      A                      A                      A
 Frequencies --    955.8959               960.7110               976.5369
 Red. masses --      1.2764                 1.2921                 1.4429
 Frc consts  --      0.6871                 0.7026                 0.8107
 IR Inten    --      0.0735                 0.1817                 8.3305

                     46                     47                     48
                      A                      A                      A
 Frequencies --    979.9446              1032.2105              1033.5980
 Red. masses --      4.3997                 3.1520                 2.5713
 Frc consts  --      2.4893                 1.9787                 1.6185
 IR Inten    --     27.6698                47.3209                10.7145

                     49                     50                     51
                      A                      A                      A
 Frequencies --   1051.3302              1054.7107              1072.7590
 Red. masses --      2.3425                 2.8571                 3.8128
 Frc consts  --      1.5255                 1.8726                 2.5852
 IR Inten    --      7.6938                 7.5423                26.0219

                     52                     53                     54
                      A                      A                      A
 Frequencies --   1102.6248              1117.4663              1125.8750
 Red. masses --      1.4834                 1.6566                 1.5680
 Frc consts  --      1.0626                 1.2188                 1.1711
 IR Inten    --      2.4194                30.9178                 6.7292

                     55                     56                     57
                      A                      A                      A
 Frequencies --   1153.4732              1153.9605              1158.9490
 Red. masses --      1.0799                 1.0785                 1.1250
 Frc consts  --      0.8465                 0.8462                 0.8903
 IR Inten    --      0.1223                 0.1016                25.2820

                     58                     59                     60
                      A                      A                      A
 Frequencies --   1200.6307              1226.0899              1260.1853
 Red. masses --      3.0006                 2.1067                 1.7566
 Frc consts  --      2.5484                 1.8659                 1.6436
 IR Inten    --     12.2887                74.1013               261.9632

                     61                     62                     63
                      A                      A                      A
 Frequencies --   1268.1324              1301.0654              1304.6245
 Red. masses --      1.8262                 6.4829                 3.8971
 Frc consts  --      1.7303                 6.4657                 3.9081
 IR Inten    --     37.4686                21.7733               512.2456

                     64                     65                     66
                      A                      A                      A
 Frequencies --   1315.5168              1325.0387              1329.7952
 Red. masses --      3.0901                 3.2205                 8.4823
 Frc consts  --      3.1508                 3.3314                 8.8376
 IR Inten    --     47.6720                15.7802                63.4618

                     67                     68                     69
                      A                      A                      A
 Frequencies --   1422.8440              1436.6497              1444.6629
 Red. masses --      2.1487                 2.1598                 2.3170
 Frc consts  --      2.5629                 2.6264                 2.8491
 IR Inten    --    350.8052                85.4369                13.9974

                     70                     71                     72
                      A                      A                      A
 Frequencies --   1454.1902              1465.3876              1475.4517
 Red. masses --      2.4987                 2.2808                 2.5634
 Frc consts  --      3.1132                 2.8856                 3.2878
 IR Inten    --    246.7845               250.0453                41.6032

                     73                     74                     75
                      A                      A                      A
 Frequencies --   1556.9967              1566.1165              1573.6510
 Red. masses --      5.5345                 6.0348                 5.7660
 Frc consts  --      7.9051                 8.7209                 8.4128
 IR Inten    --     71.2518                 8.9378                 0.1454

                     76                     77                     78
                      A                      A                      A
 Frequencies --   1575.2584              1580.2298              1596.5264
 Red. masses --      6.6505                 5.3457                 5.9399
 Frc consts  --      9.7231                 7.8649                 8.9203
 IR Inten    --     29.5925               243.8941               111.0749

                     79                     80                     81
                      A                      A                      A
 Frequencies --   3093.2530              3127.3170              3128.3322
 Red. masses --      1.0894                 1.0859                 1.0859
 Frc consts  --      6.1415                 6.2571                 6.2612
 IR Inten    --     54.8226                 0.3018                 0.3170

                     82                     83                     84
                      A                      A                      A
 Frequencies --   3130.5302              3136.0891              3136.3271
 Red. masses --      1.0888                 1.0903                 1.0893
 Frc consts  --      6.2870                 6.3178                 6.3133
 IR Inten    --     14.5109                12.6779                 9.9487

                     85                     86                     87
                      A                      A                      A
 Frequencies --   3145.4369              3147.5213              3153.7358
 Red. masses --      1.0932                 1.0957                 1.0970
 Frc consts  --      6.3723                 6.3955                 6.4284
 IR Inten    --     30.0821                35.5224                15.5389

                     88                     89                     90
                      A                      A                      A
 Frequencies --   3154.6617              3167.4910              3175.4805
 Red. masses --      1.0951                 1.0935                 1.0922
 Frc consts  --      6.4210                 6.4639                 6.4889
 IR Inten    --     24.8508                 7.4448                 5.5536

 - Thermochemistry -
 -------------------
 Temperature   298.150 Kelvin.  Pressure   1.00000 Atm.
 Atom     1 has atomic number  6 and mass  12.00000

 Molecular mass:   276.07212 amu.
 Principal axes and moments of inertia in atomic units:
                           1         2         3
     Eigenvalues --  4740.255645192.154428432.16245
           X            0.99795  -0.06189  -0.01618
           Y            0.06183   0.99808  -0.00398
           Z            0.01639   0.00297   0.99986
 This molecule is an asymmetric top.
 Rotational symmetry number  1.
 Warning -- assumption of classical behavior for rotation
           may cause significant error
 Rotational temperatures (Kelvin)      0.01827     0.01668     0.01027
 Rotational constants (GHZ):           0.38073     0.34759     0.21403
 Zero-point vibrational energy     632751.3 (Joules/Mol)
                                  151.23118 (Kcal/Mol)
 Warning -- explicit consideration of  23 degrees of freedom as
           vibrations may cause significant error
 Vibrational temperatures:     57.45    70.29    93.80   113.99   199.26
          (Kelvin)            219.72   245.96   317.28   358.99   452.40
                              459.04   501.36   554.71   559.18   586.46
                              634.70   638.29   663.87   717.53   757.13
                              758.72   806.24   890.60   909.85   923.55
                              984.00   998.01  1047.14  1051.88  1057.51
                             1068.72  1075.31  1083.86  1099.96  1219.28
                             1225.25  1231.00  1319.41  1328.25  1344.87
                             1359.77  1362.70  1375.32  1382.25  1405.02
                             1409.92  1485.12  1487.12  1512.63  1517.49
                             1543.46  1586.43  1607.78  1619.88  1659.59
                             1660.29  1667.47  1727.44  1764.07  1813.12
                             1824.56  1871.94  1877.06  1892.73  1906.43
                             1913.28  2047.15  2067.02  2078.55  2092.25
                             2108.36  2122.84  2240.17  2253.29  2264.13
                             2266.44  2273.60  2297.04  4450.50  4499.51
                             4500.97  4504.13  4512.13  4512.47  4525.58
                             4528.58  4537.52  4538.85  4557.31  4568.80

 Zero-point correction=                           0.241002 (Hartree/Particle)
 Thermal correction to Energy=                    0.256147
 Thermal correction to Enthalpy=                  0.257091
 Thermal correction to Gibbs Free Energy=         0.198070
 Sum of electronic and zero-point Energies=          -1162.307456
 Sum of electronic and thermal Energies=             -1162.292311
 Sum of electronic and thermal Enthalpies=           -1162.291367
 Sum of electronic and thermal Free Energies=        -1162.350387

                     E (Thermal)             CV                S
                      KCal/Mol        Cal/Mol-Kelvin    Cal/Mol-Kelvin
 Total                  160.735             62.220            124.220
 Electronic               0.000              0.000              0.000
 Translational            0.889              2.981             42.745
 Rotational               0.889              2.981             33.695
 Vibrational            158.957             56.259             47.780
 Vibration     1          0.594              1.981              5.263
 Vibration     2          0.595              1.978              4.863
 Vibration     3          0.597              1.971              4.294
 Vibration     4          0.600              1.963              3.910
 Vibration     5          0.614              1.915              2.825
 Vibration     6          0.619              1.900              2.638
 Vibration     7          0.626              1.878              2.425
 Vibration     8          0.647              1.810              1.955
 Vibration     9          0.662              1.764              1.734
 Vibration    10          0.702              1.646              1.339
 Vibration    11          0.705              1.637              1.315
 Vibration    12          0.726              1.578              1.173
 Vibration    13          0.754              1.501              1.017
 Vibration    14          0.757              1.494              1.005
 Vibration    15          0.772              1.454              0.935
 Vibration    16          0.801              1.380              0.823
 Vibration    17          0.803              1.375              0.815
 Vibration    18          0.819              1.336              0.762
 Vibration    19          0.854              1.253              0.661
 Vibration    20          0.881              1.192              0.596
 Vibration    21          0.882              1.189              0.593
 Vibration    22          0.916              1.117              0.523
 Vibration    23          0.979              0.992              0.418

 Optimization completed.
    -- Stationary point found.

 1\1\GINC-CN015\Freq\RB97D3\def2TZVP\C17H12N2S1\PNG4RJV\30-Mar-2021\0\\
 #P Geom=AllCheck Guess=TCheck SCRF=Check GenChk RB97D3/def2TZVP Freq\\
 Title\\0,1\C,-1.9411501752,3.562552937,-0.3593968125\C,-2.2856888488,2
 .5046076943,0.4799822586\C,-1.5183085119,1.3343874537,0.4704921512\C,-
 0.4112874469,1.2182821321,-0.3852467833\C,-0.1070963001,2.2639511967,-
 1.2613732422\C,-0.8601465375,3.4370563544,-1.237032111\C,-0.412707986,
 -1.1970005888,-0.4190280233\C,-1.5144325186,-1.3513395953,0.4370486982
 \C,-2.2676250993,-2.530145083,0.4106585161\H,-3.124852359,-2.637803346

 Normal termination of Gaussian 09 at Tue Mar 30 07:23:17 2021.
 Gaussian 09:  ES64L-G09RevE.01 30-Nov-2015

 ----------------------------------------------------------------------
 #p B97D3 chkbasis geom=allcheck Guess=Read int=ultrafine scrf=(SMD,sol
 vent=n,n-DiMethylAcetamide) td=(NStates=30)
 ----------------------------------------------------------------------

 Structure from the checkpoint file:  "cp.chk"
 -----
 Title
 -----
 Charge =  0 Multiplicity = 1

                         Standard orientation:
 ---------------------------------------------------------------------
 Center     Atomic      Atomic             Coordinates (Angstroms)
 Number     Number       Type             X           Y           Z
 ---------------------------------------------------------------------
      1          6           0        1.805276    3.637937    0.339411
      2          6           0        2.177540    2.597786   -0.510305
      3          6           0        1.461372    1.395693   -0.489024
      4          6           0        0.378136    1.230118    0.388729
      5          6           0        0.047453    2.259647    1.274321
      6          6           0        0.748880    3.464043    1.238494
      7          6           0        0.483755   -1.182953    0.414510
      8          6           0        1.573283   -1.287799   -0.464364
      9          6           0        2.376684   -2.433257   -0.457229
     10          1           0        3.224027   -2.502434   -1.134333
     11          6           0        2.086056   -3.475814    0.421523
     12          6           0        1.023352   -3.359141    1.322411
     13          6           0        0.236219   -2.208639    1.331130
     14          1           0        3.021227    2.711217   -1.186062
     15          1           0       -0.768051    2.114736    1.973945
     16          1           0        0.473589    4.265444    1.918984
     17          1           0        2.705036   -4.369086    0.417612
     18          1           0        0.812567   -4.159916    2.026023
     19          6           0       -1.688143   -0.076903    0.039799
     20          6           0       -2.309197   -1.306725   -0.274069
     21          6           0       -3.656980   -1.301876   -0.598256
     22          6           0       -3.661543    1.062841   -0.311688
     23          6           0       -4.367130   -0.095954   -0.613350
     24          1           0       -4.150627   -2.238086   -0.847900
     25          1           0       -4.158458    2.033114   -0.325719
     26          1           0       -1.748372   -2.232895   -0.281093
     27          1           0       -5.423829   -0.057394   -0.859342
     28          1           0        2.355697    4.574807    0.314881
     29          7           0       -0.327609   -0.011540    0.370769
     30          1           0       -0.587458   -2.105269    2.031411
     31         16           0        1.922634    0.059432   -1.563023
     32          7           0       -2.359187    1.083086    0.007472
 ---------------------------------------------------------------------

 SCF Done:  E(RB97D3) =  -1162.54846190     A.U. after    6 cycles

 Excitation energies and oscillator strengths:

 Excited State   1:      Singlet-A      3.4543 eV  358.93 nm  f=0.0078  <S**2>=0.000
      71 -> 73         0.11762
      72 -> 73         0.63083
      72 -> 74        -0.26786
 This state for optimization and/or second-order correction.
 Total Energy, E(TD-HF/TD-KS) =  -1162.42151881
 Copying the excited state density for this state as the 1-particle RhoCI density.

 Excited State   2:      Singlet-A      3.5099 eV  353.24 nm  f=0.0951  <S**2>=0.000
      72 -> 73         0.24799
      72 -> 74         0.61887
      72 -> 75         0.11667
      72 -> 76         0.16136

 Excited State   3:      Singlet-A      3.5666 eV  347.62 nm  f=0.0052  <S**2>=0.000
      72 -> 75         0.68288
      72 -> 76        -0.12909

 Excited State   4:      Singlet-A      3.7717 eV  328.72 nm  f=0.1111  <S**2>=0.000
      71 -> 73         0.11950
      72 -> 73        -0.10102
      72 -> 74        -0.15751
      72 -> 76         0.63935

 Excited State   5:      Singlet-A      3.8992 eV  317.97 nm  f=0.0183  <S**2>=0.000
      71 -> 73         0.35572
      72 -> 77         0.59410

 Excited State   6:      Singlet-A      4.0415 eV  306.78 nm  f=0.0128  <S**2>=0.000
      71 -> 73         0.55631
      71 -> 75         0.13200
      72 -> 73        -0.11414
      72 -> 76        -0.12895
      72 -> 77        -0.32493

 Excited State   7:      Singlet-A      4.0622 eV  305.21 nm  f=0.0083  <S**2>=0.000
      71 -> 74         0.67285
      72 -> 78        -0.13749

 Excited State   8:      Singlet-A      4.2690 eV  290.43 nm  f=0.1723  <S**2>=0.000
      70 -> 74        -0.11338
      71 -> 75         0.65445
      72 -> 77         0.11097

 Excited State   9:      Singlet-A      4.3783 eV  283.18 nm  f=0.0256  <S**2>=0.000
      70 -> 75         0.11315
      71 -> 76         0.56226
      71 -> 78         0.14751
      72 -> 78         0.31210

 Excited State  10:      Singlet-A      4.4272 eV  280.05 nm  f=0.0002  <S**2>=0.000
      70 -> 73        -0.47173
      70 -> 74         0.47692
      71 -> 77         0.15525

 Excited State  11:      Singlet-A      4.4741 eV  277.12 nm  f=0.0357  <S**2>=0.000
      69 -> 74        -0.11790
      70 -> 73         0.46685
      70 -> 74         0.33375
      71 -> 76        -0.13409
      71 -> 77         0.29537
      72 -> 78         0.13915

 Excited State  12:      Singlet-A      4.5258 eV  273.95 nm  f=0.0291  <S**2>=0.000
      67 -> 74         0.10651
      70 -> 74        -0.22051
      70 -> 75         0.17801
      70 -> 76         0.21124
      71 -> 76         0.13289
      71 -> 77         0.53425
      72 -> 78        -0.17044

 Excited State  13:      Singlet-A      4.5538 eV  272.27 nm  f=0.1067  <S**2>=0.000
      69 -> 75         0.13736
      70 -> 73        -0.11723
      70 -> 74        -0.25375
      71 -> 76        -0.27438
      71 -> 77         0.10035
      71 -> 78         0.22924
      72 -> 78         0.46355

 Excited State  14:      Singlet-A      4.5967 eV  269.73 nm  f=0.0155  <S**2>=0.000
      70 -> 75         0.63969
      71 -> 76        -0.11321
      71 -> 77        -0.14844

 Excited State  15:      Singlet-A      4.6996 eV  263.82 nm  f=0.0058  <S**2>=0.000
      70 -> 76         0.36078
      72 -> 79         0.58214

 Excited State  16:      Singlet-A      4.7209 eV  262.63 nm  f=0.0113  <S**2>=0.000
      69 -> 73         0.22473
      70 -> 76         0.49626
      71 -> 77        -0.12121
      72 -> 79        -0.38201

 Excited State  17:      Singlet-A      4.8179 eV  257.34 nm  f=0.0281  <S**2>=0.000
      69 -> 73         0.63082
      70 -> 76        -0.17144
      70 -> 77         0.11383

 Excited State  18:      Singlet-A      4.9270 eV  251.64 nm  f=0.0028  <S**2>=0.000
      67 -> 73         0.26722
      68 -> 73         0.15673
      68 -> 74         0.12607
      70 -> 77         0.59510

 Excited State  19:      Singlet-A      4.9515 eV  250.40 nm  f=0.0962  <S**2>=0.000
      67 -> 74         0.13282
      68 -> 74        -0.27449
      71 -> 78         0.55717
      72 -> 78        -0.20730

 Excited State  20:      Singlet-A      4.9835 eV  248.79 nm  f=0.0422  <S**2>=0.000
      67 -> 73        -0.15929
      67 -> 75         0.14258
      68 -> 73        -0.21366
      68 -> 74         0.12999
      68 -> 75        -0.13640
      68 -> 76         0.11280
      69 -> 74         0.55608

 Excited State  21:      Singlet-A      5.0374 eV  246.13 nm  f=0.0148  <S**2>=0.000
      67 -> 73         0.49180
      67 -> 75         0.16517
      68 -> 73         0.21537
      68 -> 74        -0.17246
      68 -> 75        -0.15356
      69 -> 74         0.20047
      70 -> 77        -0.21334
      70 -> 78        -0.11815

 Excited State  22:      Singlet-A      5.1116 eV  242.55 nm  f=0.0128  <S**2>=0.000
      67 -> 73        -0.26304
      67 -> 74        -0.30179
      67 -> 76         0.13710
      68 -> 73         0.36338
      68 -> 74        -0.31726
      68 -> 75        -0.13923
      68 -> 77        -0.10937
      69 -> 76         0.12606

 Excited State  23:      Singlet-A      5.1342 eV  241.49 nm  f=0.0250  <S**2>=0.000
      67 -> 74        -0.17105
      67 -> 75         0.15391
      68 -> 73        -0.18929
      68 -> 74        -0.22743
      68 -> 75         0.36920
      68 -> 76         0.16423
      69 -> 75         0.29198
      69 -> 76         0.23422
      71 -> 78        -0.12004

 Excited State  24:      Singlet-A      5.2135 eV  237.81 nm  f=0.0047  <S**2>=0.000
      67 -> 74         0.10800
      67 -> 75        -0.24534
      67 -> 76         0.36052
      68 -> 73        -0.11333
      68 -> 76        -0.17282
      69 -> 75        -0.17637
      69 -> 76         0.37028
      69 -> 77        -0.18589
      71 -> 79         0.12516

 Excited State  25:      Singlet-A      5.2303 eV  237.05 nm  f=0.0151  <S**2>=0.000
      67 -> 73         0.11837
      67 -> 74        -0.16141
      68 -> 73        -0.16130
      68 -> 75        -0.26270
      70 -> 78         0.56860

 Excited State  26:      Singlet-A      5.2650 eV  235.49 nm  f=0.0312  <S**2>=0.000
      67 -> 74        -0.10358
      67 -> 76         0.11301
      67 -> 77         0.13527
      68 -> 73         0.22561
      68 -> 74         0.31398
      68 -> 75         0.16733
      68 -> 77         0.20840
      69 -> 76         0.13134
      69 -> 77         0.29998
      70 -> 77        -0.15297
      70 -> 78         0.15746
      71 -> 78         0.13143
      71 -> 79         0.12113

 Excited State  27:      Singlet-A      5.2845 eV  234.62 nm  f=0.0006  <S**2>=0.000
      67 -> 76        -0.27395
      68 -> 75        -0.15707
      69 -> 75         0.10011
      70 -> 78        -0.13887
      71 -> 79         0.59201

 Excited State  28:      Singlet-A      5.3215 eV  232.99 nm  f=0.0073  <S**2>=0.000
      67 -> 74        -0.23097
      67 -> 75        -0.20097
      67 -> 76        -0.10813
      67 -> 77         0.25633
      68 -> 74         0.11298
      68 -> 75        -0.22378
      68 -> 76         0.25697
      69 -> 76         0.14297
      69 -> 77        -0.11126
      70 -> 78        -0.22640
      71 -> 79        -0.25003

 Excited State  29:      Singlet-A      5.3744 eV  230.69 nm  f=0.0695  <S**2>=0.000
      66 -> 74        -0.17845
      67 -> 74        -0.21742
      67 -> 77         0.14881
      68 -> 73        -0.16933
      68 -> 76        -0.24908
      68 -> 77        -0.23424
      69 -> 75        -0.18098
      69 -> 77         0.35496
      70 -> 78        -0.17202

 Excited State  30:      Singlet-A      5.3870 eV  230.16 nm  f=0.0130  <S**2>=0.000
      65 -> 75         0.13414
      67 -> 74         0.11696
      67 -> 75         0.21022
      67 -> 76        -0.11042
      67 -> 77        -0.22112
      68 -> 75        -0.20532
      68 -> 76        -0.22024
      69 -> 75         0.16682
      69 -> 76         0.30629
      69 -> 77         0.21022
      69 -> 78         0.16940
      71 -> 79        -0.17687

 The electronic state is 1-A.
 Alpha  occ. eigenvalues --  -88.02676 -14.03674 -13.98529  -9.97738  -9.95223
 Alpha  occ. eigenvalues --   -9.95077  -9.94303  -9.94166  -9.93140  -9.91340
 Alpha  occ. eigenvalues --   -9.91232  -9.91039  -9.91018  -9.90754  -9.90749
 Alpha  occ. eigenvalues --   -9.90690  -9.90570  -9.90452  -9.90389  -9.89730
 Alpha  occ. eigenvalues --   -7.72870  -5.76049  -5.75641  -5.75003  -0.91131
 Alpha  occ. eigenvalues --   -0.85281  -0.79173  -0.78713  -0.73644  -0.72814
 Alpha  occ. eigenvalues --   -0.69675  -0.69308  -0.68596  -0.66216  -0.62619
 Alpha  occ. eigenvalues --   -0.58601  -0.58278  -0.55548  -0.54668  -0.54489
 Alpha  occ. eigenvalues --   -0.51245  -0.49052  -0.48751  -0.44692  -0.43873
 Alpha  occ. eigenvalues --   -0.43027  -0.42173  -0.41686  -0.41145  -0.39480
 Alpha  occ. eigenvalues --   -0.39361  -0.38626  -0.37948  -0.37170  -0.35912
 Alpha  occ. eigenvalues --   -0.35038  -0.34271  -0.33486  -0.33265  -0.32264
 Alpha  occ. eigenvalues --   -0.31611  -0.30857  -0.30258  -0.28461  -0.26882
 Alpha  occ. eigenvalues --   -0.25518  -0.23928  -0.23898  -0.23180  -0.21575
 Alpha  occ. eigenvalues --   -0.19901  -0.17784
 Alpha virt. eigenvalues --   -0.05673  -0.05385  -0.04921  -0.04531  -0.03670
 Alpha virt. eigenvalues --   -0.02365  -0.00630   0.02882   0.04752   0.05799
 Alpha virt. eigenvalues --    0.06006   0.06623   0.07350   0.07664   0.08352

 Mulliken charges:
               1
     1  C   -0.157339
     2  C   -0.154873
     3  C   -0.022536
     4  C    0.254523
     5  C   -0.325782
     6  C   -0.074215
     7  C    0.203237
     8  C   -0.015058
     9  C   -0.160142
    10  H    0.134072
    11  C   -0.148947
    12  C   -0.079995
    13  C   -0.297455
    14  H    0.133257
    15  H    0.114112
    16  H    0.136373
    17  H    0.137992
    18  H    0.137479
    19  C    0.249466
    20  C   -0.230516
    21  C   -0.128317
    22  C   -0.076669
    23  C   -0.155519
    24  H    0.143367
    25  H    0.131801
    26  H    0.155403
    27  H    0.140590
    28  H    0.136332
    29  N    0.094683
    30  H    0.134917
    31  S   -0.081845
    32  N   -0.328397
 Sum of Mulliken charges =  -0.00000

 Dipole moment (field-independent basis, Debye):
    X=             -0.3076    Y=             -2.5337    Z=              1.2955  Tot=              2.8623
 Quadrupole moment (field-independent basis, Debye-Ang):
   XX=           -109.4226   YY=           -103.6233   ZZ=           -122.1443
   XY=              3.1816   XZ=             -1.5039   YZ=              0.0800

 Normal termination of Gaussian 09 at Tue Mar 30 08:21:00 2021.
