 Gaussian 09, Revision E.01,

 ----------------------------------------------------------------------
 #p m062x/def2TZVP opt freq=noraman nosymm int=ultrafine scrf=(SMD,solv
 ent=n,n-DiMethylAcetamide)
 ----------------------------------------------------------------------

 -----
 Title
 -----
 Symbolic Z-matrix:
 Charge =  0 Multiplicity = 1

 SCF Done:  E(RM062X) =  -1162.71420142     A.U. after   14 cycles
 SCF Done:  E(RM062X) =  -1162.71668929     A.U. after   11 cycles
 SCF Done:  E(RM062X) =  -1162.71681430     A.U. after   10 cycles
 SCF Done:  E(RM062X) =  -1162.71702115     A.U. after   11 cycles
 SCF Done:  E(RM062X) =  -1162.71709382     A.U. after   11 cycles
 SCF Done:  E(RM062X) =  -1162.71711351     A.U. after   10 cycles
 SCF Done:  E(RM062X) =  -1162.71711662     A.U. after    8 cycles
 SCF Done:  E(RM062X) =  -1162.71711924     A.U. after    9 cycles
 SCF Done:  E(RM062X) =  -1162.71712020     A.U. after    8 cycles
 SCF Done:  E(RM062X) =  -1162.71712058     A.U. after    8 cycles
 SCF Done:  E(RM062X) =  -1162.71712067     A.U. after    7 cycles
 Optimization completed.
    -- Stationary point found.

 1\1\GINC-CN065\FOpt\RM062X\def2TZVP\C17H12N2S1\PNG4RJV\23-Feb-2021\0\\
 #p m062x/def2TZVP opt freq=noraman nosymm int=ultrafine scrf=(SMD,solv
 ent=n,n-DiMethylAcetamide)\\Title\\0,1\C,-1.9414475766,3.5367720458,-0
 .3664440245\C,-2.2871920915,2.4841048374,0.4658930098\C,-1.5169534555,
 1.3254681854,0.468193204\C,-0.4076178558,1.2127838959,-0.3684675772\C,
 -0.0969238443,2.2548403001,-1.235999104\C,-0.8527133378,3.4168019299,-
 1.2233197943\C,-0.4105397126,-1.1949273245,-0.4018475155\C,-1.51604329
 65,-1.342678878,0.4338017366\C,-2.275055643,-2.5076665136,0.3945394972

 Normal termination of Gaussian 09 at Tue Feb 23 18:27:58 2021.

 --------------------------------------------------------------------
 #P Geom=AllCheck Guess=TCheck SCRF=Check GenChk RM062X/def2TZVP Freq
 --------------------------------------------------------------------

 Structure from the checkpoint file:  "cp.chk"
 -----
 Title
 -----
 Charge =  0 Multiplicity = 1

 SCF Done:  E(RM062X) =  -1162.71712067     A.U. after    1 cycles

  Exact polarizability: 358.479   4.195 398.876 -27.336  -2.561 245.803
 Approx polarizability: 304.374   3.549 334.291 -29.250  -2.894 235.093

                      1                      2                      3
                      A                      A                      A
 Frequencies --     35.2876                51.2264                69.5779
 Red. masses --      5.8024                 4.5499                 5.8414
 Frc consts  --      0.0043                 0.0070                 0.0167
 IR Inten    --      1.6844                 4.7550                 2.6949

                      4                      5                      6
                      A                      A                      A
 Frequencies --     84.1789               146.1596               160.3461
 Red. masses --      4.7248                 4.2143                 4.3624
 Frc consts  --      0.0197                 0.0530                 0.0661
 IR Inten    --      0.7594                 1.6395                 1.6114

                      7                      8                      9
                      A                      A                      A
 Frequencies --    180.5731               227.4160               260.4257
 Red. masses --      5.6487                 6.1036                 5.2158
 Frc consts  --      0.1085                 0.1860                 0.2084
 IR Inten    --      1.0018                 3.3406                 1.1463

                     10                     11                     12
                      A                      A                      A
 Frequencies --    323.5909               326.8760               356.8621
 Red. masses --      5.5805                 5.5027                 6.4859
 Frc consts  --      0.3443                 0.3464                 0.4867
 IR Inten    --      6.1951                 5.1888                 4.7602

                     13                     14                     15
                      A                      A                      A
 Frequencies --    394.7564               398.9328               423.1938
 Red. masses --      9.2420                 5.1649                 3.5907
 Frc consts  --      0.8485                 0.4843                 0.3789
 IR Inten    --      3.8658                 2.8436                 7.2547

                     16                     17                     18
                      A                      A                      A
 Frequencies --    454.9040               458.0027               476.9920
 Red. masses --     10.5486                 3.2782                 3.7114
 Frc consts  --      1.2861                 0.4051                 0.4975
 IR Inten    --      1.3267                 0.3864                35.4207

                     19                     20                     21
                      A                      A                      A
 Frequencies --    520.3330               542.7427               545.5008
 Red. masses --      3.0708                 5.2296                 4.0262
 Frc consts  --      0.4899                 0.9076                 0.7059
 IR Inten    --      2.9802                 4.1279                 1.3219

                     22                     23                     24
                      A                      A                      A
 Frequencies --    577.5625               628.5633               643.1419
 Red. masses --      4.3308                 6.7451                 6.6620
 Frc consts  --      0.8512                 1.5701                 1.6236
 IR Inten    --      5.5280                16.3448                 8.9271

                     25                     26                     27
                      A                      A                      A
 Frequencies --    654.9250               699.6312               716.4703
 Red. masses --      5.7198                 6.4988                 6.3560
 Frc consts  --      1.4455                 1.8742                 1.9224
 IR Inten    --     30.0814                 4.2768                 6.9785

                     28                     29                     30
                      A                      A                      A
 Frequencies --    759.1852               761.9936               767.9781
 Red. masses --      4.1501                 2.8248                 1.8675
 Frc consts  --      1.4093                 0.9664                 0.6489
 IR Inten    --     10.6101                 7.0215                39.9142

                     31                     32                     33
                      A                      A                      A
 Frequencies --    776.3252               783.2887               792.7539
 Red. masses --      2.3878                 1.4287                 1.7414
 Frc consts  --      0.8479                 0.5164                 0.6448
 IR Inten    --     96.9184                31.5171                63.0716

                     34                     35                     36
                      A                      A                      A
 Frequencies --    803.7432               897.3367               899.3096
 Red. masses --      2.4145                 1.4521                 1.3744
 Frc consts  --      0.9190                 0.6889                 0.6549
 IR Inten    --    121.2161                 2.6718                 4.5730

                     37                     38                     39
                      A                      A                      A
 Frequencies --    904.2568               942.7028               967.8330
 Red. masses --      1.4305                 5.7712                 4.0219
 Frc consts  --      0.6892                 3.0218                 2.2196
 IR Inten    --      0.8037                 1.3328                 2.1347

                     40                     41                     42
                      A                      A                      A
 Frequencies --    988.8093               995.6800              1007.4622
 Red. masses --      1.4864                 1.4674                 6.3202
 Frc consts  --      0.8563                 0.8571                 3.7795
 IR Inten    --      1.9405                 3.9176                25.6082

                     43                     44                     45
                      A                      A                      A
 Frequencies --   1012.3718              1027.4204              1031.5879
 Red. masses --      1.4117                 1.3298                 1.3306
 Frc consts  --      0.8525                 0.8270                 0.8342
 IR Inten    --      0.9467                 0.0061                 0.0380

                     46                     47                     48
                      A                      A                      A
 Frequencies --   1040.1599              1064.8009              1066.0574
 Red. masses --      1.3332                 2.7337                 2.3493
 Frc consts  --      0.8498                 1.8261                 1.5731
 IR Inten    --      0.2836                30.5882                 8.2431

                     49                     50                     51
                      A                      A                      A
 Frequencies --   1086.1036              1088.0185              1104.8750
 Red. masses --      2.3635                 2.7390                 3.0361
 Frc consts  --      1.6427                 1.9103                 2.1837
 IR Inten    --      7.8577                 3.0852                23.8113

                     52                     53                     54
                      A                      A                      A
 Frequencies --   1133.0778              1150.7940              1156.8993
 Red. masses --      1.4218                 1.5540                 1.5210
 Frc consts  --      1.0755                 1.2125                 1.1994
 IR Inten    --      2.0663                22.3841                 4.5653

                     55                     56                     57
                      A                      A                      A
 Frequencies --   1168.9064              1169.9735              1178.9443
 Red. masses --      1.1397                 1.1312                 1.1880
 Frc consts  --      0.9175                 0.9123                 0.9729
 IR Inten    --      1.0024                 0.5614                32.0969

                     58                     59                     60
                      A                      A                      A
 Frequencies --   1235.1439              1265.5780              1289.4075
 Red. masses --      2.8870                 1.7682                 2.8874
 Frc consts  --      2.5950                 1.6686                 2.8284
 IR Inten    --     19.0737                35.2584               108.7065

                     61                     62                     63
                      A                      A                      A
 Frequencies --   1292.3225              1301.5866              1307.2507
 Red. masses --      2.1615                 5.4653                 6.2337
 Frc consts  --      2.1269                 5.4552                 6.2764
 IR Inten    --     48.7494                33.6889                18.8245

                     64                     65                     66
                      A                      A                      A
 Frequencies --   1314.5875              1356.1556              1365.3970
 Red. masses --      2.0594                 2.9404                 2.2918
 Frc consts  --      2.0969                 3.1862                 2.5173
 IR Inten    --     14.1115               537.1883               178.3577

                     67                     68                     69
                      A                      A                      A
 Frequencies --   1468.5504              1481.7168              1488.9233
 Red. masses --      2.3350                 2.3507                 2.5962
 Frc consts  --      2.9670                 3.0407                 3.3911
 IR Inten    --    360.4961               109.0300                44.6420

                     70                     71                     72
                      A                      A                      A
 Frequencies --   1505.7728              1518.0537              1525.6575
 Red. masses --      2.7701                 2.4916                 2.8396
 Frc consts  --      3.7005                 3.3831                 3.8942
 IR Inten    --    279.1543               289.4134                98.1694

                     73                     74                     75
                      A                      A                      A
 Frequencies --   1631.7821              1642.0298              1649.2741
 Red. masses --      6.5042                 6.8075                 7.1924
 Frc consts  --     10.2039                10.8144                11.5269
 IR Inten    --     72.0079                49.3518                21.4985

                     76                     77                     78
                      A                      A                      A
 Frequencies --   1650.6455              1656.0184              1671.4968
 Red. masses --      6.6395                 5.9797                 6.4689
 Frc consts  --     10.6584                 9.6619                10.6486
 IR Inten    --      9.7697               245.0570               134.0140

                     79                     80                     81
                      A                      A                      A
 Frequencies --   3184.8790              3208.4695              3208.5676
 Red. masses --      1.0911                 1.0877                 1.0880
 Frc consts  --      6.5206                 6.5972                 6.5993
 IR Inten    --     27.7908                 0.4416                 0.0320

                     82                     83                     84
                      A                      A                      A
 Frequencies --   3209.8914              3212.9934              3216.2474
 Red. masses --      1.0910                 1.0907                 1.0912
 Frc consts  --      6.6230                 6.6339                 6.6507
 IR Inten    --      6.6259                 1.6554                 3.0617

                     85                     86                     87
                      A                      A                      A
 Frequencies --   3221.6716              3228.6070              3231.9673
 Red. masses --      1.0941                 1.0961                 1.0985
 Frc consts  --      6.6906                 6.7321                 6.7608
 IR Inten    --      4.4084                10.1555                 6.7707

                     88                     89                     90
                      A                      A                      A
 Frequencies --   3239.9445              3240.8490              3259.3646
 Red. masses --      1.0963                 1.0956                 1.0934
 Frc consts  --      6.7807                 6.7801                 6.8438
 IR Inten    --      4.1020                 0.8339                 0.5324

 - Thermochemistry -
 -------------------
 Temperature   298.150 Kelvin.  Pressure   1.00000 Atm.
 Atom     1 has atomic number  6 and mass  12.00000

 Molecular mass:   276.07212 amu.
 Principal axes and moments of inertia in atomic units:
                           1         2         3
     Eigenvalues --  4673.637575165.024098372.75026
           X            0.99801  -0.06140  -0.01423
           Y            0.06134   0.99811  -0.00432
           Z            0.01447   0.00344   0.99989
 This molecule is an asymmetric top.
 Rotational symmetry number  1.
 Warning -- assumption of classical behavior for rotation
           may cause significant error
 Rotational temperatures (Kelvin)      0.01853     0.01677     0.01034
 Rotational constants (GHZ):           0.38615     0.34942     0.21555
 Zero-point vibrational energy     652967.4 (Joules/Mol)
                                  156.06295 (Kcal/Mol)
 Warning -- explicit consideration of  22 degrees of freedom as
           vibrations may cause significant error
 Vibrational temperatures:     50.77    73.70   100.11   121.11   210.29
          (Kelvin)            230.70   259.80   327.20   374.69   465.57
                              470.30   513.44   567.97   573.97   608.88
                              654.50   658.96   686.28   748.64   780.88
                              784.85   830.98   904.36   925.34   942.29
                             1006.61  1030.84  1092.30  1096.34  1104.95
                             1116.96  1126.98  1140.59  1156.41  1291.07
                             1293.90  1301.02  1356.34  1392.49  1422.67
                             1432.56  1449.51  1456.58  1478.23  1484.22
                             1496.56  1532.01  1533.82  1562.66  1565.41
                             1589.67  1630.24  1655.73  1664.52  1681.79
                             1683.33  1696.24  1777.09  1820.88  1855.17
                             1859.36  1872.69  1880.84  1891.40  1951.20
                             1964.50  2112.91  2131.86  2142.23  2166.47
                             2184.14  2195.08  2347.77  2362.51  2372.93
                             2374.91  2382.64  2404.91  4582.32  4616.27
                             4616.41  4618.31  4622.78  4627.46  4635.26
                             4645.24  4650.07  4661.55  4662.85  4689.49

 Zero-point correction=                           0.248702 (Hartree/Particle)
 Thermal correction to Energy=                    0.263346
 Thermal correction to Enthalpy=                  0.264290
 Thermal correction to Gibbs Free Energy=         0.206142
 Sum of electronic and zero-point Energies=          -1162.468419
 Sum of electronic and thermal Energies=             -1162.453775
 Sum of electronic and thermal Enthalpies=           -1162.452830
 Sum of electronic and thermal Free Energies=        -1162.510979

                     E (Thermal)             CV                S
                      KCal/Mol        Cal/Mol-Kelvin    Cal/Mol-Kelvin
 Total                  165.252             59.917            122.383
 Electronic               0.000              0.000              0.000
 Translational            0.889              2.981             42.745
 Rotational               0.889              2.981             33.668
 Vibrational            163.475             53.955             45.970
 Vibration     1          0.594              1.982              5.508
 Vibration     2          0.595              1.977              4.769
 Vibration     3          0.598              1.969              4.165
 Vibration     4          0.601              1.960              3.791
 Vibration     5          0.617              1.907              2.722
 Vibration     6          0.622              1.891              2.546
 Vibration     7          0.630              1.866              2.322
 Vibration     8          0.651              1.799              1.899
 Vibration     9          0.668              1.745              1.659
 Vibration    10          0.708              1.628              1.292
 Vibration    11          0.711              1.622              1.275
 Vibration    12          0.732              1.561              1.136
 Vibration    13          0.762              1.481              0.982
 Vibration    14          0.765              1.472              0.967
 Vibration    15          0.785              1.420              0.881
 Vibration    16          0.813              1.350              0.781
 Vibration    17          0.816              1.343              0.772
 Vibration    18          0.834              1.301              0.718
 Vibration    19          0.875              1.205              0.609
 Vibration    20          0.898              1.156              0.559
 Vibration    21          0.901              1.150              0.554
 Vibration    22          0.934              1.080              0.490

 Optimization completed.
    -- Stationary point found.

 1\1\GINC-CN065\Freq\RM062X\def2TZVP\C17H12N2S1\PNG4RJV\23-Feb-2021\0\\
 #P Geom=AllCheck Guess=TCheck SCRF=Check GenChk RM062X/def2TZVP Freq\\
 Title\\0,1\C,-1.9414475766,3.5367720458,-0.3664440245\C,-2.2871920915,
 2.4841048374,0.4658930098\C,-1.5169534555,1.3254681854,0.468193204\C,-
 0.4076178558,1.2127838959,-0.3684675772\C,-0.0969238443,2.2548403001,-
 1.235999104\C,-0.8527133378,3.4168019299,-1.2233197943\C,-0.4105397126
 ,-1.1949273245,-0.4018475155\C,-1.5160432965,-1.342678878,0.4338017366
 \C,-2.275055643,-2.5076665136,0.3945394972\H,-3.1392299379,-2.60750407

 Normal termination of Gaussian 09 at Tue Feb 23 20:59:54 2021.
 Gaussian 09:  ES64L-G09RevE.01 30-Nov-2015

 ----------------------------------------------------------------------
 #p m062x chkbasis geom=allcheck Guess=Read int=ultrafine scrf=(SMD,sol
 vent=n,n-DiMethylAcetamide) td=(NStates=30)
 ----------------------------------------------------------------------

 Structure from the checkpoint file:  "cp.chk"
 -----
 Title
 -----
 Charge =  0 Multiplicity = 1

                         Standard orientation:
 ---------------------------------------------------------------------
 Center     Atomic      Atomic             Coordinates (Angstroms)
 Number     Number       Type             X           Y           Z
 ---------------------------------------------------------------------
      1          6           0        1.801956    3.614793    0.352854
      2          6           0        2.178295    2.580779   -0.489534
      3          6           0        1.460007    1.389261   -0.481867
      4          6           0        0.372439    1.225324    0.374664
      5          6           0        0.032232    2.250186    1.251557
      6          6           0        0.735663    3.444430    1.229191
      7          6           0        0.482188   -1.179993    0.399223
      8          6           0        1.577435   -1.276408   -0.457174
      9          6           0        2.387698   -2.406837   -0.436135
     10          1           0        3.243315   -2.466583   -1.097394
     11          6           0        2.095149   -3.446537    0.433019
     12          6           0        1.019787   -3.341497    1.308415
     13          6           0        0.226477   -2.204783    1.304122
     14          1           0        3.028367    2.690519   -1.151587
     15          1           0       -0.792979    2.107589    1.935010
     16          1           0        0.454820    4.242450    1.904392
     17          1           0        2.720322   -4.330047    0.440965
     18          1           0        0.804498   -4.142072    2.004175
     19          6           0       -1.687023   -0.079497    0.031515
     20          6           0       -2.308173   -1.304068   -0.274076
     21          6           0       -3.650047   -1.296222   -0.588040
     22          6           0       -3.651403    1.053504   -0.304958
     23          6           0       -4.355999   -0.096368   -0.600434
     24          1           0       -4.144761   -2.228501   -0.831703
     25          1           0       -4.144421    2.020019   -0.314451
     26          1           0       -1.752974   -2.229171   -0.283572
     27          1           0       -5.409278   -0.055711   -0.839423
     28          1           0        2.354551    4.545442    0.339929
     29          7           0       -0.328877   -0.013586    0.353399
     30          1           0       -0.607746   -2.108854    1.988108
     31         16           0        1.920342    0.062909   -1.556783
     32          7           0       -2.353875    1.069583    0.003748
 ---------------------------------------------------------------------

 SCF Done:  E(RM062X) =  -1162.71712803     A.U. after    6 cycles

 Excitation energies and oscillator strengths:

 Excited State   1:      Singlet-A      4.5492 eV  272.54 nm  f=0.2269  <S**2>=0.000
      71 -> 73        -0.16711
      72 -> 73         0.57880
      72 -> 74        -0.22044
      72 -> 75        -0.22002
 This state for optimization and/or second-order correction.
 Total Energy, E(TD-HF/TD-KS) =  -1162.54994873
 Copying the excited state density for this state as the 1-particle RhoCI density.

 Excited State   2:      Singlet-A      4.5700 eV  271.30 nm  f=0.0993  <S**2>=0.000
      71 -> 75        -0.10302
      72 -> 74         0.53562
      72 -> 75        -0.37428
      72 -> 76        -0.12168

 Excited State   3:      Singlet-A      4.6327 eV  267.63 nm  f=0.0078  <S**2>=0.000
      71 -> 73        -0.10670
      72 -> 73         0.28951
      72 -> 74         0.35625
      72 -> 75         0.43684
      72 -> 76         0.14678

 Excited State   4:      Singlet-A      4.8822 eV  253.95 nm  f=0.0819  <S**2>=0.000
      70 -> 76        -0.10144
      71 -> 74        -0.25290
      72 -> 75        -0.17943
      72 -> 76         0.58278

 Excited State   5:      Singlet-A      5.0477 eV  245.62 nm  f=0.0135  <S**2>=0.000
      68 -> 75        -0.10086
      69 -> 74        -0.17453
      70 -> 76        -0.15523
      71 -> 73         0.20754
      71 -> 74         0.11909
      71 -> 75        -0.29361
      71 -> 77         0.10697
      72 -> 75         0.10570
      72 -> 77         0.45389

 Excited State   6:      Singlet-A      5.2241 eV  237.33 nm  f=0.0017  <S**2>=0.000
      67 -> 73         0.47542
      67 -> 76         0.12288
      67 -> 77        -0.18513
      69 -> 73         0.17708
      70 -> 73         0.34850
      70 -> 77        -0.11301

 Excited State   7:      Singlet-A      5.2897 eV  234.39 nm  f=0.2720  <S**2>=0.000
      71 -> 73         0.10508
      71 -> 75         0.35315
      71 -> 79         0.22306
      72 -> 75        -0.11431
      72 -> 76        -0.12847
      72 -> 77         0.36029
      72 -> 79         0.28690

 Excited State   8:      Singlet-A      5.3773 eV  230.57 nm  f=0.1248  <S**2>=0.000
      70 -> 75         0.11651
      71 -> 73        -0.22148
      71 -> 74         0.43006
      71 -> 76         0.24233
      72 -> 73        -0.10618
      72 -> 75        -0.15492
      72 -> 76         0.19336
      72 -> 78        -0.16483
      72 -> 79         0.12231

 Excited State   9:      Singlet-A      5.6297 eV  220.23 nm  f=0.1602  <S**2>=0.000
      71 -> 73         0.22595
      71 -> 74         0.36644
      71 -> 75         0.29830
      71 -> 76        -0.34151
      72 -> 76         0.14844
      72 -> 78         0.16084
      72 -> 79        -0.10816

 Excited State  10:      Singlet-A      5.6805 eV  218.26 nm  f=0.3505  <S**2>=0.000
      69 -> 74        -0.12156
      70 -> 76        -0.11528
      71 -> 75        -0.24044
      71 -> 76        -0.22846
      71 -> 79         0.28271
      72 -> 77        -0.26047
      72 -> 79         0.35950

 Excited State  11:      Singlet-A      5.7713 eV  214.83 nm  f=0.1031  <S**2>=0.000
      70 -> 74         0.10566
      71 -> 73        -0.31589
      71 -> 75        -0.10018
      71 -> 77        -0.14695
      71 -> 78        -0.11572
      72 -> 77         0.11920
      72 -> 78         0.52285

 Excited State  12:      Singlet-A      5.8689 eV  211.26 nm  f=0.0073  <S**2>=0.000
      67 -> 74        -0.15381
      67 -> 76        -0.10947
      67 -> 78        -0.21159
      69 -> 74        -0.12024
      70 -> 74        -0.27272
      70 -> 78        -0.10376
      71 -> 73         0.12851
      71 -> 76         0.31939
      71 -> 77         0.18304
      71 -> 78        -0.12316
      72 -> 78         0.28775

 Excited State  13:      Singlet-A      5.9106 eV  209.77 nm  f=0.0196  <S**2>=0.000
      67 -> 74         0.24444
      67 -> 78         0.26478
      70 -> 74         0.21589
      70 -> 76         0.12190
      70 -> 78         0.18051
      71 -> 73         0.26062
      71 -> 76         0.27205
      72 -> 73         0.11178
      72 -> 77        -0.12764
      72 -> 78         0.15591

 Excited State  14:      Singlet-A      6.0690 eV  204.29 nm  f=0.0148  <S**2>=0.000
      67 -> 74         0.12274
      68 -> 73         0.13773
      69 -> 74        -0.12512
      69 -> 75        -0.12082
      70 -> 73         0.10097
      70 -> 76        -0.17332
      70 -> 78         0.12069
      71 -> 73        -0.22738
      71 -> 75         0.21139
      71 -> 77         0.38103
      72 -> 73        -0.16742
      72 -> 76        -0.13957

 Excited State  15:      Singlet-A      6.2198 eV  199.34 nm  f=0.0666  <S**2>=0.000
      65 -> 74        -0.11609
      68 -> 73        -0.14632
      68 -> 75        -0.20019
      69 -> 74        -0.22186
      69 -> 77        -0.15848
      70 -> 73         0.10046
      70 -> 74         0.22865
      70 -> 75         0.30924
      71 -> 74        -0.20168
      71 -> 75         0.16628
      71 -> 77        -0.10796
      72 -> 74        -0.10169
      72 -> 77        -0.10572

 Excited State  16:      Singlet-A      6.2999 eV  196.80 nm  f=0.1260  <S**2>=0.000
      68 -> 76         0.10732
      69 -> 73        -0.12781
      69 -> 74         0.11182
      69 -> 76         0.10944
      69 -> 77        -0.12555
      70 -> 74        -0.26660
      70 -> 75         0.10850
      70 -> 76         0.34464
      70 -> 77         0.11149
      71 -> 74        -0.12775
      71 -> 76        -0.16608
      71 -> 77         0.23840
      72 -> 77         0.12560

 Excited State  17:      Singlet-A      6.4233 eV  193.02 nm  f=0.1219  <S**2>=0.000
      67 -> 74        -0.14375
      67 -> 78        -0.10498
      69 -> 73         0.15626
      69 -> 74        -0.12627
      69 -> 75         0.15548
      69 -> 76        -0.14221
      70 -> 73        -0.20701
      70 -> 74         0.29236
      70 -> 76         0.24933
      70 -> 78        -0.18433
      71 -> 77         0.29452

 Excited State  18:      Singlet-A      6.5365 eV  189.68 nm  f=0.0381  <S**2>=0.000
      67 -> 73         0.12142
      68 -> 74         0.24371
      69 -> 74         0.12529
      69 -> 75        -0.30384
      69 -> 76        -0.15672
      70 -> 73        -0.20682
      70 -> 75         0.35404
      70 -> 77        -0.24729

 Excited State  19:      Singlet-A      6.6675 eV  185.95 nm  f=0.0603  <S**2>=0.000
      67 -> 74        -0.10475
      68 -> 73        -0.10080
      68 -> 74        -0.18148
      69 -> 73        -0.26719
      69 -> 74         0.32200
      69 -> 78        -0.10448
      70 -> 73         0.14236
      70 -> 74         0.19142
      70 -> 75         0.11610
      70 -> 76        -0.18011
      71 -> 77         0.17872
      71 -> 78         0.16400

 Excited State  20:      Singlet-A      6.6995 eV  185.06 nm  f=0.0151  <S**2>=0.000
      66 -> 73         0.14480
      68 -> 78        -0.12549
      69 -> 74        -0.15571
      70 -> 75         0.15163
      71 -> 77        -0.12948
      71 -> 78         0.50767
      72 -> 78         0.14709

 Excited State  21:      Singlet-A      6.7268 eV  184.31 nm  f=0.0549  <S**2>=0.000
      66 -> 74         0.14224
      66 -> 78         0.15081
      68 -> 73         0.43604
      70 -> 74         0.12556
      71 -> 73         0.18018
      71 -> 77        -0.16373
      71 -> 79        -0.19314
      72 -> 79         0.18130

 Excited State  22:      Singlet-A      6.7604 eV  183.40 nm  f=0.3966  <S**2>=0.000
      65 -> 75        -0.10509
      67 -> 73         0.12128
      69 -> 73        -0.19732
      69 -> 74        -0.28202
      69 -> 75        -0.19071
      69 -> 76         0.28258
      70 -> 73        -0.13301
      70 -> 75        -0.12187
      70 -> 76         0.10616
      71 -> 79        -0.22658
      72 -> 79         0.21427

 Excited State  23:      Singlet-A      6.8123 eV  182.00 nm  f=0.1660  <S**2>=0.000
      68 -> 74        -0.22701
      68 -> 75         0.14358
      69 -> 75        -0.18898
      70 -> 76         0.12596
      71 -> 79         0.13994
      71 -> 81         0.14723
      72 -> 79        -0.10852
      72 -> 80         0.24656
      72 -> 81         0.33845
      72 -> 82         0.12147

 Excited State  24:      Singlet-A      6.8319 eV  181.48 nm  f=0.1181  <S**2>=0.000
      68 -> 73         0.18920
      68 -> 75         0.13557
      69 -> 73        -0.14798
      69 -> 76         0.21800
      70 -> 74         0.12497
      71 -> 79         0.37341
      72 -> 79        -0.28043
      72 -> 81        -0.17655

 Excited State  25:      Singlet-A      6.8691 eV  180.49 nm  f=0.2077  <S**2>=0.000
      66 -> 73        -0.14747
      69 -> 73         0.13038
      69 -> 75         0.16381
      69 -> 76         0.33141
      70 -> 73        -0.17997
      70 -> 75         0.13239
      71 -> 78         0.10854
      72 -> 80        -0.27979
      72 -> 81         0.28883
      72 -> 82         0.14533

 Excited State  26:      Singlet-A      6.9258 eV  179.02 nm  f=0.3109  <S**2>=0.000
      66 -> 73        -0.17532
      68 -> 74        -0.20006
      69 -> 73         0.21444
      69 -> 76         0.20814
      69 -> 77         0.13796
      70 -> 75         0.21422
      71 -> 80        -0.11558
      72 -> 80         0.29926
      72 -> 81        -0.26867
      72 -> 82        -0.13522

 Excited State  27:      Singlet-A      6.9485 eV  178.43 nm  f=0.2909  <S**2>=0.000
      67 -> 73         0.13489
      68 -> 74         0.18360
      68 -> 75        -0.10832
      69 -> 75         0.27533
      69 -> 77        -0.16276
      70 -> 73        -0.17727
      70 -> 76        -0.18247
      71 -> 78         0.11688
      72 -> 80         0.37915

 Excited State  28:      Singlet-A      6.9572 eV  178.21 nm  f=0.2271  <S**2>=0.000
      66 -> 73        -0.25700
      66 -> 74        -0.10459
      67 -> 73        -0.11114
      67 -> 74        -0.12168
      68 -> 74         0.29565
      68 -> 76         0.10516
      69 -> 74         0.10045
      69 -> 75        -0.13325
      70 -> 73         0.18981
      70 -> 74         0.14770
      70 -> 75        -0.15292
      70 -> 76         0.12284
      70 -> 77         0.12068
      71 -> 78         0.28386

 Excited State  29:      Singlet-A      7.0807 eV  175.10 nm  f=0.0974  <S**2>=0.000
      67 -> 73        -0.17817
      68 -> 74         0.17807
      68 -> 75         0.35200
      69 -> 74        -0.11699
      69 -> 75         0.31009
      70 -> 73         0.25580
      70 -> 75         0.14060
      70 -> 77        -0.21627

 Excited State  30:      Singlet-A      7.1745 eV  172.81 nm  f=0.1389  <S**2>=0.000
      65 -> 75         0.14001
      66 -> 73        -0.28304
      67 -> 73         0.11683
      67 -> 75        -0.15727
      67 -> 78         0.11028
      68 -> 75         0.30495
      68 -> 76         0.22448
      68 -> 77        -0.12186
      69 -> 74        -0.12239
      69 -> 77        -0.10679
      70 -> 76        -0.17140
      70 -> 78         0.10347

 The electronic state is 1-A.
 Alpha  occ. eigenvalues --  -89.91821 -14.78793 -14.74382 -10.62404 -10.59302
 Alpha  occ. eigenvalues --  -10.59143 -10.58152 -10.58003 -10.57317 -10.55352
 Alpha  occ. eigenvalues --  -10.55081 -10.54877 -10.54860 -10.54561 -10.54558
 Alpha  occ. eigenvalues --  -10.54482 -10.54349 -10.54241 -10.54222 -10.53452
 Alpha  occ. eigenvalues --   -8.27674  -6.19643  -6.19450  -6.19148  -1.10884
 Alpha  occ. eigenvalues --   -1.04500  -0.97589  -0.96791  -0.90745  -0.90386
 Alpha  occ. eigenvalues --   -0.86550  -0.86098  -0.85249  -0.82483  -0.77953
 Alpha  occ. eigenvalues --   -0.73343  -0.73022  -0.69875  -0.68863  -0.68737
 Alpha  occ. eigenvalues --   -0.64819  -0.62157  -0.61738  -0.57452  -0.56273
 Alpha  occ. eigenvalues --   -0.55436  -0.54286  -0.53554  -0.52980  -0.51630
 Alpha  occ. eigenvalues --   -0.51209  -0.50060  -0.49206  -0.48908  -0.47710
 Alpha  occ. eigenvalues --   -0.46439  -0.45240  -0.44883  -0.44026  -0.42691
 Alpha  occ. eigenvalues --   -0.41911  -0.40552  -0.40462  -0.38589  -0.36334
 Alpha  occ. eigenvalues --   -0.34676  -0.33810  -0.32423  -0.31724  -0.30813
 Alpha  occ. eigenvalues --   -0.27829  -0.25406
 Alpha virt. eigenvalues --    0.00163   0.00232   0.00873   0.01225   0.02502
 Alpha virt. eigenvalues --    0.03902   0.05991   0.08321   0.09319   0.10534
 Alpha virt. eigenvalues --    0.10648   0.10936   0.11819   0.12834   0.13217

 Mulliken charges:
               1
     1  C   -0.199856
     2  C   -0.168202
     3  C   -0.051074
     4  C    0.198798
     5  C   -0.290483
     6  C   -0.155947
     7  C    0.132183
     8  C   -0.035743
     9  C   -0.166433
    10  H    0.186220
    11  C   -0.193863
    12  C   -0.150910
    13  C   -0.294926
    14  H    0.186002
    15  H    0.192453
    16  H    0.185438
    17  H    0.186523
    18  H    0.187380
    19  C    0.319941
    20  C   -0.263417
    21  C   -0.135007
    22  C   -0.096136
    23  C   -0.225270
    24  H    0.188813
    25  H    0.174691
    26  H    0.215947
    27  H    0.183413
    28  H    0.185335
    29  N   -0.142959
    30  H    0.217222
    31  S   -0.006777
    32  N   -0.363355
 Sum of Mulliken charges =  -0.00000

 Dipole moment (field-independent basis, Debye):
    X=             -0.6633    Y=             -2.5807    Z=              1.3623  Tot=              2.9927
 Quadrupole moment (field-independent basis, Debye-Ang):
   XX=           -107.2674   YY=           -101.9701   ZZ=           -123.2338
   XY=              3.1802   XZ=             -1.4824   YZ=              0.1500

 Normal termination of Gaussian 09 at Tue Feb 23 22:58:34 2021.
