 Gaussian 09, Revision E.01,

 ----------------------------------------------------------------------
 #p wB97XD/def2TZVP opt freq=noraman nosymm int=ultrafine scrf=(SMD,sol
 vent=n,n-DiMethylAcetamide)
 ----------------------------------------------------------------------

 -----
 Title
 -----
 Symbolic Z-matrix:
 Charge =  0 Multiplicity = 1

 SCF Done:  E(RwB97XD) =  -1162.76131656     A.U. after   15 cycles
 SCF Done:  E(RwB97XD) =  -1162.76442277     A.U. after   12 cycles
 SCF Done:  E(RwB97XD) =  -1162.76464228     A.U. after   11 cycles
 SCF Done:  E(RwB97XD) =  -1162.76488796     A.U. after   12 cycles
 SCF Done:  E(RwB97XD) =  -1162.76496587     A.U. after   12 cycles
 SCF Done:  E(RwB97XD) =  -1162.76498477     A.U. after   10 cycles
 SCF Done:  E(RwB97XD) =  -1162.76499106     A.U. after   10 cycles
 SCF Done:  E(RwB97XD) =  -1162.76499268     A.U. after    9 cycles
 SCF Done:  E(RwB97XD) =  -1162.76499353     A.U. after    9 cycles
 SCF Done:  E(RwB97XD) =  -1162.76499367     A.U. after    7 cycles
 SCF Done:  E(RwB97XD) =  -1162.76499370     A.U. after    6 cycles
 Optimization completed.
    -- Stationary point found.
 Normal termination of Gaussian 09 at Sun Apr  4 03:25:06 2021.

 ---------------------------------------------------------------------
 #P Geom=AllCheck Guess=TCheck SCRF=Check GenChk RwB97XD/def2TZVP Freq
 ---------------------------------------------------------------------

 Structure from the checkpoint file:  "cp.chk"
 -----
 Title
 -----
 Charge =  0 Multiplicity = 1

 SCF Done:  E(RwB97XD) =  -1162.76499370     A.U. after    1 cycles

  Exact polarizability: 350.055   3.877 395.697 -26.235  -1.851 251.110
 Approx polarizability: 261.895   2.718 291.123 -23.580  -1.896 212.550

                      1                      2                      3
                      A                      A                      A
 Frequencies --     35.6875                46.6834                67.5127
 Red. masses --      5.2713                 4.9190                 5.6894
 Frc consts  --      0.0040                 0.0063                 0.0153
 IR Inten    --      0.7105                 5.4539                 3.1470

                      4                      5                      6
                      A                      A                      A
 Frequencies --     81.9053               141.9217               157.5137
 Red. masses --      4.7662                 4.1757                 4.3757
 Frc consts  --      0.0188                 0.0496                 0.0640
 IR Inten    --      0.7585                 1.1858                 1.6842

                      7                      8                      9
                      A                      A                      A
 Frequencies --    181.7632               229.8942               259.4113
 Red. masses --      5.7094                 6.1178                 5.1955
 Frc consts  --      0.1111                 0.1905                 0.2060
 IR Inten    --      0.9663                 3.1149                 1.3041

                     10                     11                     12
                      A                      A                      A
 Frequencies --    323.5992               329.5469               357.3809
 Red. masses --      5.4408                 5.6816                 6.3194
 Frc consts  --      0.3357                 0.3635                 0.4755
 IR Inten    --      4.1352                 6.8024                 4.9526

                     13                     14                     15
                      A                      A                      A
 Frequencies --    400.0793               401.7991               424.1659
 Red. masses --      5.2264                 9.2481                 3.5718
 Frc consts  --      0.4929                 0.8797                 0.3786
 IR Inten    --      2.8464                 4.2804                 6.6123

                     16                     17                     18
                      A                      A                      A
 Frequencies --    457.0564               461.6020               481.6343
 Red. masses --     10.3285                 3.3015                 3.7320
 Frc consts  --      1.2712                 0.4145                 0.5101
 IR Inten    --      1.7145                 0.1811                35.6304

                     19                     20                     21
                      A                      A                      A
 Frequencies --    523.4426               548.1599               548.8072
 Red. masses --      3.0341                 4.7361                 4.2219
 Frc consts  --      0.4898                 0.8385                 0.7492
 IR Inten    --      3.4910                 2.6656                 1.7869

                     22                     23                     24
                      A                      A                      A
 Frequencies --    585.5193               633.6878               648.0797
 Red. masses --      4.4128                 6.7562                 6.6268
 Frc consts  --      0.8913                 1.5985                 1.6399
 IR Inten    --      7.1395                17.0886                 9.5527

                     25                     26                     27
                      A                      A                      A
 Frequencies --    658.5841               703.3259               719.5603
 Red. masses --      5.6291                 6.5091                 6.3928
 Frc consts  --      1.4385                 1.8971                 1.9502
 IR Inten    --     30.0094                 3.5535                 6.6715

                     28                     29                     30
                      A                      A                      A
 Frequencies --    763.1260               765.8975               768.7559
 Red. masses --      3.2041                 2.1098                 2.0675
 Frc consts  --      1.0994                 0.7292                 0.7199
 IR Inten    --     20.6433                17.8740                39.1622

                     31                     32                     33
                      A                      A                      A
 Frequencies --    778.9641               783.1393               793.5764
 Red. masses --      2.0351                 1.5865                 2.1045
 Frc consts  --      0.7276                 0.5733                 0.7809
 IR Inten    --    126.7431                26.6755                32.9794

                     34                     35                     36
                      A                      A                      A
 Frequencies --    806.2524               894.5296               898.8051
 Red. masses --      2.6802                 1.3866                 1.4522
 Frc consts  --      1.0265                 0.6537                 0.6912
 IR Inten    --    110.7603                 4.7738                 2.8312

                     37                     38                     39
                      A                      A                      A
 Frequencies --    904.3962               948.0000               970.4695
 Red. masses --      1.4401                 5.6893                 3.6354
 Frc consts  --      0.6940                 3.0125                 2.0173
 IR Inten    --      1.0881                 0.2483                 1.2665

                     40                     41                     42
                      A                      A                      A
 Frequencies --    990.3312               996.7548              1006.6533
 Red. masses --      1.5008                 1.5300                 1.4131
 Frc consts  --      0.8672                 0.8956                 0.8437
 IR Inten    --      1.3953                 4.7972                 0.9214

                     43                     44                     45
                      A                      A                      A
 Frequencies --   1011.1222              1024.6770              1028.1990
 Red. masses --      6.3058                 1.3304                 1.3325
 Frc consts  --      3.7984                 0.8230                 0.8300
 IR Inten    --     26.1379                 0.0420                 0.0780

                     46                     47                     48
                      A                      A                      A
 Frequencies --   1037.1731              1066.9403              1067.1369
 Red. masses --      1.3354                 2.5927                 2.4759
 Frc consts  --      0.8464                 1.7389                 1.6612
 IR Inten    --      0.1531                25.8591                15.1650

                     49                     50                     51
                      A                      A                      A
 Frequencies --   1084.7350              1095.0019              1110.9126
 Red. masses --      2.2373                 2.9542                 3.3478
 Frc consts  --      1.5510                 2.0870                 2.4343
 IR Inten    --     10.3904                 4.6208                20.2971

                     52                     53                     54
                      A                      A                      A
 Frequencies --   1136.6540              1156.6958              1162.6995
 Red. masses --      1.4603                 1.6045                 1.5663
 Frc consts  --      1.1116                 1.2648                 1.2476
 IR Inten    --      1.2744                20.4372                 5.9331

                     55                     56                     57
                      A                      A                      A
 Frequencies --   1180.8849              1181.5928              1182.9555
 Red. masses --      1.1407                 1.1254                 1.1469
 Frc consts  --      0.9372                 0.9257                 0.9456
 IR Inten    --      6.5077                 0.6227                26.5138

                     58                     59                     60
                      A                      A                      A
 Frequencies --   1240.1217              1272.3006              1300.4051
 Red. masses --      2.8859                 1.7876                 1.6697
 Frc consts  --      2.6150                 1.7049                 1.6636
 IR Inten    --     12.2013                30.4160               130.5346

                     61                     62                     63
                      A                      A                      A
 Frequencies --   1306.3940              1314.1989              1321.6031
 Red. masses --      3.4362                 3.2737                 4.1873
 Frc consts  --      3.4553                 3.3313                 4.3091
 IR Inten    --     25.8896                25.2607                14.6314

                     64                     65                     66
                      A                      A                      A
 Frequencies --   1323.0678              1363.3084              1371.3250
 Red. masses --      4.5589                 2.7690                 2.5314
 Frc consts  --      4.7019                 3.0322                 2.8048
 IR Inten    --     15.4725               411.6920               182.2260

                     67                     68                     69
                      A                      A                      A
 Frequencies --   1472.8918              1487.6491              1494.3624
 Red. masses --      2.3175                 2.2784                 2.4898
 Frc consts  --      2.9622                 2.9709                 3.2758
 IR Inten    --    382.0646               101.1822                30.9665

                     70                     71                     72
                      A                      A                      A
 Frequencies --   1513.4638              1521.0239              1532.1486
 Red. masses --      2.6327                 2.5622                 2.7838
 Frc consts  --      3.5530                 3.4925                 3.8503
 IR Inten    --    256.3844               273.9859               124.5215

                     73                     74                     75
                      A                      A                      A
 Frequencies --   1634.2620              1642.7247              1652.2830
 Red. masses --      6.3423                 6.6781                 7.1630
 Frc consts  --      9.9802                10.6178                11.5217
 IR Inten    --     84.1773                30.1607                22.6480

                     76                     77                     78
                      A                      A                      A
 Frequencies --   1655.4276              1658.0803              1674.7777
 Red. masses --      6.2297                 5.8026                 6.3851
 Frc consts  --     10.0585                 9.3991                10.5519
 IR Inten    --     16.7644               283.1938               105.8560

                     79                     80                     81
                      A                      A                      A
 Frequencies --   3179.0555              3202.4167              3203.1016
 Red. masses --      1.0909                 1.0873                 1.0873
 Frc consts  --      6.4957                 6.5701                 6.5727
 IR Inten    --     33.8930                 0.1820                 0.0906

                     82                     83                     84
                      A                      A                      A
 Frequencies --   3207.1779              3209.9241              3210.7265
 Red. masses --      1.0905                 1.0907                 1.0916
 Frc consts  --      6.6089                 6.6213                 6.6303
 IR Inten    --      9.2671                 3.9746                 6.2750

                     85                     86                     87
                      A                      A                      A
 Frequencies --   3218.6134              3222.4112              3227.3879
 Red. masses --      1.0946                 1.0964                 1.0989
 Frc consts  --      6.6809                 6.7076                 6.7440
 IR Inten    --     11.4628                17.5204                10.3639

                     88                     89                     90
                      A                      A                      A
 Frequencies --   3233.2986              3234.5320              3249.5324
 Red. masses --      1.0966                 1.0961                 1.0939
 Frc consts  --      6.7542                 6.7563                 6.8059
 IR Inten    --      9.9597                 3.7449                 0.4507

 - Thermochemistry -
 -------------------
 Temperature   298.150 Kelvin.  Pressure   1.00000 Atm.
 Atom     1 has atomic number  6 and mass  12.00000

 Molecular mass:   276.07212 amu.
 Principal axes and moments of inertia in atomic units:
                           1         2         3
     Eigenvalues --  4697.993415116.274258264.53167
           X            0.99621  -0.08296  -0.02614
           Y            0.08287   0.99655  -0.00465
           Z            0.02644   0.00247   0.99965
 This molecule is an asymmetric top.
 Rotational symmetry number  1.
 Warning -- assumption of classical behavior for rotation
           may cause significant error
 Rotational temperatures (Kelvin)      0.01844     0.01693     0.01048
 Rotational constants (GHZ):           0.38415     0.35275     0.21837
 Zero-point vibrational energy     654090.3 (Joules/Mol)
                                  156.33132 (Kcal/Mol)
 Warning -- explicit consideration of  22 degrees of freedom as
           vibrations may cause significant error
 Vibrational temperatures:     51.35    67.17    97.14   117.84   204.19
          (Kelvin)            226.63   261.52   330.77   373.23   465.59
                              474.14   514.19   575.62   578.10   610.28
                              657.60   664.14   692.96   753.12   788.68
                              789.61   842.43   911.73   932.44   947.55
                             1011.93  1035.29  1097.97  1101.95  1106.07
                             1120.75  1126.76  1141.78  1160.02  1287.03
                             1293.18  1301.22  1363.96  1396.29  1424.86
                             1434.11  1448.35  1454.78  1474.28  1479.35
                             1492.26  1535.09  1535.37  1560.69  1575.46
                             1598.35  1635.39  1664.23  1672.86  1699.03
                             1700.05  1702.01  1784.26  1830.55  1870.99
                             1879.61  1890.84  1901.49  1903.60  1961.49
                             1973.03  2119.16  2140.39  2150.05  2177.53
                             2188.41  2204.42  2351.34  2363.51  2377.26
                             2381.79  2385.60  2409.63  4573.95  4607.56
                             4608.54  4614.41  4618.36  4619.51  4630.86
                             4636.33  4643.49  4651.99  4653.76  4675.35

 Zero-point correction=                           0.249130 (Hartree/Particle)
 Thermal correction to Energy=                    0.263743
 Thermal correction to Enthalpy=                  0.264687
 Thermal correction to Gibbs Free Energy=         0.206472
 Sum of electronic and zero-point Energies=          -1162.515864
 Sum of electronic and thermal Energies=             -1162.501251
 Sum of electronic and thermal Enthalpies=           -1162.500307
 Sum of electronic and thermal Free Energies=        -1162.558521

                     E (Thermal)             CV                S
                      KCal/Mol        Cal/Mol-Kelvin    Cal/Mol-Kelvin
 Total                  165.501             59.675            122.523
 Electronic               0.000              0.000              0.000
 Translational            0.889              2.981             42.745
 Rotational               0.889              2.981             33.651
 Vibrational            163.724             53.713             46.127
 Vibration     1          0.594              1.982              5.485
 Vibration     2          0.595              1.979              4.953
 Vibration     3          0.598              1.970              4.225
 Vibration     4          0.600              1.962              3.845
 Vibration     5          0.615              1.911              2.778
 Vibration     6          0.621              1.894              2.579
 Vibration     7          0.630              1.865              2.310
 Vibration     8          0.652              1.795              1.880
 Vibration     9          0.668              1.747              1.666
 Vibration    10          0.708              1.628              1.292
 Vibration    11          0.712              1.616              1.262
 Vibration    12          0.733              1.560              1.133
 Vibration    13          0.766              1.470              0.962
 Vibration    14          0.767              1.466              0.956
 Vibration    15          0.786              1.418              0.878
 Vibration    16          0.815              1.345              0.775
 Vibration    17          0.819              1.335              0.761
 Vibration    18          0.838              1.291              0.706
 Vibration    19          0.878              1.198              0.602
 Vibration    20          0.903              1.144              0.548
 Vibration    21          0.904              1.142              0.547
 Vibration    22          0.943              1.063              0.475

 Optimization completed.
    -- Stationary point found.
 Normal termination of Gaussian 09 at Sun Apr  4 05:54:49 2021.
 Gaussian 09:  ES64L-G09RevE.01 30-Nov-2015

 ----------------------------------------------------------------------
 #p wB97XD chkbasis geom=allcheck Guess=Read int=ultrafine scrf=(SMD,so
 lvent=n,n-DiMethylAcetamide) td=(NStates=30)
 ----------------------------------------------------------------------

 Structure from the checkpoint file:  "cp.chk"
 -----
 Title
 -----
 Charge =  0 Multiplicity = 1

                         Standard orientation:
 ---------------------------------------------------------------------
 Center     Atomic      Atomic             Coordinates (Angstroms)
 Number     Number       Type             X           Y           Z
 ---------------------------------------------------------------------
      1          6           0        1.721945    3.645748    0.330079
      2          6           0        2.079314    2.626511   -0.536207
      3          6           0        1.389545    1.420261   -0.501467
      4          6           0        0.350622    1.228567    0.405699
      5          6           0        0.031214    2.238852    1.303682
      6          6           0        0.704930    3.447528    1.255461
      7          6           0        0.516626   -1.167408    0.426671
      8          6           0        1.568232   -1.243872   -0.482984
      9          6           0        2.402842   -2.354536   -0.496878
     10          1           0        3.226003   -2.402798   -1.199167
     11          6           0        2.178708   -3.393034    0.392018
     12          6           0        1.149484   -3.305988    1.320384
     13          6           0        0.331679   -2.188715    1.349468
     14          1           0        2.894372    2.762302   -1.236528
     15          1           0       -0.756631    2.075061    2.025828
     16          1           0        0.439656    4.235993    1.948377
     17          1           0        2.823680   -4.262372    0.373405
     18          1           0        0.988907   -4.106418    2.031320
     19          6           0       -1.672031   -0.117292    0.062653
     20          6           0       -2.270053   -1.354450   -0.227856
     21          6           0       -3.605002   -1.373539   -0.564627
     22          6           0       -3.645205    0.978706   -0.326553
     23          6           0       -4.326306   -0.185469   -0.613430
     24          1           0       -4.082716   -2.317787   -0.796342
     25          1           0       -4.153061    1.937367   -0.361647
     26          1           0       -1.702951   -2.272287   -0.204250
     27          1           0       -5.375875   -0.165285   -0.872316
     28          1           0        2.253107    4.588617    0.296984
     29          7           0       -0.324631   -0.023222    0.410400
     30          1           0       -0.468610   -2.108426    2.074292
     31         16           0        1.826851    0.102715   -1.596902
     32          7           0       -2.354621    1.020563    0.002999
 ---------------------------------------------------------------------

 SCF Done:  E(RwB97XD) =  -1162.76502511     A.U. after    7 cycles

 Excitation energies and oscillator strengths:

 Excited State   1:      Singlet-A      4.6092 eV  268.99 nm  f=0.1922  <S**2>=0.000
      71 -> 73        -0.20839
      72 -> 73         0.62632
      72 -> 75        -0.10923
 This state for optimization and/or second-order correction.
 Total Energy, E(TD-HF/TD-KS) =  -1162.59564137
 Copying the excited state density for this state as the 1-particle RhoCI density.

 Excited State   2:      Singlet-A      4.7094 eV  263.27 nm  f=0.1018  <S**2>=0.000
      72 -> 74         0.59473
      72 -> 75        -0.25406

 Excited State   3:      Singlet-A      4.7495 eV  261.05 nm  f=0.0257  <S**2>=0.000
      71 -> 75         0.14754
      71 -> 79         0.10111
      72 -> 74         0.27970
      72 -> 75         0.54561
      72 -> 76        -0.15572

 Excited State   4:      Singlet-A      4.9496 eV  250.49 nm  f=0.0948  <S**2>=0.000
      69 -> 77        -0.10532
      70 -> 75         0.10656
      70 -> 76        -0.11160
      71 -> 74         0.27811
      72 -> 75         0.14115
      72 -> 76         0.55173

 Excited State   5:      Singlet-A      5.0846 eV  243.84 nm  f=0.0084  <S**2>=0.000
      68 -> 73        -0.12006
      68 -> 75        -0.11410
      69 -> 74        -0.19843
      70 -> 76         0.18324
      71 -> 73         0.14353
      71 -> 74         0.13899
      71 -> 75        -0.30644
      71 -> 77         0.13806
      72 -> 77         0.42256

 Excited State   6:      Singlet-A      5.3526 eV  231.64 nm  f=0.0019  <S**2>=0.000
      67 -> 73         0.40705
      67 -> 74         0.14462
      67 -> 76        -0.11607
      67 -> 77        -0.16212
      69 -> 73         0.17614
      70 -> 73         0.38505
      70 -> 74         0.11349
      70 -> 75        -0.10902
      70 -> 77        -0.11698

 Excited State   7:      Singlet-A      5.4127 eV  229.06 nm  f=0.2210  <S**2>=0.000
      70 -> 73        -0.10538
      71 -> 73         0.28059
      71 -> 74        -0.21511
      71 -> 75         0.30399
      71 -> 76         0.13226
      71 -> 79         0.11073
      72 -> 73         0.10785
      72 -> 76         0.23002
      72 -> 77         0.25241
      72 -> 78        -0.16350
      72 -> 79         0.13034

 Excited State   8:      Singlet-A      5.4681 eV  226.74 nm  f=0.2919  <S**2>=0.000
      71 -> 73        -0.12075
      71 -> 74         0.23877
      71 -> 75         0.23475
      71 -> 76        -0.26597
      71 -> 79         0.19611
      72 -> 75        -0.19610
      72 -> 76        -0.13153
      72 -> 77         0.27422
      72 -> 78         0.11988
      72 -> 79         0.22918

 Excited State   9:      Singlet-A      5.6898 eV  217.91 nm  f=0.1800  <S**2>=0.000
      71 -> 74         0.39954
      71 -> 75         0.20471
      71 -> 76         0.39620
      72 -> 76        -0.17232
      72 -> 78        -0.16872

 Excited State  10:      Singlet-A      5.7974 eV  213.86 nm  f=0.3191  <S**2>=0.000
      71 -> 75        -0.22087
      71 -> 76         0.20607
      71 -> 79         0.33000
      72 -> 77        -0.19138
      72 -> 78        -0.10131
      72 -> 79         0.39486

 Excited State  11:      Singlet-A      5.8444 eV  212.14 nm  f=0.0260  <S**2>=0.000
      67 -> 78         0.18314
      69 -> 74        -0.11340
      70 -> 73         0.12519
      70 -> 74        -0.26236
      70 -> 76         0.13896
      70 -> 78         0.10969
      71 -> 73         0.21125
      71 -> 77         0.24495
      72 -> 75        -0.10901
      72 -> 77        -0.17310
      72 -> 78         0.31439

 Excited State  12:      Singlet-A      5.8888 eV  210.54 nm  f=0.0365  <S**2>=0.000
      67 -> 74         0.13869
      67 -> 76        -0.11217
      67 -> 78        -0.22865
      70 -> 73        -0.15468
      70 -> 74         0.20840
      70 -> 78        -0.16664
      71 -> 76         0.15936
      71 -> 78        -0.17236
      72 -> 78         0.43035

 Excited State  13:      Singlet-A      5.9764 eV  207.46 nm  f=0.0073  <S**2>=0.000
      67 -> 73        -0.13716
      67 -> 74         0.19111
      67 -> 78        -0.19871
      69 -> 76        -0.14021
      70 -> 78        -0.22997
      71 -> 73         0.17967
      71 -> 76        -0.23513
      71 -> 77         0.29956
      72 -> 75        -0.11069
      72 -> 77        -0.16294
      72 -> 78        -0.21464

 Excited State  14:      Singlet-A      6.2151 eV  199.49 nm  f=0.0061  <S**2>=0.000
      68 -> 73        -0.13873
      69 -> 75         0.12340
      70 -> 76        -0.23920
      71 -> 73         0.36131
      71 -> 75        -0.22216
      71 -> 77        -0.12542
      72 -> 73         0.22014
      72 -> 76        -0.14810

 Excited State  15:      Singlet-A      6.2939 eV  196.99 nm  f=0.1091  <S**2>=0.000
      65 -> 74        -0.12342
      68 -> 73        -0.15543
      68 -> 75        -0.18766
      69 -> 74        -0.20683
      69 -> 77        -0.15137
      70 -> 74         0.25638
      70 -> 75         0.28803
      71 -> 73         0.13103
      71 -> 74        -0.18587
      71 -> 75         0.19026
      72 -> 74        -0.10196
      72 -> 77        -0.13454

 Excited State  16:      Singlet-A      6.3570 eV  195.04 nm  f=0.1915  <S**2>=0.000
      68 -> 74        -0.10896
      68 -> 75         0.10007
      69 -> 73         0.13484
      69 -> 76         0.10864
      69 -> 77         0.10287
      70 -> 73        -0.14730
      70 -> 74         0.25057
      70 -> 75        -0.15087
      70 -> 76         0.26431
      70 -> 77        -0.11710
      71 -> 74         0.18129
      71 -> 76        -0.21209
      72 -> 77        -0.16408

 Excited State  17:      Singlet-A      6.4594 eV  191.95 nm  f=0.1150  <S**2>=0.000
      66 -> 78         0.11056
      68 -> 73         0.13266
      69 -> 73         0.18421
      69 -> 74        -0.13461
      69 -> 75         0.14874
      70 -> 73        -0.15810
      70 -> 74         0.16531
      70 -> 76        -0.28722
      70 -> 78         0.16213
      71 -> 77         0.35791

 Excited State  18:      Singlet-A      6.5143 eV  190.33 nm  f=0.0509  <S**2>=0.000
      67 -> 73        -0.11386
      68 -> 74        -0.25192
      68 -> 75        -0.10281
      69 -> 75         0.30250
      69 -> 76        -0.15823
      70 -> 73         0.15434
      70 -> 75        -0.29240
      70 -> 77         0.28513
      71 -> 76         0.12278

 Excited State  19:      Singlet-A      6.7492 eV  183.70 nm  f=0.1845  <S**2>=0.000
      66 -> 73         0.24442
      66 -> 74         0.12424
      66 -> 77        -0.11190
      68 -> 74         0.19948
      69 -> 73         0.29267
      69 -> 78        -0.11101
      70 -> 74        -0.15357
      70 -> 75        -0.11145
      71 -> 77        -0.11704
      71 -> 78         0.25191
      72 -> 78         0.14690

 Excited State  20:      Singlet-A      6.7981 eV  182.38 nm  f=0.1377  <S**2>=0.000
      66 -> 73        -0.22307
      66 -> 74        -0.11770
      68 -> 78         0.12683
      69 -> 73         0.11923
      69 -> 74        -0.22181
      69 -> 76         0.26812
      70 -> 74        -0.18277
      70 -> 76        -0.14682
      71 -> 77        -0.13437
      71 -> 78        -0.25179
      72 -> 78        -0.13792
      72 -> 79        -0.14889

 Excited State  21:      Singlet-A      6.8591 eV  180.76 nm  f=0.4609  <S**2>=0.000
      65 -> 75         0.11598
      68 -> 73        -0.10158
      68 -> 76        -0.10039
      69 -> 74         0.34890
      69 -> 75         0.18309
      69 -> 76         0.29249
      70 -> 73         0.10261
      70 -> 76         0.15452
      71 -> 77         0.19077
      71 -> 79         0.15251
      72 -> 79        -0.16478

 Excited State  22:      Singlet-A      6.8801 eV  180.21 nm  f=0.0071  <S**2>=0.000
      64 -> 73        -0.10891
      66 -> 74        -0.15599
      66 -> 78         0.21960
      67 -> 73        -0.15164
      68 -> 73         0.34974
      68 -> 77        -0.10114
      69 -> 76         0.11894
      70 -> 73         0.10064
      71 -> 73         0.24369
      71 -> 77        -0.20241

 Excited State  23:      Singlet-A      6.9504 eV  178.38 nm  f=0.2250  <S**2>=0.000
      68 -> 73         0.11216
      68 -> 74        -0.19871
      68 -> 75         0.18541
      69 -> 75        -0.16953
      69 -> 76        -0.13679
      70 -> 75         0.15107
      71 -> 79         0.35624
      72 -> 79        -0.27866
      72 -> 80         0.12666

 Excited State  24:      Singlet-A      6.9629 eV  178.07 nm  f=0.1996  <S**2>=0.000
      66 -> 73        -0.15283
      68 -> 74        -0.15734
      69 -> 75        -0.23550
      69 -> 76         0.25505
      69 -> 79        -0.10622
      70 -> 73         0.11536
      70 -> 77         0.13952
      71 -> 77         0.11438
      71 -> 78         0.25038
      71 -> 79        -0.16258
      72 -> 79         0.13625
      72 -> 80         0.19695
      72 -> 81        -0.11535

 Excited State  25:      Singlet-A      6.9763 eV  177.72 nm  f=0.6099  <S**2>=0.000
      66 -> 73        -0.15262
      66 -> 74        -0.14908
      68 -> 74         0.21377
      69 -> 73        -0.18218
      69 -> 77        -0.19588
      70 -> 75        -0.21905
      71 -> 78         0.26499
      71 -> 79         0.21820
      72 -> 79        -0.16920

 Excited State  26:      Singlet-A      7.0844 eV  175.01 nm  f=0.1064  <S**2>=0.000
      66 -> 73         0.17877
      67 -> 74        -0.14436
      68 -> 76        -0.10152
      69 -> 73        -0.11971
      69 -> 75        -0.27024
      69 -> 76         0.11630
      70 -> 73         0.13197
      70 -> 74         0.12883
      70 -> 75        -0.20884
      70 -> 77         0.17046
      71 -> 78        -0.11298
      72 -> 80        -0.16978
      72 -> 81         0.27316
      72 -> 82        -0.11531

 Excited State  27:      Singlet-A      7.1434 eV  173.56 nm  f=0.0040  <S**2>=0.000
      66 -> 73        -0.11711
      68 -> 74        -0.18267
      70 -> 75         0.20571
      71 -> 78         0.32603
      71 -> 80        -0.11279
      71 -> 81         0.13859
      72 -> 80        -0.24681
      72 -> 81         0.26585
      72 -> 82        -0.12421

 Excited State  28:      Singlet-A      7.2352 eV  171.36 nm  f=0.0720  <S**2>=0.000
      67 -> 73         0.35865
      67 -> 74        -0.11882
      67 -> 75        -0.21200
      67 -> 77         0.10180
      67 -> 78        -0.10270
      68 -> 74        -0.13634
      69 -> 75        -0.10323
      70 -> 73        -0.26873
      70 -> 74        -0.16026
      70 -> 76         0.14183
      70 -> 77         0.17666
      70 -> 78        -0.18455

 Excited State  29:      Singlet-A      7.2561 eV  170.87 nm  f=0.0314  <S**2>=0.000
      68 -> 75         0.11005
      69 -> 75         0.11904
      71 -> 80        -0.13710
      72 -> 80         0.42243
      72 -> 81         0.35249
      72 -> 82        -0.12777
      72 -> 86         0.12848

 Excited State  30:      Singlet-A      7.2818 eV  170.27 nm  f=0.1433  <S**2>=0.000
      66 -> 73         0.13424
      67 -> 74        -0.10495
      67 -> 75        -0.11877
      67 -> 77         0.17406
      67 -> 78        -0.14263
      68 -> 75         0.40056
      69 -> 74        -0.16696
      69 -> 75         0.20416
      70 -> 73         0.21397
      70 -> 78        -0.10157
      72 -> 81        -0.13028

 The electronic state is 1-A.
 Alpha  occ. eigenvalues --  -89.03816 -14.47339 -14.42646 -10.36842 -10.33787
 Alpha  occ. eigenvalues --  -10.33620 -10.32826 -10.32670 -10.31830 -10.29991
 Alpha  occ. eigenvalues --  -10.29672 -10.29476 -10.29424 -10.29182 -10.29145
 Alpha  occ. eigenvalues --  -10.29117 -10.28986 -10.28881 -10.28721 -10.28021
 Alpha  occ. eigenvalues --   -8.07159  -6.02015  -6.01662  -6.01111  -1.09988
 Alpha  occ. eigenvalues --   -1.03892  -0.97462  -0.96767  -0.91198  -0.90474
 Alpha  occ. eigenvalues --   -0.86879  -0.86453  -0.85731  -0.83040  -0.78943
 Alpha  occ. eigenvalues --   -0.74370  -0.74085  -0.71038  -0.70145  -0.70008
 Alpha  occ. eigenvalues --   -0.66288  -0.63758  -0.63415  -0.59138  -0.58148
 Alpha  occ. eigenvalues --   -0.57290  -0.56104  -0.55404  -0.55083  -0.53384
 Alpha  occ. eigenvalues --   -0.53016  -0.52032  -0.51175  -0.50971  -0.49599
 Alpha  occ. eigenvalues --   -0.48348  -0.47316  -0.46920  -0.46163  -0.44933
 Alpha  occ. eigenvalues --   -0.44153  -0.42973  -0.42720  -0.40665  -0.38715
 Alpha  occ. eigenvalues --   -0.36863  -0.35725  -0.34774  -0.34047  -0.32940
 Alpha  occ. eigenvalues --   -0.30155  -0.27925
 Alpha virt. eigenvalues --    0.03628   0.03819   0.04373   0.04649   0.06032
 Alpha virt. eigenvalues --    0.07249   0.09571   0.12702   0.13667   0.15125
 Alpha virt. eigenvalues --    0.15270   0.15516   0.16505   0.17500   0.17641

 Mulliken charges:
               1
     1  C   -0.190281
     2  C   -0.146202
     3  C   -0.084622
     4  C    0.278142
     5  C   -0.381196
     6  C   -0.082120
     7  C    0.199956
     8  C   -0.072919
     9  C   -0.152638
    10  H    0.165358
    11  C   -0.179522
    12  C   -0.085250
    13  C   -0.351528
    14  H    0.164441
    15  H    0.157004
    16  H    0.164795
    17  H    0.166995
    18  H    0.166223
    19  C    0.308495
    20  C   -0.283204
    21  C   -0.139578
    22  C   -0.062868
    23  C   -0.186893
    24  H    0.172889
    25  H    0.159681
    26  H    0.193319
    27  H    0.170972
    28  H    0.165511
    29  N    0.023841
    30  H    0.174551
    31  S   -0.042408
    32  N   -0.390944
 Sum of Mulliken charges =  -0.00000

 Dipole moment (field-independent basis, Debye):
    X=             -0.4040    Y=             -2.6084    Z=              1.4151  Tot=              2.9949
 Quadrupole moment (field-independent basis, Debye-Ang):
   XX=           -107.6581   YY=           -101.3687   ZZ=           -121.6291
   XY=              3.0647   XZ=             -1.3237   YZ=             -0.0340

 1\1\GINC-CN008\SP\RwB97XD TD-FC\Gen\C17H12N2S1\PNG4RJV\04-Apr-2021\0\\
 #p wB97XD chkbasis geom=allcheck Guess=Read int=ultrafine scrf=(SMD,so
 lvent=n,n-DiMethylAcetamide) td=(NStates=30)\\Title\\0,1\C,0,-1.927233
 2049,3.5292165916,-0.366045695\C,0,-2.2425257621,2.4849993111,0.486721
 1382\C,0,-1.4736460062,1.3271596788,0.4705893975\C,0,-0.3971708374,1.2
 083491285,-0.4047072706\C,0,-0.1181813048,2.2412549338,-1.2903377091\C
 ,0,-0.871621744,3.4025203741,-1.260234811\C,0,-0.4034142436,-1.1932515
 538,-0.4358273715\C,0,-1.4748547485,-1.3428585478,0.4410004806\C,0,-2.

 Normal termination of Gaussian 09 at Sun Apr  4 07:39:33 2021.
