 Gaussian 09, Revision E.01,

 ----------------------------------------------------------------------
 #p cam-b3lyp/def2TZVP opt freq=noraman nosymm int=ultrafine scrf=(SMD,
 solvent=n,n-DiMethylAcetamide) EmpiricalDispersion=GD3BJ
 ----------------------------------------------------------------------

 -----
 Title
 -----
 Symbolic Z-matrix:
 Charge =  0 Multiplicity = 1

 SCF Done:  E(RCAM-B3LYP) =  -1162.66346722     A.U. after   15 cycles
 SCF Done:  E(RCAM-B3LYP) =  -1162.66748079     A.U. after   12 cycles
 SCF Done:  E(RCAM-B3LYP) =  -1162.66770646     A.U. after   11 cycles
 SCF Done:  E(RCAM-B3LYP) =  -1162.66795116     A.U. after   11 cycles
 SCF Done:  E(RCAM-B3LYP) =  -1162.66802514     A.U. after   11 cycles
 SCF Done:  E(RCAM-B3LYP) =  -1162.66804638     A.U. after   10 cycles
 SCF Done:  E(RCAM-B3LYP) =  -1162.66805141     A.U. after    9 cycles
 SCF Done:  E(RCAM-B3LYP) =  -1162.66805337     A.U. after    8 cycles
 SCF Done:  E(RCAM-B3LYP) =  -1162.66805421     A.U. after    8 cycles
 SCF Done:  E(RCAM-B3LYP) =  -1162.66805436     A.U. after    7 cycles
 SCF Done:  E(RCAM-B3LYP) =  -1162.66805439     A.U. after    6 cycles
 Optimization completed.
    -- Stationary point found.
 Normal termination of Gaussian 09 at Thu Feb 25 21:26:52 2021.

 ----------------------------------------------------------------------
 #P Geom=AllCheck Guess=TCheck SCRF=Check GenChk RCAM-B3LYP/def2TZVP Fr
 eq
 ----------------------------------------------------------------------

 Structure from the checkpoint file:  "cp.chk"
 -----
 Title
 -----
 Charge =  0 Multiplicity = 1

 SCF Done:  E(RCAM-B3LYP) =  -1162.66805439     A.U. after    1 cycles

  Exact polarizability: 348.328   4.048 393.009 -26.059  -2.023 247.700
 Approx polarizability: 286.632   3.162 318.445 -26.415  -2.231 230.973

                      1                      2                      3
                      A                      A                      A
 Frequencies --     38.1989                47.4706                67.8702
 Red. masses --      5.3590                 4.8193                 5.7157
 Frc consts  --      0.0046                 0.0064                 0.0155
 IR Inten    --      0.7094                 5.4492                 3.0658

                      4                      5                      6
                      A                      A                      A
 Frequencies --     83.1709               143.7654               158.7321
 Red. masses --      4.7771                 4.1664                 4.3867
 Frc consts  --      0.0195                 0.0507                 0.0651
 IR Inten    --      0.7423                 1.1025                 1.7582

                      7                      8                      9
                      A                      A                      A
 Frequencies --    183.4415               230.7993               260.3566
 Red. masses --      5.7449                 6.0901                 5.2074
 Frc consts  --      0.1139                 0.1911                 0.2080
 IR Inten    --      0.9825                 3.1348                 1.3874

                     10                     11                     12
                      A                      A                      A
 Frequencies --    325.8582               330.6475               359.4134
 Red. masses --      5.4651                 5.6413                 6.3098
 Frc consts  --      0.3419                 0.3634                 0.4802
 IR Inten    --      4.4506                 6.3601                 4.9276

                     13                     14                     15
                      A                      A                      A
 Frequencies --    401.6853               404.3790               428.1566
 Red. masses --      5.1913                 9.2324                 3.5504
 Frc consts  --      0.4935                 0.8895                 0.3835
 IR Inten    --      2.8373                 4.6061                 6.7379

                     16                     17                     18
                      A                      A                      A
 Frequencies --    459.7511               464.6704               484.5976
 Red. masses --     10.4152                 3.2678                 3.6978
 Frc consts  --      1.2971                 0.4157                 0.5116
 IR Inten    --      1.7434                 0.1835                34.6726

                     19                     20                     21
                      A                      A                      A
 Frequencies --    526.1172               551.2850               552.0461
 Red. masses --      3.0333                 4.4713                 4.4140
 Frc consts  --      0.4947                 0.8006                 0.7926
 IR Inten    --      3.1459                 2.3718                 2.0733

                     22                     23                     24
                      A                      A                      A
 Frequencies --    589.0392               639.0457               653.2014
 Red. masses --      4.3488                 6.7378                 6.6359
 Frc consts  --      0.8890                 1.6212                 1.6682
 IR Inten    --      7.1786                17.5558                 9.0852

                     25                     26                     27
                      A                      A                      A
 Frequencies --    663.9878               709.0721               724.4823
 Red. masses --      5.6362                 6.4885                 6.3552
 Frc consts  --      1.4641                 1.9221                 1.9653
 IR Inten    --     29.2506                 3.5370                 6.9599

                     28                     29                     30
                      A                      A                      A
 Frequencies --    767.0890               769.4996               772.2248
 Red. masses --      2.4543                 2.1584                 2.1026
 Frc consts  --      0.8509                 0.7530                 0.7387
 IR Inten    --     32.4944                17.7315                34.9818

                     31                     32                     33
                      A                      A                      A
 Frequencies --    782.6481               785.8534               797.2127
 Red. masses --      1.9326                 1.6635                 2.2772
 Frc consts  --      0.6975                 0.6053                 0.8527
 IR Inten    --    135.4630                23.4581                21.4281

                     34                     35                     36
                      A                      A                      A
 Frequencies --    810.2240               898.7226               902.9797
 Red. masses --      2.7259                 1.4031                 1.4704
 Frc consts  --      1.0543                 0.6677                 0.7064
 IR Inten    --    104.7344                 5.9640                 3.2538

                     37                     38                     39
                      A                      A                      A
 Frequencies --    908.0143               954.1422               976.4579
 Red. masses --      1.4588                 5.5657                 3.1063
 Frc consts  --      0.7087                 2.9854                 1.7450
 IR Inten    --      1.5759                 0.4393                 2.1014

                     40                     41                     42
                      A                      A                      A
 Frequencies --    993.7870              1000.5197              1009.3489
 Red. masses --      1.5259                 1.6263                 1.4146
 Frc consts  --      0.8879                 0.9592                 0.8491
 IR Inten    --      1.2542                 5.5134                 0.8037

                     43                     44                     45
                      A                      A                      A
 Frequencies --   1018.5437              1024.4249              1028.0567
 Red. masses --      6.0006                 1.3480                 1.3417
 Frc consts  --      3.6678                 0.8335                 0.8355
 IR Inten    --     28.6675                 0.3401                 0.1813

                     46                     47                     48
                      A                      A                      A
 Frequencies --   1040.2507              1071.7131              1072.0865
 Red. masses --      1.3428                 2.3442                 2.4455
 Frc consts  --      0.8561                 1.5863                 1.6560
 IR Inten    --      0.1648                 8.7565                29.1161

                     49                     50                     51
                      A                      A                      A
 Frequencies --   1089.6403              1100.9289              1117.1687
 Red. masses --      2.1891                 3.1450                 3.3195
 Frc consts  --      1.5314                 2.2459                 2.4409
 IR Inten    --     11.1648                 5.2998                21.6999

                     52                     53                     54
                      A                      A                      A
 Frequencies --   1139.4386              1158.7256              1164.5123
 Red. masses --      1.4491                 1.5994                 1.5707
 Frc consts  --      1.1085                 1.2652                 1.2550
 IR Inten    --      1.5599                20.6022                 5.2130

                     55                     56                     57
                      A                      A                      A
 Frequencies --   1179.4448              1180.1049              1183.4780
 Red. masses --      1.1481                 1.1335                 1.1728
 Frc consts  --      0.9410                 0.9301                 0.9678
 IR Inten    --      2.2988                 0.2427                30.8108

                     58                     59                     60
                      A                      A                      A
 Frequencies --   1244.1977              1275.1054              1300.5323
 Red. masses --      2.9758                 1.8796                 4.7783
 Frc consts  --      2.7141                 1.8006                 4.7617
 IR Inten    --     12.0557                36.4111                56.0600

                     61                     62                     63
                      A                      A                      A
 Frequencies --   1306.5928              1310.7145              1316.8133
 Red. masses --      1.7557                 4.8873                 5.6756
 Frc consts  --      1.7660                 4.9470                 5.7985
 IR Inten    --    114.0685                26.3991                20.0525

                     64                     65                     66
                      A                      A                      A
 Frequencies --   1321.9614              1365.3764              1373.0425
 Red. masses --      2.0500                 3.1893                 2.2034
 Frc consts  --      2.1108                 3.5031                 2.4475
 IR Inten    --      6.5181               522.7504               107.1966

                     67                     68                     69
                      A                      A                      A
 Frequencies --   1480.2022              1495.0732              1502.0678
 Red. masses --      2.3020                 2.2894                 2.4878
 Frc consts  --      2.9716                 3.0151                 3.3071
 IR Inten    --    374.8070               101.8968                24.8992

                     70                     71                     72
                      A                      A                      A
 Frequencies --   1519.3244              1527.3612              1538.3331
 Red. masses --      2.6574                 2.5031                 2.7636
 Frc consts  --      3.6142                 3.4405                 3.8533
 IR Inten    --    248.9815               276.4962                93.3503

                     73                     74                     75
                      A                      A                      A
 Frequencies --   1639.0489              1647.6123              1657.2702
 Red. masses --      6.3202                 6.6682                 7.1427
 Frc consts  --     10.0038                10.6652                11.5584
 IR Inten    --     84.0419                32.1881                30.7226

                     76                     77                     78
                      A                      A                      A
 Frequencies --   1660.5166              1663.2307              1679.7921
 Red. masses --      6.2360                 5.7908                 6.3804
 Frc consts  --     10.1308                 9.4382                10.6075
 IR Inten    --     11.6455               278.7591                98.8413

                     79                     80                     81
                      A                      A                      A
 Frequencies --   3176.7243              3200.1649              3200.7619
 Red. masses --      1.0910                 1.0876                 1.0877
 Frc consts  --      6.4868                 6.5626                 6.5652
 IR Inten    --     31.7088                 0.3119                 0.1253

                     82                     83                     84
                      A                      A                      A
 Frequencies --   3204.5072              3207.9092              3208.5096
 Red. masses --      1.0908                 1.0908                 1.0917
 Frc consts  --      6.5998                 6.6138                 6.6215
 IR Inten    --      8.2988                 3.6574                 5.3635

                     85                     86                     87
                      A                      A                      A
 Frequencies --   3216.7663              3219.7124              3224.5991
 Red. masses --      1.0944                 1.0965                 1.0985
 Frc consts  --      6.6719                 6.6974                 6.7295
 IR Inten    --     10.2240                14.9707                 7.1377

                     88                     89                     90
                      A                      A                      A
 Frequencies --   3229.5520              3234.8571              3254.0421
 Red. masses --      1.0966                 1.0953                 1.0933
 Frc consts  --      6.7386                 6.7528                 6.8206
 IR Inten    --      7.9650                 2.5103                 0.6543

 - Thermochemistry -
 -------------------
 Temperature   298.150 Kelvin.  Pressure   1.00000 Atm.
 Atom     1 has atomic number  6 and mass  12.00000

 Molecular mass:   276.07212 amu.
 Principal axes and moments of inertia in atomic units:
                           1         2         3
     Eigenvalues --  4688.859265106.845898258.52025
           X            0.99596  -0.08625  -0.02506
           Y            0.08616   0.99627  -0.00461
           Z            0.02537   0.00243   0.99968
 This molecule is an asymmetric top.
 Rotational symmetry number  1.
 Warning -- assumption of classical behavior for rotation
           may cause significant error
 Rotational temperatures (Kelvin)      0.01847     0.01696     0.01049
 Rotational constants (GHZ):           0.38490     0.35340     0.21853
 Zero-point vibrational energy     655438.5 (Joules/Mol)
                                  156.65356 (Kcal/Mol)
 Warning -- explicit consideration of  22 degrees of freedom as
           vibrations may cause significant error
 Vibrational temperatures:     54.96    68.30    97.65   119.66   206.85
          (Kelvin)            228.38   263.93   332.07   374.59   468.84
                              475.73   517.12   577.93   581.81   616.02
                              661.48   668.56   697.23   756.96   793.18
                              794.27   847.49   919.44   939.81   955.33
                             1020.20  1042.37  1103.67  1107.14  1111.06
                             1126.05  1130.67  1147.01  1165.73  1293.06
                             1299.18  1306.43  1372.80  1404.90  1429.84
                             1439.52  1452.23  1465.46  1473.92  1479.14
                             1496.69  1541.95  1542.49  1567.75  1583.99
                             1607.35  1639.40  1667.15  1675.47  1696.96
                             1697.91  1702.76  1790.12  1834.59  1871.17
                             1879.89  1885.82  1894.60  1902.01  1964.47
                             1975.50  2129.68  2151.07  2161.14  2185.97
                             2197.53  2213.32  2358.22  2370.54  2384.44
                             2389.11  2393.01  2416.84  4570.59  4604.32
                             4605.18  4610.57  4615.46  4616.32  4628.20
                             4632.44  4639.47  4646.60  4654.23  4681.83

 Zero-point correction=                           0.249643 (Hartree/Particle)
 Thermal correction to Energy=                    0.264176
 Thermal correction to Enthalpy=                  0.265120
 Thermal correction to Gibbs Free Energy=         0.207130
 Sum of electronic and zero-point Energies=          -1162.418411
 Sum of electronic and thermal Energies=             -1162.403879
 Sum of electronic and thermal Enthalpies=           -1162.402934
 Sum of electronic and thermal Free Energies=        -1162.460924

                     E (Thermal)             CV                S
                      KCal/Mol        Cal/Mol-Kelvin    Cal/Mol-Kelvin
 Total                  165.773             59.399            122.049
 Electronic               0.000              0.000              0.000
 Translational            0.889              2.981             42.745
 Rotational               0.889              2.981             33.647
 Vibrational            163.995             53.437             45.658
 Vibration     1          0.594              1.982              5.350
 Vibration     2          0.595              1.979              4.920
 Vibration     3          0.598              1.970              4.214
 Vibration     4          0.600              1.961              3.815
 Vibration     5          0.616              1.909              2.753
 Vibration     6          0.621              1.893              2.565
 Vibration     7          0.631              1.862              2.293
 Vibration     8          0.653              1.794              1.873
 Vibration     9          0.668              1.745              1.659
 Vibration    10          0.710              1.624              1.281
 Vibration    11          0.713              1.614              1.257
 Vibration    12          0.734              1.556              1.125
 Vibration    13          0.767              1.466              0.956
 Vibration    14          0.770              1.461              0.947
 Vibration    15          0.790              1.409              0.865
 Vibration    16          0.818              1.339              0.767
 Vibration    17          0.822              1.328              0.753
 Vibration    18          0.841              1.284              0.698
 Vibration    19          0.881              1.192              0.596
 Vibration    20          0.907              1.137              0.542
 Vibration    21          0.907              1.135              0.540
 Vibration    22          0.946              1.055              0.469

 Optimization completed.
    -- Stationary point found.
 Normal termination of Gaussian 09 at Thu Feb 25 23:47:44 2021.
 Gaussian 09:  ES64L-G09RevE.01 30-Nov-2015

 ----------------------------------------------------------------------
 #p cam-b3lyp chkbasis geom=allcheck Guess=Read int=ultrafine scrf=(SMD
 ,solvent=n,n-DiMethylAcetamide) td=(NStates=30) EmpiricalDispersion=GD
 3BJ
 ----------------------------------------------------------------------

 Structure from the checkpoint file:  "cp.chk"
 -----
 Title
 -----
 Charge =  0 Multiplicity = 1

                         Standard orientation:
 ---------------------------------------------------------------------
 Center     Atomic      Atomic             Coordinates (Angstroms)
 Number     Number       Type             X           Y           Z
 ---------------------------------------------------------------------
      1          6           0        1.703618    3.650872    0.328980
      2          6           0        2.068138    2.632933   -0.532560
      3          6           0        1.385492    1.424954   -0.498009
      4          6           0        0.345562    1.230677    0.404129
      5          6           0        0.017267    2.240020    1.296242
      6          6           0        0.684804    3.450074    1.249190
      7          6           0        0.520647   -1.166414    0.425522
      8          6           0        1.574234   -1.237577   -0.479017
      9          6           0        2.411162   -2.344001   -0.491565
     10          1           0        3.236330   -2.386785   -1.190464
     11          6           0        2.188712   -3.383010    0.393959
     12          6           0        1.157199   -3.300889    1.317621
     13          6           0        0.336031   -2.188229    1.344273
     14          1           0        2.884766    2.769624   -1.229473
     15          1           0       -0.772977    2.074390    2.013625
     16          1           0        0.413082    4.238209    1.938808
     17          1           0        2.836591   -4.249298    0.376875
     18          1           0        0.997459   -4.102008    2.026829
     19          6           0       -1.670052   -0.123410    0.061341
     20          6           0       -2.261521   -1.360283   -0.234320
     21          6           0       -3.594355   -1.385294   -0.570227
     22          6           0       -3.649104    0.962751   -0.321838
     23          6           0       -4.321963   -0.202546   -0.613265
     24          1           0       -4.066730   -2.330381   -0.806093
     25          1           0       -4.162354    1.917805   -0.352120
     26          1           0       -1.688865   -2.273064   -0.214820
     27          1           0       -5.371125   -0.187614   -0.871407
     28          1           0        2.230170    4.595501    0.296400
     29          7           0       -0.323833   -0.024424    0.406947
     30          1           0       -0.465656   -2.111484    2.066484
     31         16           0        1.833760    0.109737   -1.589667
     32          7           0       -2.359891    1.008074    0.006952
 ---------------------------------------------------------------------

 SCF Done:  E(RCAM-B3LYP) =  -1162.66806418     A.U. after    7 cycles

 Excitation energies and oscillator strengths:

 Excited State   1:      Singlet-A      4.5932 eV  269.93 nm  f=0.1845  <S**2>=0.000
      71 -> 73        -0.20614
      72 -> 73         0.62132
      72 -> 74         0.12171
      72 -> 75         0.11605
 This state for optimization and/or second-order correction.
 Total Energy, E(TD-HF/TD-KS) =  -1162.49926754
 Copying the excited state density for this state as the 1-particle RhoCI density.

 Excited State   2:      Singlet-A      4.6737 eV  265.28 nm  f=0.1037  <S**2>=0.000
      72 -> 74         0.60448
      72 -> 75        -0.25274

 Excited State   3:      Singlet-A      4.7178 eV  262.80 nm  f=0.0215  <S**2>=0.000
      71 -> 75         0.13525
      72 -> 73        -0.13242
      72 -> 74         0.26245
      72 -> 75         0.53951
      72 -> 76        -0.18860

 Excited State   4:      Singlet-A      4.9255 eV  251.72 nm  f=0.0919  <S**2>=0.000
      70 -> 76        -0.10928
      71 -> 74         0.28638
      72 -> 75         0.17758
      72 -> 76         0.55700

 Excited State   5:      Singlet-A      5.0729 eV  244.41 nm  f=0.0082  <S**2>=0.000
      68 -> 73         0.10379
      68 -> 75        -0.10804
      69 -> 74        -0.19679
      70 -> 76         0.17477
      71 -> 73        -0.18289
      71 -> 74         0.10670
      71 -> 75        -0.30686
      71 -> 77         0.13002
      72 -> 77         0.42801

 Excited State   6:      Singlet-A      5.3642 eV  231.13 nm  f=0.0228  <S**2>=0.000
      67 -> 73         0.39513
      67 -> 76         0.10287
      67 -> 77         0.14087
      69 -> 73         0.16674
      70 -> 73         0.33858
      70 -> 75         0.12978
      70 -> 77         0.11561
      71 -> 73         0.15401
      71 -> 74         0.16869
      71 -> 75        -0.12243
      72 -> 76        -0.13851

 Excited State   7:      Singlet-A      5.3804 eV  230.44 nm  f=0.2323  <S**2>=0.000
      67 -> 73         0.17885
      70 -> 73         0.22628
      71 -> 73        -0.16795
      71 -> 74        -0.18188
      71 -> 75         0.32749
      71 -> 79         0.13275
      72 -> 76         0.16551
      72 -> 77         0.29508
      72 -> 78         0.11217
      72 -> 79         0.16040

 Excited State   8:      Singlet-A      5.4281 eV  228.41 nm  f=0.2220  <S**2>=0.000
      71 -> 73         0.10163
      71 -> 74         0.32115
      71 -> 75         0.16839
      71 -> 76        -0.28260
      71 -> 79         0.16777
      72 -> 75        -0.19872
      72 -> 76        -0.15107
      72 -> 77         0.22304
      72 -> 78        -0.12516
      72 -> 79         0.20289

 Excited State   9:      Singlet-A      5.6271 eV  220.33 nm  f=0.1681  <S**2>=0.000
      71 -> 73        -0.19013
      71 -> 74         0.37124
      71 -> 75         0.23176
      71 -> 76         0.38622
      72 -> 76        -0.15549
      72 -> 78         0.17058

 Excited State  10:      Singlet-A      5.7524 eV  215.53 nm  f=0.2964  <S**2>=0.000
      71 -> 75        -0.21171
      71 -> 76         0.23371
      71 -> 79         0.31460
      72 -> 77        -0.17547
      72 -> 78         0.13633
      72 -> 79         0.38548

 Excited State  11:      Singlet-A      5.7986 eV  213.82 nm  f=0.0385  <S**2>=0.000
      70 -> 74         0.16177
      70 -> 76        -0.11444
      71 -> 73         0.29964
      71 -> 77        -0.23580
      72 -> 75         0.10428
      72 -> 77         0.22639
      72 -> 78         0.39738

 Excited State  12:      Singlet-A      5.8666 eV  211.34 nm  f=0.0316  <S**2>=0.000
      67 -> 78        -0.18909
      69 -> 74        -0.11444
      70 -> 73        -0.10450
      70 -> 74        -0.26478
      70 -> 78        -0.10351
      71 -> 76        -0.23708
      71 -> 77         0.17510
      71 -> 78        -0.15438
      72 -> 78         0.39429

 Excited State  13:      Singlet-A      5.9473 eV  208.47 nm  f=0.0132  <S**2>=0.000
      67 -> 74         0.22410
      67 -> 78         0.26650
      69 -> 78         0.11400
      70 -> 74         0.21679
      70 -> 76        -0.12224
      70 -> 78         0.23707
      71 -> 73        -0.23437
      71 -> 76        -0.20758
      71 -> 77         0.15682
      72 -> 77        -0.14127
      72 -> 78         0.17557

 Excited State  14:      Singlet-A      6.0910 eV  203.55 nm  f=0.0058  <S**2>=0.000
      67 -> 74         0.11858
      68 -> 73        -0.14184
      69 -> 75        -0.12869
      70 -> 76         0.17027
      70 -> 78         0.14262
      71 -> 73         0.31346
      71 -> 75         0.22067
      71 -> 77         0.28070
      72 -> 73         0.20780
      72 -> 76         0.13935

 Excited State  15:      Singlet-A      6.2328 eV  198.92 nm  f=0.0956  <S**2>=0.000
      65 -> 74        -0.11819
      68 -> 73         0.15080
      68 -> 75        -0.19807
      69 -> 74        -0.20456
      69 -> 77        -0.15478
      70 -> 73        -0.10363
      70 -> 74         0.24391
      70 -> 75         0.29246
      71 -> 74        -0.20548
      71 -> 75         0.19214
      72 -> 74        -0.10359
      72 -> 77        -0.12022

 Excited State  16:      Singlet-A      6.2938 eV  197.00 nm  f=0.1674  <S**2>=0.000
      67 -> 74        -0.10412
      69 -> 73        -0.12373
      69 -> 74        -0.10791
      69 -> 76         0.12523
      69 -> 77         0.11551
      70 -> 74         0.27388
      70 -> 75        -0.12500
      70 -> 76         0.32036
      70 -> 77        -0.12565
      71 -> 74         0.15772
      71 -> 76        -0.20255
      71 -> 77        -0.13994
      72 -> 77        -0.13614
      72 -> 79        -0.10414

 Excited State  17:      Singlet-A      6.4115 eV  193.38 nm  f=0.1114  <S**2>=0.000
      67 -> 74        -0.11475
      68 -> 74        -0.10419
      69 -> 73        -0.14820
      69 -> 74        -0.13149
      69 -> 75         0.18011
      69 -> 76         0.10703
      70 -> 73         0.13097
      70 -> 74         0.21038
      70 -> 76        -0.27518
      70 -> 78        -0.18409
      71 -> 77         0.36279

 Excited State  18:      Singlet-A      6.4682 eV  191.68 nm  f=0.0407  <S**2>=0.000
      67 -> 73        -0.12417
      68 -> 74         0.24385
      69 -> 74         0.10608
      69 -> 75        -0.29209
      69 -> 76         0.18266
      70 -> 73         0.15896
      70 -> 75         0.31503
      70 -> 77        -0.27656
      71 -> 76        -0.10708

 Excited State  19:      Singlet-A      6.6753 eV  185.73 nm  f=0.0864  <S**2>=0.000
      66 -> 73         0.23718
      68 -> 74        -0.18600
      69 -> 73         0.23992
      69 -> 74         0.14446
      70 -> 73        -0.12307
      70 -> 75         0.13503
      71 -> 78         0.38305
      72 -> 78         0.16113

 Excited State  20:      Singlet-A      6.7180 eV  184.56 nm  f=0.0367  <S**2>=0.000
      66 -> 73        -0.12705
      68 -> 78         0.11351
      69 -> 73         0.13855
      69 -> 74         0.31239
      69 -> 76        -0.18750
      70 -> 74         0.19591
      70 -> 76         0.18020
      71 -> 77         0.17853
      71 -> 78        -0.29850
      72 -> 78        -0.11612
      72 -> 79         0.15154

 Excited State  21:      Singlet-A      6.7624 eV  183.34 nm  f=0.0515  <S**2>=0.000
      66 -> 74         0.15030
      66 -> 78         0.18713
      67 -> 73        -0.12416
      68 -> 73         0.42913
      71 -> 73         0.20449
      71 -> 77         0.21028
      71 -> 79         0.15864
      72 -> 79        -0.14630

 Excited State  22:      Singlet-A      6.7885 eV  182.64 nm  f=0.4566  <S**2>=0.000
      65 -> 75         0.10061
      67 -> 73         0.13746
      68 -> 75        -0.11408
      68 -> 76        -0.10320
      69 -> 73        -0.16468
      69 -> 74         0.32232
      69 -> 75         0.19031
      69 -> 76         0.28390
      70 -> 73        -0.13061
      70 -> 75         0.12840
      70 -> 76         0.14254
      71 -> 79         0.16782
      72 -> 79        -0.17349

 Excited State  23:      Singlet-A      6.8604 eV  180.72 nm  f=0.1209  <S**2>=0.000
      68 -> 73        -0.12779
      68 -> 74        -0.11182
      68 -> 75         0.21222
      69 -> 73         0.12013
      69 -> 75        -0.13297
      69 -> 76        -0.13738
      71 -> 79         0.40053
      72 -> 79        -0.30739
      72 -> 80         0.13378

 Excited State  24:      Singlet-A      6.8769 eV  180.29 nm  f=0.2764  <S**2>=0.000
      66 -> 73         0.21830
      68 -> 74        -0.12907
      69 -> 73         0.11089
      69 -> 75        -0.16880
      69 -> 76         0.34361
      70 -> 73        -0.15281
      71 -> 78        -0.19961
      71 -> 79        -0.13652
      72 -> 79         0.10592
      72 -> 80         0.25090

 Excited State  25:      Singlet-A      6.9058 eV  179.54 nm  f=0.5441  <S**2>=0.000
      66 -> 73        -0.15300
      68 -> 74        -0.27268
      69 -> 73        -0.20995
      69 -> 75        -0.10843
      69 -> 76        -0.13001
      69 -> 77         0.18719
      70 -> 75         0.27774
      71 -> 78         0.13716
      72 -> 80         0.15493
      72 -> 81         0.13983

 Excited State  26:      Singlet-A      6.9723 eV  177.82 nm  f=0.0223  <S**2>=0.000
      66 -> 73        -0.17509
      68 -> 74         0.12628
      70 -> 75        -0.10614
      71 -> 78         0.18543
      71 -> 80        -0.15529
      72 -> 80         0.42426
      72 -> 81        -0.28941
      72 -> 83         0.20913

 Excited State  27:      Singlet-A      6.9962 eV  177.22 nm  f=0.2980  <S**2>=0.000
      66 -> 73         0.18704
      67 -> 73        -0.17098
      67 -> 74         0.13559
      69 -> 75         0.28625
      69 -> 76        -0.12006
      69 -> 77        -0.11113
      70 -> 73         0.25205
      70 -> 74        -0.10186
      70 -> 75         0.12993
      70 -> 76         0.14706
      70 -> 77        -0.13548
      72 -> 80         0.28217

 Excited State  28:      Singlet-A      7.0235 eV  176.53 nm  f=0.0114  <S**2>=0.000
      68 -> 74         0.21540
      68 -> 75        -0.12676
      70 -> 75        -0.18565
      71 -> 78         0.22612
      71 -> 80         0.10735
      71 -> 81         0.12383
      72 -> 80         0.10298
      72 -> 81         0.37028
      72 -> 82         0.12167
      72 -> 83        -0.19759
      72 -> 84         0.13043

 Excited State  29:      Singlet-A      7.1158 eV  174.24 nm  f=0.0681  <S**2>=0.000
      67 -> 73         0.25867
      67 -> 74         0.11115
      67 -> 75         0.10709
      68 -> 74         0.20164
      68 -> 75         0.23172
      69 -> 75         0.29240
      70 -> 73        -0.28933
      70 -> 77        -0.23127

 Excited State  30:      Singlet-A      7.1963 eV  172.29 nm  f=0.1515  <S**2>=0.000
      66 -> 73        -0.17846
      67 -> 73        -0.13227
      67 -> 74        -0.12757
      67 -> 75        -0.17641
      67 -> 77         0.14281
      67 -> 78         0.14758
      68 -> 75         0.37266
      68 -> 76        -0.13850
      69 -> 73         0.10967
      69 -> 74        -0.15370
      69 -> 75         0.11192
      70 -> 76         0.16836
      70 -> 78         0.17483

 The electronic state is 1-A.
 Alpha  occ. eigenvalues --  -88.94261 -14.42449 -14.37878 -10.32684 -10.29562
 Alpha  occ. eigenvalues --  -10.29387 -10.28558 -10.28397 -10.27756 -10.25869
 Alpha  occ. eigenvalues --  -10.25516 -10.25312 -10.25268 -10.25042 -10.24976
 Alpha  occ. eigenvalues --  -10.24975 -10.24840 -10.24729 -10.24567 -10.23902
 Alpha  occ. eigenvalues --   -8.02074  -5.98497  -5.98135  -5.97583  -1.08086
 Alpha  occ. eigenvalues --   -1.02054  -0.95709  -0.94992  -0.89455  -0.88635
 Alpha  occ. eigenvalues --   -0.85014  -0.84576  -0.83847  -0.81157  -0.77077
 Alpha  occ. eigenvalues --   -0.72498  -0.72225  -0.69142  -0.68259  -0.68137
 Alpha  occ. eigenvalues --   -0.64389  -0.61919  -0.61558  -0.57326  -0.56327
 Alpha  occ. eigenvalues --   -0.55463  -0.54238  -0.53489  -0.53300  -0.51551
 Alpha  occ. eigenvalues --   -0.51150  -0.50211  -0.49329  -0.49123  -0.47703
 Alpha  occ. eigenvalues --   -0.46510  -0.45441  -0.45005  -0.44330  -0.43116
 Alpha  occ. eigenvalues --   -0.42339  -0.41146  -0.40692  -0.38699  -0.36666
 Alpha  occ. eigenvalues --   -0.34762  -0.33747  -0.32634  -0.31925  -0.30854
 Alpha  occ. eigenvalues --   -0.28043  -0.25854
 Alpha virt. eigenvalues --    0.01428   0.01610   0.02189   0.02464   0.03819
 Alpha virt. eigenvalues --    0.05030   0.07119   0.09285   0.10404   0.11478
 Alpha virt. eigenvalues --    0.11621   0.11785   0.12735   0.13779   0.14176

 Mulliken charges:
               1
     1  C   -0.187263
     2  C   -0.165817
     3  C   -0.048228
     4  C    0.230124
     5  C   -0.317529
     6  C   -0.116117
     7  C    0.166879
     8  C   -0.037515
     9  C   -0.168881
    10  H    0.166872
    11  C   -0.178915
    12  C   -0.111829
    13  C   -0.300937
    14  H    0.165762
    15  H    0.159892
    16  H    0.167551
    17  H    0.169624
    18  H    0.169590
    19  C    0.293024
    20  C   -0.275039
    21  C   -0.128452
    22  C   -0.097102
    23  C   -0.203855
    24  H    0.175648
    25  H    0.162198
    26  H    0.193217
    27  H    0.167394
    28  H    0.168128
    29  N   -0.034970
    30  H    0.178681
    31  S   -0.030961
    32  N   -0.331172
 Sum of Mulliken charges =  -0.00000

 Dipole moment (field-independent basis, Debye):
    X=             -0.3907    Y=             -2.6234    Z=              1.3725  Tot=              2.9864
 Quadrupole moment (field-independent basis, Debye-Ang):
   XX=           -109.5077   YY=           -103.3907   ZZ=           -122.9602
   XY=              3.0581   XZ=             -1.2350   YZ=             -0.0461

 Normal termination of Gaussian 09 at Fri Feb 26 01:26:22 2021.
