 Gaussian 09, Revision E.01,

 ----------------------------------------------------------------------
 #p PBEPBE/def2TZVP opt freq=noraman nosymm int=ultrafine scrf=(SMD,sol
 vent=n,n-DiMethylAcetamide) EmpiricalDispersion=GD3BJ
 ----------------------------------------------------------------------

 -----
 Title
 -----
 Symbolic Z-matrix:
 Charge =  0 Multiplicity = 1

 SCF Done:  E(RPBE-PBE) =  -1161.95908352     A.U. after   13 cycles
 SCF Done:  E(RPBE-PBE) =  -1161.95944205     A.U. after   10 cycles
 SCF Done:  E(RPBE-PBE) =  -1161.95964495     A.U. after   10 cycles
 SCF Done:  E(RPBE-PBE) =  -1161.95972338     A.U. after   10 cycles
 SCF Done:  E(RPBE-PBE) =  -1161.95975907     A.U. after   10 cycles
 SCF Done:  E(RPBE-PBE) =  -1161.95977102     A.U. after    9 cycles
 SCF Done:  E(RPBE-PBE) =  -1161.95977249     A.U. after    8 cycles
 SCF Done:  E(RPBE-PBE) =  -1161.95977293     A.U. after    8 cycles
 SCF Done:  E(RPBE-PBE) =  -1161.95977315     A.U. after    7 cycles
 SCF Done:  E(RPBE-PBE) =  -1161.95977320     A.U. after    6 cycles
 Optimization completed.
    -- Stationary point found.
 Normal termination of Gaussian 09 at Sat Mar 27 21:20:43 2021.

 ---------------------------------------------------------------------
 #P Geom=AllCheck Guess=TCheck SCRF=Check GenChk RPBEPBE/def2TZVP Freq
 ---------------------------------------------------------------------

 Structure from the checkpoint file:  "cp.chk"
 -----
 Title
 -----
 Charge =  0 Multiplicity = 1

 SCF Done:  E(RPBE-PBE) =  -1161.95977320     A.U. after    2 cycles

  Exact polarizability: 404.334   3.315 440.739 -27.877  -2.806 254.100
 Approx polarizability: 523.388   6.521 569.652 -56.768  -5.383 353.258

                      1                      2                      3
                      A                      A                      A
 Frequencies --     42.3325                50.7346                65.2435
 Red. masses --      5.3691                 4.7992                 5.8596
 Frc consts  --      0.0057                 0.0073                 0.0147
 IR Inten    --      1.1873                 5.2062                 2.2186

                      4                      5                      6
                      A                      A                      A
 Frequencies --     78.4051               138.7180               151.7384
 Red. masses --      4.7071                 4.2503                 4.3531
 Frc consts  --      0.0170                 0.0482                 0.0591
 IR Inten    --      0.7813                 2.5552                 1.9242

                      7                      8                      9
                      A                      A                      A
 Frequencies --    169.6343               216.4697               246.6199
 Red. masses --      5.7285                 6.0795                 5.2704
 Frc consts  --      0.0971                 0.1678                 0.1889
 IR Inten    --      1.0336                 5.5848                 2.1830

                     10                     11                     12
                      A                      A                      A
 Frequencies --    309.7398               313.7500               344.1924
 Red. masses --      5.6229                 5.4405                 6.6819
 Frc consts  --      0.3178                 0.3155                 0.4664
 IR Inten    --      6.8947                 4.3177                 4.2323

                     13                     14                     15
                      A                      A                      A
 Frequencies --    377.6151               384.4316               403.2752
 Red. masses --      8.8950                 5.0727                 3.6136
 Frc consts  --      0.7473                 0.4417                 0.3463
 IR Inten    --      2.0698                 3.0856                 7.3445

                     16                     17                     18
                      A                      A                      A
 Frequencies --    437.4474               439.2861               455.1849
 Red. masses --      4.1453                 6.5882                 3.6983
 Frc consts  --      0.4674                 0.7491                 0.4515
 IR Inten    --      0.3946                 1.6713                32.8356

                     19                     20                     21
                      A                      A                      A
 Frequencies --    494.4439               520.1718               522.3212
 Red. masses --      3.0251                 5.3336                 4.2843
 Frc consts  --      0.4357                 0.8503                 0.6887
 IR Inten    --      5.1392                 2.9354                 1.3848

                     22                     23                     24
                      A                      A                      A
 Frequencies --    554.3249               607.3503               622.2000
 Red. masses --      4.5434                 6.8270                 6.7085
 Frc consts  --      0.8225                 1.4837                 1.5302
 IR Inten    --      7.6633                15.6909                 9.7147

                     25                     26                     27
                      A                      A                      A
 Frequencies --    632.1247               676.2798               689.5328
 Red. masses --      5.8758                 6.4821                 6.2904
 Frc consts  --      1.3833                 1.7467                 1.7621
 IR Inten    --     29.7373                 5.0023                 8.9722

                     28                     29                     30
                      A                      A                      A
 Frequencies --    722.1932               725.6624               729.8097
 Red. masses --      2.4911                 1.9418                 2.0832
 Frc consts  --      0.7655                 0.6025                 0.6537
 IR Inten    --     17.1283                79.3129                28.8236

                     31                     32                     33
                      A                      A                      A
 Frequencies --    736.6738               740.1568               747.5743
 Red. masses --      1.5954                 3.0156                 2.1473
 Frc consts  --      0.5101                 0.9734                 0.7070
 IR Inten    --     32.0904                82.4351                30.5244

                     34                     35                     36
                      A                      A                      A
 Frequencies --    760.1932               838.5011               845.0838
 Red. masses --      2.8136                 1.4216                 1.4077
 Frc consts  --      0.9580                 0.5889                 0.5923
 IR Inten    --     82.4240                 2.5634                 3.5994

                     37                     38                     39
                      A                      A                      A
 Frequencies --    848.9124               908.9076               912.9059
 Red. masses --      1.3642                 3.7286                 1.5127
 Frc consts  --      0.5793                 1.8148                 0.7427
 IR Inten    --      2.0295                 0.0666                 2.9558

                     40                     41                     42
                      A                      A                      A
 Frequencies --    924.0696               938.7512               939.4550
 Red. masses --      1.6219                 1.4669                 3.6267
 Frc consts  --      0.8160                 0.7616                 1.8859
 IR Inten    --      1.6300                 0.8980                 2.2072

                     43                     44                     45
                      A                      A                      A
 Frequencies --    943.8630               948.6443               967.6504
 Red. masses --      1.2767                 1.3058                 1.5464
 Frc consts  --      0.6701                 0.6924                 0.8531
 IR Inten    --      0.0514                 0.2370                10.5164

                     46                     47                     48
                      A                      A                      A
 Frequencies --    970.5386              1028.2451              1030.1221
 Red. masses --      3.6147                 2.8930                 2.3806
 Frc consts  --      2.0061                 1.8022                 1.4884
 IR Inten    --     20.6325                47.0821                12.2641

                     49                     50                     51
                      A                      A                      A
 Frequencies --   1046.5069              1047.1914              1064.7121
 Red. masses --      2.3157                 2.7176                 3.5150
 Frc consts  --      1.4942                 1.7558                 2.3477
 IR Inten    --     10.4185                 4.6426                25.5934

                     52                     53                     54
                      A                      A                      A
 Frequencies --   1091.4337              1109.4231              1116.9691
 Red. masses --      1.4357                 1.5804                 1.5218
 Frc consts  --      1.0076                 1.1461                 1.1186
 IR Inten    --      1.3618                29.4696                 5.8491

                     55                     56                     57
                      A                      A                      A
 Frequencies --   1134.9060              1135.2882              1138.5554
 Red. masses --      1.0722                 1.0723                 1.1006
 Frc consts  --      0.8137                 0.8143                 0.8406
 IR Inten    --      0.0850                 0.1643                21.5018

                     58                     59                     60
                      A                      A                      A
 Frequencies --   1194.1328              1217.0982              1245.2571
 Red. masses --      2.9174                 1.8526                 1.6116
 Frc consts  --      2.4510                 1.6169                 1.4724
 IR Inten    --     14.1444                48.5394               126.9074

                     61                     62                     63
                      A                      A                      A
 Frequencies --   1257.6492              1301.9041              1310.7908
 Red. masses --      1.8322                 2.3900                 3.5642
 Frc consts  --      1.7074                 2.3868                 3.6081
 IR Inten    --     47.3042               321.3830               307.5408

                     64                     65                     66
                      A                      A                      A
 Frequencies --   1317.7508              1335.5328              1341.9604
 Red. masses --      5.2944                 9.0520                10.1888
 Frc consts  --      5.4167                 9.5127                10.8107
 IR Inten    --     17.3141                 1.2236                25.4653

                     67                     68                     69
                      A                      A                      A
 Frequencies --   1410.4699              1423.0380              1431.6529
 Red. masses --      2.3194                 2.3055                 2.5393
 Frc consts  --      2.7186                 2.7508                 3.0665
 IR Inten    --    360.4944               130.5162                23.8106

                     70                     71                     72
                      A                      A                      A
 Frequencies --   1442.4352              1452.6238              1464.4543
 Red. masses --      2.6817                 2.4826                 2.8013
 Frc consts  --      3.2874                 3.0865                 3.5397
 IR Inten    --    266.9826               255.5796                94.8438

                     73                     74                     75
                      A                      A                      A
 Frequencies --   1554.1727              1564.5450              1570.0137
 Red. masses --      6.1155                 6.6109                 6.3331
 Frc consts  --      8.7032                 9.5342                 9.1975
 IR Inten    --     77.8666                 6.4071                 1.0627

                     76                     77                     78
                      A                      A                      A
 Frequencies --   1573.7977              1576.7624              1593.3014
 Red. masses --      7.2173                 5.8668                 6.4930
 Frc consts  --     10.5322                 8.5938                 9.7116
 IR Inten    --     14.7090               279.5711               112.7708

                     79                     80                     81
                      A                      A                      A
 Frequencies --   3076.4992              3109.8786              3110.6173
 Red. masses --      1.0896                 1.0860                 1.0860
 Frc consts  --      6.0761                 6.1883                 6.1910
 IR Inten    --     44.7156                 0.1201                 0.2590

                     82                     83                     84
                      A                      A                      A
 Frequencies --   3113.1804              3117.6375              3118.0766
 Red. masses --      1.0888                 1.0891                 1.0904
 Frc consts  --      6.2172                 6.2368                 6.2461
 IR Inten    --      9.1213                 4.1731                 7.8775

                     85                     86                     87
                      A                      A                      A
 Frequencies --   3125.9137              3129.8017              3134.3549
 Red. masses --      1.0932                 1.0959                 1.0978
 Frc consts  --      6.2938                 6.3251                 6.3544
 IR Inten    --     14.6570                21.3160                10.5276

                     88                     89                     90
                      A                      A                      A
 Frequencies --   3137.0936              3148.3053              3148.5505
 Red. masses --      1.0949                 1.0937                 1.0932
 Frc consts  --      6.3486                 6.3869                 6.3853
 IR Inten    --     14.0602                 2.0565                 3.0302

 - Thermochemistry -
 -------------------
 Temperature   298.150 Kelvin.  Pressure   1.00000 Atm.
 Atom     1 has atomic number  6 and mass  12.00000

 Molecular mass:   276.07212 amu.
 Principal axes and moments of inertia in atomic units:
                           1         2         3
     Eigenvalues --  4709.218395235.348008504.98394
           X            0.99821  -0.05914  -0.00914
           Y            0.05910   0.99824  -0.00421
           Z            0.00937   0.00367   0.99995
 This molecule is an asymmetric top.
 Rotational symmetry number  1.
 Warning -- assumption of classical behavior for rotation
           may cause significant error
 Rotational temperatures (Kelvin)      0.01839     0.01654     0.01018
 Rotational constants (GHZ):           0.38324     0.34472     0.21220
 Zero-point vibrational energy     628552.2 (Joules/Mol)
                                  150.22758 (Kcal/Mol)
 Warning -- explicit consideration of  23 degrees of freedom as
           vibrations may cause significant error
 Vibrational temperatures:     60.91    73.00    93.87   112.81   199.58
          (Kelvin)            218.32   244.07   311.45   354.83   445.65
                              451.42   495.22   543.30   553.11   580.22
                              629.39   632.03   654.91   711.39   748.41
                              751.50   797.55   873.84   895.21   909.49
                              973.01   992.08  1039.07  1044.07  1050.03
                             1059.91  1064.92  1075.59  1093.75  1206.41
                             1215.89  1221.39  1307.71  1313.47  1329.53
                             1350.65  1351.66  1358.01  1364.89  1392.23
                             1396.39  1479.41  1482.11  1505.69  1506.67
                             1531.88  1570.33  1596.21  1607.07  1632.87
                             1633.42  1638.13  1718.09  1751.13  1791.64
                             1809.47  1873.15  1885.93  1895.95  1921.53
                             1930.78  2029.35  2047.43  2059.83  2075.34
                             2090.00  2107.02  2236.11  2251.03  2258.90
                             2264.34  2268.61  2292.40  4426.39  4474.42
                             4475.48  4479.17  4485.58  4486.21  4497.49
                             4503.08  4509.63  4513.57  4529.70  4530.06

 Zero-point correction=                           0.239403 (Hartree/Particle)
 Thermal correction to Energy=                    0.254683
 Thermal correction to Enthalpy=                  0.255628
 Thermal correction to Gibbs Free Energy=         0.196446
 Sum of electronic and zero-point Energies=          -1161.720370
 Sum of electronic and thermal Energies=             -1161.705090
 Sum of electronic and thermal Enthalpies=           -1161.704146
 Sum of electronic and thermal Free Energies=        -1161.763327

                     E (Thermal)             CV                S
                      KCal/Mol        Cal/Mol-Kelvin    Cal/Mol-Kelvin
 Total                  159.816             62.805            124.559
 Electronic               0.000              0.000              0.000
 Translational            0.889              2.981             42.745
 Rotational               0.889              2.981             33.705
 Vibrational            158.039             56.844             48.108
 Vibration     1          0.595              1.980              5.147
 Vibration     2          0.595              1.977              4.789
 Vibration     3          0.597              1.971              4.292
 Vibration     4          0.600              1.964              3.930
 Vibration     5          0.614              1.915              2.821
 Vibration     6          0.619              1.901              2.650
 Vibration     7          0.625              1.880              2.440
 Vibration     8          0.645              1.816              1.988
 Vibration     9          0.661              1.768              1.755
 Vibration    10          0.699              1.655              1.364
 Vibration    11          0.702              1.647              1.342
 Vibration    12          0.723              1.587              1.193
 Vibration    13          0.748              1.518              1.049
 Vibration    14          0.753              1.503              1.022
 Vibration    15          0.769              1.463              0.951
 Vibration    16          0.798              1.389              0.835
 Vibration    17          0.799              1.385              0.829
 Vibration    18          0.814              1.349              0.780
 Vibration    19          0.850              1.262              0.672
 Vibration    20          0.875              1.205              0.610
 Vibration    21          0.877              1.201              0.605
 Vibration    22          0.910              1.130              0.535
 Vibration    23          0.966              1.016              0.437

 Optimization completed.
    -- Stationary point found.
 Normal termination of Gaussian 09 at Sat Mar 27 22:37:28 2021.
 Gaussian 09:  ES64L-G09RevE.01 30-Nov-2015

 ----------------------------------------------------------------------
 #p PBEPBE chkbasis geom=allcheck Guess=Read int=ultrafine scrf=(SMD,so
 lvent=n,n-DiMethylAcetamide) td=(NStates=30) EmpiricalDispersion=GD3BJ
 ----------------------------------------------------------------------

 Structure from the checkpoint file:  "cp.chk"
 -----
 Title
 -----
 Charge =  0 Multiplicity = 1

                         Standard orientation:
 ---------------------------------------------------------------------
 Center     Atomic      Atomic             Coordinates (Angstroms)
 Number     Number       Type             X           Y           Z
 ---------------------------------------------------------------------
      1          6           0        1.805865    3.636403    0.367111
      2          6           0        2.207016    2.595433   -0.469679
      3          6           0        1.488082    1.394027   -0.474892
      4          6           0        0.372199    1.227172    0.362823
      5          6           0        0.012258    2.258289    1.238557
      6          6           0        0.717409    3.461955    1.228349
      7          6           0        0.477579   -1.184509    0.385970
      8          6           0        1.600894   -1.285087   -0.452035
      9          6           0        2.408567   -2.427898   -0.417905
     10          1           0        3.284099   -2.491510   -1.066586
     11          6           0        2.089929   -3.474540    0.447415
     12          6           0        0.994114   -3.362730    1.309747
     13          6           0        0.201829   -2.214910    1.292503
     14          1           0        3.077925    2.707549   -1.118054
     15          1           0       -0.831139    2.115103    1.912084
     16          1           0        0.417973    4.265843    1.902789
     17          1           0        2.714198   -4.369338    0.463877
     18          1           0        0.760290   -4.168204    2.007572
     19          6           0       -1.698260   -0.078396    0.014751
     20          6           0       -2.327370   -1.308000   -0.287682
     21          6           0       -3.681203   -1.300120   -0.590850
     22          6           0       -3.675329    1.066508   -0.308480
     23          6           0       -4.389360   -0.092215   -0.596173
     24          1           0       -4.182353   -2.239589   -0.832452
     25          1           0       -4.172191    2.041911   -0.317362
     26          1           0       -1.766419   -2.240148   -0.303812
     27          1           0       -5.454209   -0.051033   -0.825448
     28          1           0        2.359662    4.576685    0.362383
     29          7           0       -0.330679   -0.013700    0.316063
     30          1           0       -0.647611   -2.116060    1.969833
     31         16           0        1.981174    0.062299   -1.537435
     32          7           0       -2.367081    1.085657   -0.009354
 ---------------------------------------------------------------------

 SCF Done:  E(RPBE-PBE) =  -1161.95977535     A.U. after    6 cycles

 Excitation energies and oscillator strengths:

 Excited State   1:      Singlet-A      3.3805 eV  366.76 nm  f=0.0041  <S**2>=0.000
      71 -> 73         0.10316
      72 -> 73         0.59007
      72 -> 74         0.35430
 This state for optimization and/or second-order correction.
 Total Energy, E(TD-HF/TD-KS) =  -1161.83554400
 Copying the excited state density for this state as the 1-particle RhoCI density.

 Excited State   2:      Singlet-A      3.4304 eV  361.43 nm  f=0.1048  <S**2>=0.000
      72 -> 73        -0.32968
      72 -> 74         0.57399
      72 -> 75         0.13787
      72 -> 76         0.16112

 Excited State   3:      Singlet-A      3.4925 eV  355.00 nm  f=0.0074  <S**2>=0.000
      72 -> 75         0.67805
      72 -> 76        -0.14166

 Excited State   4:      Singlet-A      3.7131 eV  333.91 nm  f=0.1198  <S**2>=0.000
      71 -> 73        -0.11306
      72 -> 73         0.11530
      72 -> 74        -0.15088
      72 -> 75         0.10180
      72 -> 76         0.63813

 Excited State   5:      Singlet-A      3.8380 eV  323.04 nm  f=0.0259  <S**2>=0.000
      71 -> 73        -0.30081
      72 -> 77         0.61916

 Excited State   6:      Singlet-A      3.9860 eV  311.05 nm  f=0.0106  <S**2>=0.000
      71 -> 73         0.59461
      71 -> 75        -0.11465
      72 -> 73        -0.10251
      72 -> 76         0.13585
      72 -> 77         0.26973

 Excited State   7:      Singlet-A      4.0016 eV  309.83 nm  f=0.0064  <S**2>=0.000
      71 -> 74         0.67882
      72 -> 78        -0.12674

 Excited State   8:      Singlet-A      4.2258 eV  293.40 nm  f=0.1554  <S**2>=0.000
      70 -> 73         0.10420
      70 -> 74        -0.14932
      71 -> 75         0.64200
      72 -> 77         0.10517

 Excited State   9:      Singlet-A      4.3201 eV  286.99 nm  f=0.0066  <S**2>=0.000
      70 -> 73         0.25828
      70 -> 74         0.61622
      71 -> 77         0.12068
      72 -> 78         0.11399

 Excited State  10:      Singlet-A      4.3422 eV  285.54 nm  f=0.0226  <S**2>=0.000
      70 -> 73        -0.23608
      70 -> 75         0.15721
      71 -> 76         0.52320
      71 -> 78         0.13379
      72 -> 78         0.30197

 Excited State  11:      Singlet-A      4.3890 eV  282.49 nm  f=0.0615  <S**2>=0.000
      70 -> 73         0.57928
      70 -> 74        -0.21525
      71 -> 75        -0.13906
      71 -> 76         0.22061

 Excited State  12:      Singlet-A      4.4617 eV  277.89 nm  f=0.0112  <S**2>=0.000
      70 -> 75         0.43582
      70 -> 76         0.24844
      71 -> 77         0.45739

 Excited State  13:      Singlet-A      4.4925 eV  275.98 nm  f=0.0008  <S**2>=0.000
      68 -> 74         0.10384
      70 -> 74         0.11767
      70 -> 75         0.45910
      70 -> 76        -0.11895
      71 -> 77        -0.40737
      72 -> 78        -0.17380

 Excited State  14:      Singlet-A      4.5223 eV  274.16 nm  f=0.1360  <S**2>=0.000
      69 -> 75         0.12663
      70 -> 75         0.17347
      71 -> 76        -0.33623
      71 -> 78         0.19653
      72 -> 78         0.48231

 Excited State  15:      Singlet-A      4.6153 eV  268.64 nm  f=0.0176  <S**2>=0.000
      69 -> 73        -0.11092
      70 -> 76         0.59085
      71 -> 77        -0.19992
      72 -> 79         0.22646

 Excited State  16:      Singlet-A      4.6508 eV  266.59 nm  f=0.0032  <S**2>=0.000
      69 -> 73         0.10434
      70 -> 76        -0.18082
      72 -> 79         0.65957

 Excited State  17:      Singlet-A      4.7813 eV  259.31 nm  f=0.0282  <S**2>=0.000
      69 -> 73         0.59855
      69 -> 74         0.10188
      70 -> 76         0.10184
      70 -> 77        -0.29301

 Excited State  18:      Singlet-A      4.8371 eV  256.32 nm  f=0.0038  <S**2>=0.000
      67 -> 74         0.12092
      68 -> 73         0.19925
      69 -> 73         0.27368
      70 -> 77         0.58205

 Excited State  19:      Singlet-A      4.9241 eV  251.79 nm  f=0.0713  <S**2>=0.000
      67 -> 73         0.11415
      67 -> 74        -0.28465
      68 -> 74         0.14042
      69 -> 74        -0.15970
      71 -> 78         0.54015
      72 -> 78        -0.17907

 Excited State  20:      Singlet-A      4.9456 eV  250.70 nm  f=0.0439  <S**2>=0.000
      67 -> 75        -0.16667
      68 -> 73        -0.28897
      68 -> 76        -0.11876
      69 -> 74         0.54279
      71 -> 78         0.18920

 Excited State  21:      Singlet-A      5.0012 eV  247.91 nm  f=0.0192  <S**2>=0.000
      67 -> 73         0.27094
      67 -> 75        -0.19889
      68 -> 73         0.50509
      68 -> 74         0.12765
      69 -> 74         0.19763
      70 -> 77        -0.14149
      70 -> 78        -0.13194

 Excited State  22:      Singlet-A      5.0825 eV  243.94 nm  f=0.0061  <S**2>=0.000
      67 -> 73        -0.24859
      68 -> 74         0.54965
      68 -> 76        -0.16222
      69 -> 76         0.21644

 Excited State  23:      Singlet-A      5.1088 eV  242.69 nm  f=0.0261  <S**2>=0.000
      67 -> 73        -0.33460
      67 -> 75        -0.18044
      68 -> 73         0.12152
      68 -> 75         0.40077
      69 -> 75        -0.30799
      69 -> 76        -0.12190
      71 -> 78         0.11293

 Excited State  24:      Singlet-A      5.1800 eV  239.35 nm  f=0.0073  <S**2>=0.000
      67 -> 73         0.14639
      67 -> 74         0.17289
      67 -> 75        -0.16518
      70 -> 78         0.61748

 Excited State  25:      Singlet-A      5.2017 eV  238.35 nm  f=0.0033  <S**2>=0.000
      66 -> 74        -0.11343
      67 -> 73         0.22441
      67 -> 76        -0.34789
      68 -> 75         0.20592
      69 -> 75        -0.13940
      69 -> 76         0.36288
      69 -> 77        -0.22423
      71 -> 79         0.14946

 Excited State  26:      Singlet-A      5.2296 eV  237.08 nm  f=0.0443  <S**2>=0.000
      66 -> 74         0.10669
      67 -> 73        -0.17519
      67 -> 74         0.23106
      67 -> 75         0.24355
      67 -> 76        -0.11160
      68 -> 73         0.22740
      68 -> 74        -0.17008
      68 -> 76        -0.13559
      68 -> 77        -0.23440
      69 -> 76         0.17508
      69 -> 77         0.25505
      70 -> 77        -0.10004
      71 -> 78         0.15419

 Excited State  27:      Singlet-A      5.2635 eV  235.55 nm  f=0.0006  <S**2>=0.000
      67 -> 76         0.22495
      68 -> 75         0.11379
      68 -> 76         0.14540
      69 -> 75         0.10408
      71 -> 79         0.61432

 Excited State  28:      Singlet-A      5.3026 eV  233.82 nm  f=0.0117  <S**2>=0.000
      67 -> 73         0.12608
      67 -> 74         0.27599
      67 -> 76         0.26939
      67 -> 77        -0.19879
      68 -> 75         0.30926
      68 -> 76        -0.10944
      68 -> 77        -0.16842
      69 -> 76         0.15628
      70 -> 78        -0.17309
      71 -> 79        -0.20783

 Excited State  29:      Singlet-A      5.3646 eV  231.12 nm  f=0.0515  <S**2>=0.000
      65 -> 75         0.14542
      66 -> 74         0.12654
      67 -> 73        -0.10647
      67 -> 74        -0.14100
      67 -> 75        -0.24986
      67 -> 77         0.29086
      68 -> 74        -0.14846
      68 -> 76         0.12795
      69 -> 75         0.24275
      69 -> 76         0.28999
      69 -> 78         0.15304
      71 -> 79        -0.16981

 Excited State  30:      Singlet-A      5.3662 eV  231.05 nm  f=0.0354  <S**2>=0.000
      66 -> 74        -0.18849
      67 -> 73         0.11091
      67 -> 74         0.11742
      67 -> 75        -0.19106
      67 -> 76        -0.21330
      67 -> 77        -0.11503
      68 -> 76         0.24788
      68 -> 77         0.13176
      69 -> 77         0.41980
      70 -> 78        -0.14198

 The electronic state is 1-A.
 Alpha  occ. eigenvalues --  -88.06353 -14.03272 -13.97800  -9.96116  -9.93746
 Alpha  occ. eigenvalues --   -9.93570  -9.92790  -9.92643  -9.91473  -9.89717
 Alpha  occ. eigenvalues --   -9.89655  -9.89480  -9.89450  -9.89176  -9.89142
 Alpha  occ. eigenvalues --   -9.89095  -9.88949  -9.88896  -9.88839  -9.88173
 Alpha  occ. eigenvalues --   -7.68906  -5.71102  -5.70707  -5.70077  -0.91148
 Alpha  occ. eigenvalues --   -0.85181  -0.79062  -0.78691  -0.73673  -0.72641
 Alpha  occ. eigenvalues --   -0.69540  -0.69151  -0.68408  -0.66034  -0.62529
 Alpha  occ. eigenvalues --   -0.58646  -0.58276  -0.55461  -0.54511  -0.54386
 Alpha  occ. eigenvalues --   -0.51118  -0.49207  -0.48848  -0.44728  -0.43888
 Alpha  occ. eigenvalues --   -0.43068  -0.42114  -0.41653  -0.41167  -0.39536
 Alpha  occ. eigenvalues --   -0.39237  -0.38579  -0.37930  -0.37364  -0.36269
 Alpha  occ. eigenvalues --   -0.34914  -0.34292  -0.33772  -0.33254  -0.32141
 Alpha  occ. eigenvalues --   -0.31504  -0.30751  -0.30491  -0.28822  -0.27160
 Alpha  occ. eigenvalues --   -0.25912  -0.24371  -0.24282  -0.23569  -0.21670
 Alpha  occ. eigenvalues --   -0.20224  -0.17989
 Alpha virt. eigenvalues --   -0.06158  -0.05945  -0.05429  -0.05003  -0.04165
 Alpha virt. eigenvalues --   -0.02732  -0.01091   0.02402   0.04110   0.05241
 Alpha virt. eigenvalues --    0.05453   0.06002   0.06756   0.07039   0.07791

 Mulliken charges:
               1
     1  C   -0.167952
     2  C   -0.175233
     3  C   -0.008520
     4  C    0.227248
     5  C   -0.321538
     6  C   -0.092943
     7  C    0.184219
     8  C   -0.004332
     9  C   -0.177971
    10  H    0.145491
    11  C   -0.160004
    12  C   -0.096532
    13  C   -0.302663
    14  H    0.144611
    15  H    0.130932
    16  H    0.146873
    17  H    0.148243
    18  H    0.148193
    19  C    0.208480
    20  C   -0.234397
    21  C   -0.148236
    22  C   -0.117197
    23  C   -0.153340
    24  H    0.153419
    25  H    0.140118
    26  H    0.168685
    27  H    0.151075
    28  H    0.146578
    29  N    0.128613
    30  H    0.154640
    31  S   -0.091195
    32  N   -0.275362
 Sum of Mulliken charges =  -0.00000

 Dipole moment (field-independent basis, Debye):
    X=             -0.4387    Y=             -2.5341    Z=              1.3460  Tot=              2.9028
 Quadrupole moment (field-independent basis, Debye-Ang):
   XX=           -108.8015   YY=           -103.5859   ZZ=           -122.9382
   XY=              3.1326   XZ=             -1.7347   YZ=              0.1176

 1\1\GINC-CN043\SP\RPBEPBE TD-FC\Gen\C17H12N2S1\PNG4RJV\27-Mar-2021\0\\
 #p PBEPBE chkbasis geom=allcheck Guess=Read int=ultrafine scrf=(SMD,so
 lvent=n,n-DiMethylAcetamide) td=(NStates=30) EmpiricalDispersion=GD3BJ
 \\Title\\0,1\C,0,-1.9500502145,3.561393534,-0.3691039013\C,0,-2.317385
 5529,2.5013165819,0.4591831022\C,0,-1.547919138,1.3316741085,0.4704484
 11\C,0,-0.4149587168,1.2155379535,-0.3527865822\C,0,-0.0878564281,2.26
 41493731,-1.2205932352\C,0,-0.8438545321,3.4365832241,-1.2162478251\C,
 0,-0.4169065959,-1.1983469445,-0.384451122\C,0,-1.545870899,-1.3497165

 Normal termination of Gaussian 09 at Sat Mar 27 23:38:22 2021.
