                         Program Version 5.0.2 -  RELEASE  -
|  1> %maxcore 24000
|  2> %pal
|  3>  nprocs= 8
|  4> end
|  5> ! RI-DSD-BLYP D3BJ def2-TZVP def2/J def2-TZVP/C RIJCOSX CPCM TightSCF
|  6> %TDDFT
|  7>    NROOTS   30
|  8>    dcorr 4
|  9>    doscs true
| 10>    scspar 0.333, 1.2, 0.43, 1.24
| 11>    TDA      FALSE
| 12> END
| 13>
| 14> %CPCM
| 15>    SMD          TRUE
| 16>    SMDsolvent   "ACETONITRILE"
| 17> END
| 18>
| 19>
| 20> * xyz 0 1
| 21> C                  -5.15252500    3.78683200   -0.00005500
| 22> C                  -3.79144100    3.66343900   -0.00005200
| 23> C                  -3.18004300    2.38856400   -0.00003300
| 24> C                  -4.00071400    1.22018000   -0.00001900
| 25> C                  -5.40669600    1.38940600   -0.00002000
| 26> C                  -5.96631000    2.63818200   -0.00003800
| 27> C                  -1.78742100    2.25096500   -0.00002400
| 28> C                  -3.38834200   -0.06090600   -0.00000400
| 29> C                  -1.99848800   -0.16040500    0.00000000
| 30> C                  -1.18197600    1.01432600   -0.00000500
| 31> C                   0.26083200    0.86639900    0.00001000
| 32> C                   0.80317800   -0.41814200    0.00002100
| 33> C                  -1.36259400   -1.48358200   -0.00000000
| 34> H                  -1.19029900    3.15308400   -0.00003200
| 35> H                  -5.60982600    4.76815600   -0.00006900
| 36> H                  -3.15448700    4.53975900   -0.00006300
| 37> H                  -6.04425100    0.51527900   -0.00000500
| 38> H                  -7.04342300    2.74557200   -0.00003800
| 39> C                  -4.28501900   -1.24557400    0.00001200
| 40> C                  -4.74174300   -1.78389800    1.20010100
| 41> C                  -4.74181900   -1.78387200   -1.20006000
| 42> C                  -5.61630000   -2.85989600    1.19960700
| 43> H                  -4.40061200   -1.36052800    2.13761400
| 44> C                  -5.61637400   -2.85987200   -1.19953500
| 45> H                  -4.40074700   -1.36048100   -2.13758600
| 46> C                  -6.05418600   -3.40387800    0.00004400
| 47> H                  -5.95904900   -3.27267700    2.14042300
| 48> H                  -5.95918000   -3.27263400   -2.14033800
| 49> H                  -6.73737400   -4.24386400    0.00005600
| 50> O                  -1.91547400   -2.55400800   -0.00000900
| 51> O                   0.00929400   -1.52798100    0.00001300
| 52> C                   1.16802600    1.93502200    0.00001800
| 53> C                   2.16577600   -0.65341400    0.00003600
| 54> C                   3.05269100    0.42407900    0.00004100
| 55> C                   2.52677400    1.72912600    0.00003300
| 56> H                   3.20355900    2.57264400    0.00003900
| 57> H                   0.79646700    2.95048000    0.00001400
| 58> H                   2.52801400   -1.67218700    0.00004300
| 59> C                   4.44874700    0.21131500    0.00005800
| 60> C                   5.64839500    0.04157700    0.00006400
| 61> C                   7.04900000   -0.15351700    0.00001500
| 62> C                   7.92079600    0.94548000   -0.00001200
| 63> C                   7.59070800   -1.44739900   -0.00000400
| 64> C                   9.28994200    0.75068400   -0.00005500
| 65> H                   7.50965400    1.94667100    0.00000300
| 66> C                   8.96156600   -1.63022400   -0.00004800
| 67> H                   6.92396300   -2.29996900    0.00001700
| 68> C                   9.81565400   -0.53494200   -0.00007400
| 69> H                   9.95175600    1.60749300   -0.00007600
| 70> H                   9.36673300   -2.63417100   -0.00006200
| 71> H                  10.88798800   -0.68303700   -0.00010900
| 72> *
| 73>
| 74>
| 75>                          ****END OF INPUT****

CARTESIAN COORDINATES (ANGSTROEM)
---------------------------------
  C     -5.152525    3.786832   -0.000055
  C     -3.791441    3.663439   -0.000052
  C     -3.180043    2.388564   -0.000033
  C     -4.000714    1.220180   -0.000019
  C     -5.406696    1.389406   -0.000020
  C     -5.966310    2.638182   -0.000038
  C     -1.787421    2.250965   -0.000024
  C     -3.388342   -0.060906   -0.000004
  C     -1.998488   -0.160405    0.000000
  C     -1.181976    1.014326   -0.000005
  C      0.260832    0.866399    0.000010
  C      0.803178   -0.418142    0.000021
  C     -1.362594   -1.483582   -0.000000
  H     -1.190299    3.153084   -0.000032
  H     -5.609826    4.768156   -0.000069
  H     -3.154487    4.539759   -0.000063
  H     -6.044251    0.515279   -0.000005
  H     -7.043423    2.745572   -0.000038
  C     -4.285019   -1.245574    0.000012
  C     -4.741743   -1.783898    1.200101
  C     -4.741819   -1.783872   -1.200060
  C     -5.616300   -2.859896    1.199607
  H     -4.400612   -1.360528    2.137614
  C     -5.616374   -2.859872   -1.199535
  H     -4.400747   -1.360481   -2.137586
  C     -6.054186   -3.403878    0.000044
  H     -5.959049   -3.272677    2.140423
  H     -5.959180   -3.272634   -2.140338
  H     -6.737374   -4.243864    0.000056
  O     -1.915474   -2.554008   -0.000009
  O      0.009294   -1.527981    0.000013
  C      1.168026    1.935022    0.000018
  C      2.165776   -0.653414    0.000036
  C      3.052691    0.424079    0.000041
  C      2.526774    1.729126    0.000033
  H      3.203559    2.572644    0.000039
  H      0.796467    2.950480    0.000014
  H      2.528014   -1.672187    0.000043
  C      4.448747    0.211315    0.000058
  C      5.648395    0.041577    0.000064
  C      7.049000   -0.153517    0.000015
  C      7.920796    0.945480   -0.000012
  C      7.590708   -1.447399   -0.000004
  C      9.289942    0.750684   -0.000055
  H      7.509654    1.946671    0.000003
  C      8.961566   -1.630224   -0.000048
  H      6.923963   -2.299969    0.000017
  C      9.815654   -0.534942   -0.000074
  H      9.951756    1.607493   -0.000076
  H      9.366733   -2.634171   -0.000062
  H     10.887988   -0.683037   -0.000109

 Total Charge           Charge          ....    0
 Multiplicity           Mult            ....    1
 Number of Electrons    NEL             ....  220
 Basis Dimension        Dim             .... 1131

ORBITAL ENERGIES
----------------

  NO   OCC          E(Eh)            E(eV)
   0   2.0000     -20.076606      -546.3122
   1   2.0000     -19.998696      -544.1922
   2   2.0000     -10.984681      -298.9084
   3   2.0000     -10.910738      -296.8963
   4   2.0000     -10.869294      -295.7685
   5   2.0000     -10.868180      -295.7382
   6   2.0000     -10.862479      -295.5831
   7   2.0000     -10.860049      -295.5170
   8   2.0000     -10.858967      -295.4875
   9   2.0000     -10.854139      -295.3561
  10   2.0000     -10.851519      -295.2848
  11   2.0000     -10.849351      -295.2258
  12   2.0000     -10.841480      -295.0117
  13   2.0000     -10.841417      -295.0100
  14   2.0000     -10.840318      -294.9800
  15   2.0000     -10.840171      -294.9760
  16   2.0000     -10.837087      -294.8921
  17   2.0000     -10.836687      -294.8812
  18   2.0000     -10.836629      -294.8797
  19   2.0000     -10.836613      -294.8792
  20   2.0000     -10.836362      -294.8724
  21   2.0000     -10.835559      -294.8506
  22   2.0000     -10.834375      -294.8183
  23   2.0000     -10.832726      -294.7735
  24   2.0000     -10.832346      -294.7631
  25   2.0000     -10.831422      -294.7380
  26   2.0000     -10.830660      -294.7173
  27   2.0000     -10.830409      -294.7104
  28   2.0000     -10.825762      -294.5840
  29   2.0000     -10.825577      -294.5789
  30   2.0000     -10.824476      -294.5490
  31   2.0000     -10.824369      -294.5460
  32   2.0000     -10.823535      -294.5234
  33   2.0000      -1.347269       -36.6611
  34   2.0000      -1.250507       -34.0280
  35   2.0000      -1.090227       -29.6666
  36   2.0000      -1.067246       -29.0412
  37   2.0000      -1.056120       -28.7385
  38   2.0000      -1.046148       -28.4671
  39   2.0000      -1.028433       -27.9851
  40   2.0000      -0.988979       -26.9115
  41   2.0000      -0.971337       -26.4314
  42   2.0000      -0.953804       -25.9543
  43   2.0000      -0.939711       -25.5708
  44   2.0000      -0.929787       -25.3008
  45   2.0000      -0.922026       -25.0896
  46   2.0000      -0.918027       -24.9808
  47   2.0000      -0.913548       -24.8589
  48   2.0000      -0.899217       -24.4689
  49   2.0000      -0.877723       -23.8841
  50   2.0000      -0.828799       -22.5528
  51   2.0000      -0.804660       -21.8959
  52   2.0000      -0.788299       -21.4507
  53   2.0000      -0.769238       -20.9320
  54   2.0000      -0.759093       -20.6560
  55   2.0000      -0.752154       -20.4671
  56   2.0000      -0.749567       -20.3968
  57   2.0000      -0.743198       -20.2235
  58   2.0000      -0.718571       -19.5533
  59   2.0000      -0.708017       -19.2661
  60   2.0000      -0.691366       -18.8130
  61   2.0000      -0.662102       -18.0167
  62   2.0000      -0.650673       -17.7057
  63   2.0000      -0.646831       -17.6012
  64   2.0000      -0.625375       -17.0173
  65   2.0000      -0.613477       -16.6936
  66   2.0000      -0.606291       -16.4980
  67   2.0000      -0.599863       -16.3231
  68   2.0000      -0.595363       -16.2007
  69   2.0000      -0.585097       -15.9213
  70   2.0000      -0.577833       -15.7236
  71   2.0000      -0.573934       -15.6175
  72   2.0000      -0.571991       -15.5647
  73   2.0000      -0.565760       -15.3951
  74   2.0000      -0.565272       -15.3818
  75   2.0000      -0.547429       -14.8963
  76   2.0000      -0.543802       -14.7976
  77   2.0000      -0.541933       -14.7467
  78   2.0000      -0.535235       -14.5645
  79   2.0000      -0.529431       -14.4065
  80   2.0000      -0.524385       -14.2693
  81   2.0000      -0.521865       -14.2007
  82   2.0000      -0.510916       -13.9027
  83   2.0000      -0.499942       -13.6041
  84   2.0000      -0.499514       -13.5925
  85   2.0000      -0.496861       -13.5203
  86   2.0000      -0.480420       -13.0729
  87   2.0000      -0.479709       -13.0535
  88   2.0000      -0.462582       -12.5875
  89   2.0000      -0.456833       -12.4311
  90   2.0000      -0.456135       -12.4121
  91   2.0000      -0.452010       -12.2998
  92   2.0000      -0.449720       -12.2375
  93   2.0000      -0.444641       -12.0993
  94   2.0000      -0.442537       -12.0420
  95   2.0000      -0.436478       -11.8772
  96   2.0000      -0.432837       -11.7781
  97   2.0000      -0.421447       -11.4681
  98   2.0000      -0.398651       -10.8478
  99   2.0000      -0.395248       -10.7553
 100   2.0000      -0.365024        -9.9328
 101   2.0000      -0.356807        -9.7092
 102   2.0000      -0.344358        -9.3704
 103   2.0000      -0.318295        -8.6612
 104   2.0000      -0.313958        -8.5432
 105   2.0000      -0.309530        -8.4227
 106   2.0000      -0.306414        -8.3379
 107   2.0000      -0.301072        -8.1926
 108   2.0000      -0.283968        -7.7272
 109   2.0000      -0.251806        -6.8520
 110   0.0000      -0.009505        -0.2587
 111   0.0000       0.000946         0.0258
 112   0.0000       0.040239         1.0949
 113   0.0000       0.061434         1.6717
 114   0.0000       0.065156         1.7730

MULLIKEN ATOMIC CHARGES
-----------------------
   0 C :   -0.114126
   1 C :   -0.284993
   2 C :    0.151034
   3 C :    0.092671
   4 C :   -0.255136
   5 C :   -0.169548
   6 C :   -0.409525
   7 C :    0.339898
   8 C :   -0.148276
   9 C :    0.122759
  10 C :    0.178215
  11 C :    0.247351
  12 C :    0.428948
  13 H :    0.164997
  14 H :    0.167981
  15 H :    0.164566
  16 H :    0.180935
  17 H :    0.165008
  18 C :    0.121625
  19 C :   -0.255652
  20 C :   -0.255503
  21 C :   -0.192444
  22 H :    0.159629
  23 C :   -0.192548
  24 H :    0.159626
  25 C :   -0.145162
  26 H :    0.158636
  27 H :    0.158689
  28 H :    0.160834
  29 O :   -0.431305
  30 O :   -0.278608
  31 C :   -0.245939
  32 C :   -0.365443
  33 C :   -0.002478
  34 C :   -0.214297
  35 H :    0.169267
  36 H :    0.171518
  37 H :    0.165368
  38 C :    0.090140
  39 C :    0.205763
  40 C :   -0.081987
  41 C :   -0.204479
  42 C :   -0.204448
  43 C :   -0.197371
  44 H :    0.169168
  45 C :   -0.197336
  46 H :    0.168663
  47 C :   -0.110482
  48 H :    0.162879
  49 H :    0.164105
  50 H :    0.166811
Sum of atomic charges:   -0.0000000

LOEWDIN ATOMIC CHARGES
----------------------
   0 C :   -0.124949
   1 C :   -0.097624
   2 C :   -0.083207
   3 C :   -0.053055
   4 C :   -0.087302
   5 C :   -0.136012
   6 C :   -0.046110
   7 C :    0.015092
   8 C :   -0.050770
   9 C :   -0.061689
  10 C :   -0.080139
  11 C :   -0.172126
  12 C :   -0.343600
  13 H :    0.164633
  14 H :    0.154505
  15 H :    0.157938
  16 H :    0.162595
  17 H :    0.153491
  18 C :   -0.098293
  19 C :   -0.101209
  20 C :   -0.101209
  21 C :   -0.145339
  22 H :    0.155610
  23 C :   -0.145340
  24 H :    0.155610
  25 C :   -0.149846
  26 H :    0.150490
  27 H :    0.150490
  28 H :    0.149293
  29 O :    0.076087
  30 O :    0.314475
  31 C :   -0.076987
  32 C :   -0.054719
  33 C :   -0.139637
  34 C :   -0.092242
  35 H :    0.159837
  36 H :    0.161719
  37 H :    0.165357
  38 C :   -0.024851
  39 C :   -0.019260
  40 C :   -0.152873
  41 C :   -0.086680
  42 C :   -0.086786
  43 C :   -0.139187
  44 H :    0.157734
  45 C :   -0.139271
  46 H :    0.157698
  47 C :   -0.131618
  48 H :    0.153369
  49 H :    0.153430
  50 H :    0.152477

  Mayer bond orders larger than 0.100000
B(  0-C ,  1-C ) :   1.5548 B(  0-C ,  5-C ) :   1.2235 B(  0-C , 14-H ) :   0.9805
B(  1-C ,  2-C ) :   1.2251 B(  1-C , 15-H ) :   0.9900 B(  2-C ,  3-C ) :   1.2958
B(  2-C ,  6-C ) :   1.2538 B(  3-C ,  4-C ) :   1.2037 B(  3-C ,  7-C ) :   1.2034
B(  4-C ,  5-C ) :   1.6007 B(  4-C , 16-H ) :   0.9657 B(  5-C , 17-H ) :   0.9835
B(  6-C ,  9-C ) :   1.4982 B(  6-C , 13-H ) :   0.9786 B(  7-C ,  8-C ) :   1.3820
B(  7-C , 18-C ) :   0.6957 B(  8-C ,  9-C ) :   1.2517 B(  8-C , 12-C ) :   1.0023
B(  9-C , 10-C ) :   0.9821 B( 10-C , 11-C ) :   1.3643 B( 10-C , 31-C ) :   1.2963
B( 11-C , 30-O ) :   0.9876 B( 11-C , 32-C ) :   1.3929 B( 12-C , 29-O ) :   2.0515
B( 12-C , 30-O ) :   1.1613 B( 18-C , 19-C ) :   1.4112 B( 18-C , 20-C ) :   1.4115
B( 19-C , 21-C ) :   1.4489 B( 19-C , 22-H ) :   0.9836 B( 20-C , 23-C ) :   1.4490
B( 20-C , 24-H ) :   0.9836 B( 21-C , 25-C ) :   1.3983 B( 21-C , 26-H ) :   0.9836
B( 23-C , 25-C ) :   1.3982 B( 23-C , 27-H ) :   0.9836 B( 25-C , 28-H ) :   0.9792
B( 31-C , 34-C ) :   1.4968 B( 31-C , 36-H ) :   0.9617 B( 32-C , 33-C ) :   1.3475
B( 32-C , 37-H ) :   1.0151 B( 33-C , 34-C ) :   1.3013 B( 33-C , 38-C ) :   1.1234
B( 33-C , 39-C ) :  -0.1855 B( 34-C , 35-H ) :   0.9933 B( 38-C , 39-C ) :   2.8329
B( 38-C , 40-C ) :  -0.1907 B( 39-C , 40-C ) :   1.0294 B( 40-C , 41-C ) :   1.3618
B( 40-C , 42-C ) :   1.3619 B( 41-C , 43-C ) :   1.4629 B( 41-C , 44-H ) :   0.9791
B( 42-C , 45-C ) :   1.4646 B( 42-C , 46-H ) :   0.9795 B( 43-C , 47-C ) :   1.3963
B( 43-C , 48-H ) :   0.9813 B( 45-C , 47-C ) :   1.3979 B( 45-C , 49-H ) :   0.9792
B( 47-C , 50-H ) :   0.9747

MP2 TOTAL ENERGY:    -1341.328557985 Eh

-----------------------------------------------------------------------------
         ABSORPTION SPECTRUM VIA TRANSITION ELECTRIC DIPOLE MOMENTS
-----------------------------------------------------------------------------
State   Energy    Wavelength  fosc         T2        TX        TY        TZ
        (cm-1)      (nm)                 (au**2)    (au)      (au)      (au)
-----------------------------------------------------------------------------
   1   27053.3    369.6   1.216086064  14.79856   3.70057  -1.05087   0.00001
   2   20458.5    488.8   0.264765646   4.26053   2.01557   0.44497  -0.00000
   3   28814.6    347.0   0.434688176   4.96640  -2.22841   0.02390   0.00003
   4   24666.8    405.4   0.024877868   0.33203   0.24080  -0.52349   0.00002
   5   24883.2    401.9   0.000022602   0.00030  -0.00010   0.00003   0.01729
   6   31710.5    315.4   0.335198118   3.47996   1.35252  -1.28478   0.00004
   7   41600.9    240.4   0.000000012   0.00000   0.00000  -0.00001   0.00031
   8   27722.0    360.7   0.003030562   0.03599   0.02797   0.18764  -0.00000
   9   31308.4    319.4   0.165049286   1.73551  -0.52683  -1.20746  -0.00001
  10   29589.8    338.0   0.001085845   0.01208  -0.00005   0.00003  -0.10991
  11   34649.1    288.6   0.333076668   3.16467  -1.69220   0.54876  -0.00002
  12   37245.9    268.5   0.184095980   1.62720  -0.57127   1.14055   0.00002
  13   35963.2    278.1   0.166050600   1.52005   0.42130  -1.15869   0.00003
  14   30331.1    329.7   0.031207990   0.33873   0.24142  -0.52957   0.00000
  15   35787.0    279.4   0.016505848   0.15184   0.37542   0.10441  -0.00003
  16   29993.1    333.4   0.001450345   0.01592   0.00016   0.00004   0.12617
  17   52347.4    191.0   0.000000337   0.00000  -0.00008  -0.00010  -0.00145
  18   39082.3    255.9   0.087183937   0.73440  -0.39202  -0.76205   0.00003
  19   32619.7    306.6   0.078139645   0.78862   0.52243  -0.71811  -0.00005
  20   30778.6    324.9   0.112225933   1.20039  -0.33170  -1.04420  -0.00046
  21   29037.2    344.4   0.008130973   0.09219   0.00042   0.00155  -0.30362
  22   40087.5    249.5   0.292792905   2.40452   0.17266   1.54101  -0.00001
  23   46888.9    213.3   0.854666665   6.00071   2.44743   0.10385  -0.00002
  24   34406.3    290.6   0.134003290   1.28219   0.61588   0.95020  -0.00004
  25   33926.1    294.8   0.032942889   0.31967  -0.30818  -0.47402   0.00004
  26   36307.8    275.4   0.001559001   0.01414   0.00011   0.00008   0.11889
  27   31928.1    313.2   0.003989906   0.04114   0.20069  -0.02936   0.00000
  28   42154.3    237.2   0.192899413   1.50648   0.58289   1.08015   0.00014
  29   34195.2    292.4   0.006562559   0.06318  -0.24454   0.05815   0.00007
  30   35466.2    282.0   0.002395956   0.02224  -0.09186  -0.11747  -0.00156

Dispersion correction           -0.051131580
FINAL SINGLE POINT ENERGY     -1338.681851341599

DIPOLE MOMENT
-------------
                                X             Y             Z
Electronic contribution:     -0.58633      -1.21317       0.00011
Nuclear contribution   :      0.62476       3.84855      -0.00016
                        -----------------------------------------
Total Dipole Moment    :      0.03844       2.63538      -0.00005
                        -----------------------------------------
Magnitude (a.u.)       :      2.63566
Magnitude (Debye)      :      6.69932

Rotational constants in cm-1:     0.010488     0.001567     0.001383
Rotational constants in MHz :   314.420507    46.965772    41.449328

                             ****ORCA TERMINATED NORMALLY****
TOTAL RUN TIME: 0 days 1 hours 57 minutes 8 seconds 298 msec
