                         Program Version 5.0.2 -  RELEASE  -
|  1> %maxcore 20000
|  2> %pal
|  3>  nprocs= 4
|  4> end
|  5> ! RI-wPBEPP86   def2-TZVP def2/J def2-TZVP/C RIJCOSX CPCM TightSCF
|  6> %TDDFT
|  7>    NROOTS   30
|  8>    dcorr 1
|  9>    TDA      FALSE
| 10> END
| 11>
| 12> %CPCM
| 13>    SMD          TRUE
| 14>    SMDsolvent   "ACETONITRILE"
| 15> END
| 16>
| 17>
| 18> * xyz 0 1
| 19> C                  -5.15252500    3.78683200   -0.00005500
| 20> C                  -3.79144100    3.66343900   -0.00005200
| 21> C                  -3.18004300    2.38856400   -0.00003300
| 22> C                  -4.00071400    1.22018000   -0.00001900
| 23> C                  -5.40669600    1.38940600   -0.00002000
| 24> C                  -5.96631000    2.63818200   -0.00003800
| 25> C                  -1.78742100    2.25096500   -0.00002400
| 26> C                  -3.38834200   -0.06090600   -0.00000400
| 27> C                  -1.99848800   -0.16040500    0.00000000
| 28> C                  -1.18197600    1.01432600   -0.00000500
| 29> C                   0.26083200    0.86639900    0.00001000
| 30> C                   0.80317800   -0.41814200    0.00002100
| 31> C                  -1.36259400   -1.48358200   -0.00000000
| 32> H                  -1.19029900    3.15308400   -0.00003200
| 33> H                  -5.60982600    4.76815600   -0.00006900
| 34> H                  -3.15448700    4.53975900   -0.00006300
| 35> H                  -6.04425100    0.51527900   -0.00000500
| 36> H                  -7.04342300    2.74557200   -0.00003800
| 37> C                  -4.28501900   -1.24557400    0.00001200
| 38> C                  -4.74174300   -1.78389800    1.20010100
| 39> C                  -4.74181900   -1.78387200   -1.20006000
| 40> C                  -5.61630000   -2.85989600    1.19960700
| 41> H                  -4.40061200   -1.36052800    2.13761400
| 42> C                  -5.61637400   -2.85987200   -1.19953500
| 43> H                  -4.40074700   -1.36048100   -2.13758600
| 44> C                  -6.05418600   -3.40387800    0.00004400
| 45> H                  -5.95904900   -3.27267700    2.14042300
| 46> H                  -5.95918000   -3.27263400   -2.14033800
| 47> H                  -6.73737400   -4.24386400    0.00005600
| 48> O                  -1.91547400   -2.55400800   -0.00000900
| 49> O                   0.00929400   -1.52798100    0.00001300
| 50> C                   1.16802600    1.93502200    0.00001800
| 51> C                   2.16577600   -0.65341400    0.00003600
| 52> C                   3.05269100    0.42407900    0.00004100
| 53> C                   2.52677400    1.72912600    0.00003300
| 54> H                   3.20355900    2.57264400    0.00003900
| 55> H                   0.79646700    2.95048000    0.00001400
| 56> H                   2.52801400   -1.67218700    0.00004300
| 57> C                   4.44874700    0.21131500    0.00005800
| 58> C                   5.64839500    0.04157700    0.00006400
| 59> C                   7.04900000   -0.15351700    0.00001500
| 60> C                   7.92079600    0.94548000   -0.00001200
| 61> C                   7.59070800   -1.44739900   -0.00000400
| 62> C                   9.28994200    0.75068400   -0.00005500
| 63> H                   7.50965400    1.94667100    0.00000300
| 64> C                   8.96156600   -1.63022400   -0.00004800
| 65> H                   6.92396300   -2.29996900    0.00001700
| 66> C                   9.81565400   -0.53494200   -0.00007400
| 67> H                   9.95175600    1.60749300   -0.00007600
| 68> H                   9.36673300   -2.63417100   -0.00006200
| 69> H                  10.88798800   -0.68303700   -0.00010900
| 70> *
| 71>
| 72>
| 73>                          ****END OF INPUT****

CARTESIAN COORDINATES (ANGSTROEM)
---------------------------------
  C     -5.152525    3.786832   -0.000055
  C     -3.791441    3.663439   -0.000052
  C     -3.180043    2.388564   -0.000033
  C     -4.000714    1.220180   -0.000019
  C     -5.406696    1.389406   -0.000020
  C     -5.966310    2.638182   -0.000038
  C     -1.787421    2.250965   -0.000024
  C     -3.388342   -0.060906   -0.000004
  C     -1.998488   -0.160405    0.000000
  C     -1.181976    1.014326   -0.000005
  C      0.260832    0.866399    0.000010
  C      0.803178   -0.418142    0.000021
  C     -1.362594   -1.483582   -0.000000
  H     -1.190299    3.153084   -0.000032
  H     -5.609826    4.768156   -0.000069
  H     -3.154487    4.539759   -0.000063
  H     -6.044251    0.515279   -0.000005
  H     -7.043423    2.745572   -0.000038
  C     -4.285019   -1.245574    0.000012
  C     -4.741743   -1.783898    1.200101
  C     -4.741819   -1.783872   -1.200060
  C     -5.616300   -2.859896    1.199607
  H     -4.400612   -1.360528    2.137614
  C     -5.616374   -2.859872   -1.199535
  H     -4.400747   -1.360481   -2.137586
  C     -6.054186   -3.403878    0.000044
  H     -5.959049   -3.272677    2.140423
  H     -5.959180   -3.272634   -2.140338
  H     -6.737374   -4.243864    0.000056
  O     -1.915474   -2.554008   -0.000009
  O      0.009294   -1.527981    0.000013
  C      1.168026    1.935022    0.000018
  C      2.165776   -0.653414    0.000036
  C      3.052691    0.424079    0.000041
  C      2.526774    1.729126    0.000033
  H      3.203559    2.572644    0.000039
  H      0.796467    2.950480    0.000014
  H      2.528014   -1.672187    0.000043
  C      4.448747    0.211315    0.000058
  C      5.648395    0.041577    0.000064
  C      7.049000   -0.153517    0.000015
  C      7.920796    0.945480   -0.000012
  C      7.590708   -1.447399   -0.000004
  C      9.289942    0.750684   -0.000055
  H      7.509654    1.946671    0.000003
  C      8.961566   -1.630224   -0.000048
  H      6.923963   -2.299969    0.000017
  C      9.815654   -0.534942   -0.000074
  H      9.951756    1.607493   -0.000076
  H      9.366733   -2.634171   -0.000062
  H     10.887988   -0.683037   -0.000109

 Total Charge           Charge          ....    0
 Multiplicity           Mult            ....    1
 Number of Electrons    NEL             ....  220
 Basis Dimension        Dim             .... 1131

ORBITAL ENERGIES
----------------

  NO   OCC          E(Eh)            E(eV)
   0   2.0000     -20.128486      -547.7240
   1   2.0000     -20.049591      -545.5771
   2   2.0000     -11.025146      -300.0095
   3   2.0000     -10.952382      -298.0295
   4   2.0000     -10.912230      -296.9369
   5   2.0000     -10.910146      -296.8802
   6   2.0000     -10.905115      -296.7433
   7   2.0000     -10.902594      -296.6747
   8   2.0000     -10.899926      -296.6021
   9   2.0000     -10.896301      -296.5034
  10   2.0000     -10.893686      -296.4323
  11   2.0000     -10.891682      -296.3777
  12   2.0000     -10.882861      -296.1377
  13   2.0000     -10.882621      -296.1312
  14   2.0000     -10.882428      -296.1259
  15   2.0000     -10.882215      -296.1201
  16   2.0000     -10.879009      -296.0329
  17   2.0000     -10.877977      -296.0048
  18   2.0000     -10.877888      -296.0024
  19   2.0000     -10.876953      -295.9769
  20   2.0000     -10.876896      -295.9754
  21   2.0000     -10.875799      -295.9455
  22   2.0000     -10.875084      -295.9261
  23   2.0000     -10.872765      -295.8630
  24   2.0000     -10.872609      -295.8587
  25   2.0000     -10.871797      -295.8366
  26   2.0000     -10.870315      -295.7963
  27   2.0000     -10.870084      -295.7900
  28   2.0000     -10.865970      -295.6781
  29   2.0000     -10.865849      -295.6748
  30   2.0000     -10.864964      -295.6507
  31   2.0000     -10.864799      -295.6462
  32   2.0000     -10.863646      -295.6148
  33   2.0000      -1.400196       -38.1013
  34   2.0000      -1.302139       -35.4330
  35   2.0000      -1.142580       -31.0912
  36   2.0000      -1.119085       -30.4519
  37   2.0000      -1.107081       -30.1252
  38   2.0000      -1.097385       -29.8614
  39   2.0000      -1.079790       -29.3826
  40   2.0000      -1.039695       -28.2915
  41   2.0000      -1.021657       -27.8007
  42   2.0000      -1.003779       -27.3142
  43   2.0000      -0.989556       -26.9272
  44   2.0000      -0.979448       -26.6521
  45   2.0000      -0.970588       -26.4110
  46   2.0000      -0.967152       -26.3175
  47   2.0000      -0.962366       -26.1873
  48   2.0000      -0.948198       -25.8018
  49   2.0000      -0.926293       -25.2057
  50   2.0000      -0.877654       -23.8822
  51   2.0000      -0.852773       -23.2051
  52   2.0000      -0.836646       -22.7663
  53   2.0000      -0.816368       -22.2145
  54   2.0000      -0.806348       -21.9418
  55   2.0000      -0.799210       -21.7476
  56   2.0000      -0.795758       -21.6537
  57   2.0000      -0.789622       -21.4867
  58   2.0000      -0.765324       -20.8255
  59   2.0000      -0.754518       -20.5315
  60   2.0000      -0.738037       -20.0830
  61   2.0000      -0.708081       -19.2679
  62   2.0000      -0.696628       -18.9562
  63   2.0000      -0.693759       -18.8781
  64   2.0000      -0.670960       -18.2578
  65   2.0000      -0.658299       -17.9132
  66   2.0000      -0.651234       -17.7210
  67   2.0000      -0.648146       -17.6369
  68   2.0000      -0.638465       -17.3735
  69   2.0000      -0.629976       -17.1425
  70   2.0000      -0.621337       -16.9074
  71   2.0000      -0.618572       -16.8322
  72   2.0000      -0.615961       -16.7611
  73   2.0000      -0.609954       -16.5977
  74   2.0000      -0.608913       -16.5694
  75   2.0000      -0.589792       -16.0491
  76   2.0000      -0.586302       -15.9541
  77   2.0000      -0.583728       -15.8841
  78   2.0000      -0.577770       -15.7219
  79   2.0000      -0.570508       -15.5243
  80   2.0000      -0.566453       -15.4140
  81   2.0000      -0.563330       -15.3290
  82   2.0000      -0.553885       -15.0720
  83   2.0000      -0.547416       -14.8959
  84   2.0000      -0.544363       -14.8129
  85   2.0000      -0.542035       -14.7495
  86   2.0000      -0.526915       -14.3381
  87   2.0000      -0.521443       -14.1892
  88   2.0000      -0.506213       -13.7748
  89   2.0000      -0.499143       -13.5824
  90   2.0000      -0.498070       -13.5532
  91   2.0000      -0.496022       -13.4974
  92   2.0000      -0.489946       -13.3321
  93   2.0000      -0.484450       -13.1826
  94   2.0000      -0.482473       -13.1288
  95   2.0000      -0.479894       -13.0586
  96   2.0000      -0.475024       -12.9261
  97   2.0000      -0.461147       -12.5484
  98   2.0000      -0.441800       -12.0220
  99   2.0000      -0.440340       -11.9823
 100   2.0000      -0.408968       -11.1286
 101   2.0000      -0.399869       -10.8810
 102   2.0000      -0.387278       -10.5384
 103   2.0000      -0.359764        -9.7897
 104   2.0000      -0.355635        -9.6773
 105   2.0000      -0.351199        -9.5566
 106   2.0000      -0.347405        -9.4534
 107   2.0000      -0.342719        -9.3259
 108   2.0000      -0.324355        -8.8262
 109   2.0000      -0.290824        -7.9137
 110   0.0000      -0.002238        -0.0609
 111   0.0000       0.009300         0.2531
 112   0.0000       0.049584         1.3492
 113   0.0000       0.071954         1.9580
 114   0.0000       0.076773         2.0891

MULLIKEN ATOMIC CHARGES
-----------------------
   0 C :   -0.135810
   1 C :   -0.299650
   2 C :    0.129293
   3 C :    0.113249
   4 C :   -0.273665
   5 C :   -0.191937
   6 C :   -0.406292
   7 C :    0.295707
   8 C :   -0.111625
   9 C :    0.125949
  10 C :    0.135597
  11 C :    0.240237
  12 C :    0.407101
  13 H :    0.187326
  14 H :    0.191431
  15 H :    0.189447
  16 H :    0.210079
  17 H :    0.188379
  18 C :   -0.007460
  19 C :   -0.244107
  20 C :   -0.243937
  21 C :   -0.212513
  22 H :    0.186668
  23 C :   -0.212637
  24 H :    0.186662
  25 C :   -0.165188
  26 H :    0.183595
  27 H :    0.183657
  28 H :    0.185668
  29 O :   -0.420509
  30 O :   -0.249666
  31 C :   -0.255619
  32 C :   -0.374287
  33 C :   -0.002807
  34 C :   -0.228328
  35 H :    0.194136
  36 H :    0.196943
  37 H :    0.194446
  38 C :    0.061378
  39 C :    0.175248
  40 C :   -0.069075
  41 C :   -0.217926
  42 C :   -0.217507
  43 C :   -0.222246
  44 H :    0.194962
  45 C :   -0.222035
  46 H :    0.194482
  47 C :   -0.133315
  48 H :    0.187245
  49 H :    0.188579
  50 H :    0.190677
Sum of atomic charges:    0.0000000

LOEWDIN ATOMIC CHARGES
----------------------
   0 C :   -0.129005
   1 C :   -0.101467
   2 C :   -0.088007
   3 C :   -0.056666
   4 C :   -0.092255
   5 C :   -0.139495
   6 C :   -0.048231
   7 C :    0.010877
   8 C :   -0.052433
   9 C :   -0.065667
  10 C :   -0.084265
  11 C :   -0.177590
  12 C :   -0.349327
  13 H :    0.170581
  14 H :    0.160939
  15 H :    0.164473
  16 H :    0.168168
  17 H :    0.159996
  18 C :   -0.107951
  19 C :   -0.106057
  20 C :   -0.106057
  21 C :   -0.149512
  22 H :    0.162464
  23 C :   -0.149512
  24 H :    0.162465
  25 C :   -0.153975
  26 H :    0.156960
  27 H :    0.156961
  28 H :    0.155697
  29 O :    0.083845
  30 O :    0.320532
  31 C :   -0.080282
  32 C :   -0.056456
  33 C :   -0.145093
  34 C :   -0.095407
  35 H :    0.166527
  36 H :    0.167707
  37 H :    0.172357
  38 C :   -0.026061
  39 C :   -0.020087
  40 C :   -0.159442
  41 C :   -0.090594
  42 C :   -0.090660
  43 C :   -0.144539
  44 H :    0.164133
  45 C :   -0.144622
  46 H :    0.164108
  47 C :   -0.136082
  48 H :    0.159618
  49 H :    0.159679
  50 H :    0.158711

  Mayer bond orders larger than 0.100000
B(  0-C ,  1-C ) :   1.5501 B(  0-C ,  5-C ) :   1.2189 B(  0-C , 14-H ) :   0.9737
B(  1-C ,  2-C ) :   1.2167 B(  1-C , 15-H ) :   0.9786 B(  2-C ,  3-C ) :   1.2912
B(  2-C ,  6-C ) :   1.2833 B(  3-C ,  4-C ) :   1.1979 B(  3-C ,  7-C ) :   1.2137
B(  4-C ,  5-C ) :   1.6063 B(  4-C , 16-H ) :   0.9483 B(  5-C , 17-H ) :   0.9750
B(  6-C ,  9-C ) :   1.5000 B(  6-C , 13-H ) :   0.9412 B(  7-C ,  8-C ) :   1.3948
B(  7-C , 18-C ) :   0.7299 B(  8-C ,  9-C ) :   1.2491 B(  8-C , 12-C ) :   1.0065
B(  9-C , 10-C ) :   0.9907 B( 10-C , 11-C ) :   1.3763 B( 10-C , 31-C ) :   1.3134
B( 11-C , 30-O ) :   1.0044 B( 11-C , 32-C ) :   1.3931 B( 12-C , 29-O ) :   2.0436
B( 12-C , 30-O ) :   1.1663 B( 18-C , 19-C ) :   1.4134 B( 18-C , 20-C ) :   1.4137
B( 19-C , 21-C ) :   1.4425 B( 19-C , 22-H ) :   0.9753 B( 20-C , 23-C ) :   1.4425
B( 20-C , 24-H ) :   0.9754 B( 21-C , 25-C ) :   1.3933 B( 21-C , 26-H ) :   0.9764
B( 23-C , 25-C ) :   1.3932 B( 23-C , 27-H ) :   0.9764 B( 25-C , 28-H ) :   0.9733
B( 31-C , 34-C ) :   1.4993 B( 31-C , 36-H ) :   0.9425 B( 32-C , 33-C ) :   1.3435
B( 32-C , 37-H ) :   0.9896 B( 33-C , 34-C ) :   1.2945 B( 33-C , 38-C ) :   1.1414
B( 33-C , 39-C ) :  -0.1701 B( 34-C , 35-H ) :   0.9809 B( 38-C , 39-C ) :   2.8176
B( 38-C , 40-C ) :  -0.1705 B( 39-C , 40-C ) :   1.0363 B( 40-C , 41-C ) :   1.3540
B( 40-C , 42-C ) :   1.3541 B( 41-C , 43-C ) :   1.4564 B( 41-C , 44-H ) :   0.9721
B( 42-C , 45-C ) :   1.4581 B( 42-C , 46-H ) :   0.9723 B( 43-C , 47-C ) :   1.3931
B( 43-C , 48-H ) :   0.9746 B( 45-C , 47-C ) :   1.3948 B( 45-C , 49-H ) :   0.9723
B( 47-C , 50-H ) :   0.9687

MP2 TOTAL ENERGY:    -1341.992048260 Eh

-----------------------------------------------------------------------------
         ABSORPTION SPECTRUM VIA TRANSITION ELECTRIC DIPOLE MOMENTS
-----------------------------------------------------------------------------
State   Energy    Wavelength  fosc         T2        TX        TY        TZ
        (cm-1)      (nm)                 (au**2)    (au)      (au)      (au)
-----------------------------------------------------------------------------
   1   31045.1    322.1   1.317067689  13.96658   3.58551  -1.05391   0.00001
   2   29582.5    338.0   0.388939341   4.32836   2.03635   0.42619  -0.00000
   3   35201.4    284.1   0.561745853   5.25358   2.29161  -0.04593  -0.00002
   4   35849.8    278.9   0.037587637   0.34517  -0.24108   0.53577  -0.00002
   5   35710.1    280.0   0.000021759   0.00020  -0.00035   0.00025   0.01416
   6   39670.2    252.1   0.438843267   3.64184  -1.44426   1.24737  -0.00004
   7   43543.0    229.7   0.000000019   0.00000   0.00000  -0.00001  -0.00038
   8   39365.0    254.0   0.005228168   0.04372  -0.02523  -0.20757   0.00000
   9   40943.8    244.2   0.320449240   2.57660  -0.24838  -1.58585  -0.00000
  10   41523.5    240.8   0.000876468   0.00695  -0.00003  -0.00000  -0.08336
  11   45746.7    218.6   0.570381768   4.10470   1.89226  -0.72391   0.00001
  12   48888.6    204.5   0.028925273   0.19478   0.43633  -0.06629   0.00001
  13   44391.1    225.3   0.347995161   2.58079  -0.10790  -1.60286  -0.00000
  14   51646.2    193.6   0.000012599   0.00008   0.00001  -0.00005   0.00896
  15   43251.4    231.2   0.001532733   0.01167   0.00003  -0.00013   0.10801
  16   47933.2    208.6   0.047366077   0.32532   0.54916   0.15407  -0.00000
  17   43143.9    231.8   0.073377440   0.55991  -0.21295   0.71733  -0.00005
  18   43932.8    227.6   0.006115844   0.04583   0.20077   0.07431   0.00006
  19   48870.1    204.6   0.551872203   3.71767  -1.75885   0.79002   0.00005
  20   49101.7    203.7   0.381293199   2.55646  -0.13150  -1.59347   0.00000
  21   48300.7    207.0   0.634886874   4.32731   1.84037   0.96971   0.00001
  22   45169.7    221.4   0.087523661   0.63790  -0.00020  -0.00029  -0.79869
  23   46206.1    216.4   0.030307274   0.21593  -0.27289  -0.37612   0.00059
  24   47269.8    211.6   0.375405407   2.61452   0.71614   1.44971  -0.00006
  25   47904.4    208.7   0.042574219   0.29258  -0.42371  -0.33623  -0.00003
  26   51255.8    195.1   0.281083835   1.80538   0.00008   0.00011   1.34364
  27   52119.6    191.9   0.017716056   0.11190  -0.33364  -0.02420  -0.00085
  28   50946.7    196.3   0.168337792   1.08778  -0.00086  -0.00073   1.04297
  29   50999.9    196.1   0.254923686   1.64557  -0.98641  -0.82010  -0.00067
  30   56383.2    177.4   0.496493117   2.89894   1.68941  -0.21175  -0.00009

FINAL SINGLE POINT ENERGY     -1339.148715831203

DIPOLE MOMENT
-------------
                                X             Y             Z
Electronic contribution:     -0.59031      -1.22603       0.00011
Nuclear contribution   :      0.62476       3.84855      -0.00016
                        -----------------------------------------
Total Dipole Moment    :      0.03446       2.62252      -0.00005
                        -----------------------------------------
Magnitude (a.u.)       :      2.62275
Magnitude (Debye)      :      6.66649

Rotational constants in cm-1:     0.010488     0.001567     0.001383
Rotational constants in MHz :   314.420507    46.965772    41.449328

                             ****ORCA TERMINATED NORMALLY****
TOTAL RUN TIME: 0 days 9 hours 51 minutes 27 seconds 211 msec
