                         Program Version 5.0.2 -  RELEASE  -
|  1> %maxcore 38400
|  2> %pal
|  3>  nprocs= 4
|  4> end
|  5> !STEOM-DLPNO-CCSD DEF2-TZVP DEF2-TZVP/C def2/J TightSCF TightPNO CPCM
|  6> %MDCI
|  7>    Dorootwise true
|  8>    OTHRESH 0.005
|  9>    VTHRESH 0.005
| 10>    TCutPNOSingles 1e-11
| 11>    DTol 1e-5
| 12>    NROOTS  25
| 13>    DOSOLV  TRUE
| 14>    MAXITER 500
| 15> END
| 16> %CPCM
| 17>    SMD          TRUE
| 18>    SMDsolvent   "ACETONITRILE"
| 19> END
| 20>
| 21>
| 22> * xyz 0 1
| 23> C                  -5.15252500    3.78683200   -0.00005500
| 24> C                  -3.79144100    3.66343900   -0.00005200
| 25> C                  -3.18004300    2.38856400   -0.00003300
| 26> C                  -4.00071400    1.22018000   -0.00001900
| 27> C                  -5.40669600    1.38940600   -0.00002000
| 28> C                  -5.96631000    2.63818200   -0.00003800
| 29> C                  -1.78742100    2.25096500   -0.00002400
| 30> C                  -3.38834200   -0.06090600   -0.00000400
| 31> C                  -1.99848800   -0.16040500    0.00000000
| 32> C                  -1.18197600    1.01432600   -0.00000500
| 33> C                   0.26083200    0.86639900    0.00001000
| 34> C                   0.80317800   -0.41814200    0.00002100
| 35> C                  -1.36259400   -1.48358200   -0.00000000
| 36> H                  -1.19029900    3.15308400   -0.00003200
| 37> H                  -5.60982600    4.76815600   -0.00006900
| 38> H                  -3.15448700    4.53975900   -0.00006300
| 39> H                  -6.04425100    0.51527900   -0.00000500
| 40> H                  -7.04342300    2.74557200   -0.00003800
| 41> C                  -4.28501900   -1.24557400    0.00001200
| 42> C                  -4.74174300   -1.78389800    1.20010100
| 43> C                  -4.74181900   -1.78387200   -1.20006000
| 44> C                  -5.61630000   -2.85989600    1.19960700
| 45> H                  -4.40061200   -1.36052800    2.13761400
| 46> C                  -5.61637400   -2.85987200   -1.19953500
| 47> H                  -4.40074700   -1.36048100   -2.13758600
| 48> C                  -6.05418600   -3.40387800    0.00004400
| 49> H                  -5.95904900   -3.27267700    2.14042300
| 50> H                  -5.95918000   -3.27263400   -2.14033800
| 51> H                  -6.73737400   -4.24386400    0.00005600
| 52> O                  -1.91547400   -2.55400800   -0.00000900
| 53> O                   0.00929400   -1.52798100    0.00001300
| 54> C                   1.16802600    1.93502200    0.00001800
| 55> C                   2.16577600   -0.65341400    0.00003600
| 56> C                   3.05269100    0.42407900    0.00004100
| 57> C                   2.52677400    1.72912600    0.00003300
| 58> H                   3.20355900    2.57264400    0.00003900
| 59> H                   0.79646700    2.95048000    0.00001400
| 60> H                   2.52801400   -1.67218700    0.00004300
| 61> C                   4.44874700    0.21131500    0.00005800
| 62> C                   5.64839500    0.04157700    0.00006400
| 63> C                   7.04900000   -0.15351700    0.00001500
| 64> C                   7.92079600    0.94548000   -0.00001200
| 65> C                   7.59070800   -1.44739900   -0.00000400
| 66> C                   9.28994200    0.75068400   -0.00005500
| 67> H                   7.50965400    1.94667100    0.00000300
| 68> C                   8.96156600   -1.63022400   -0.00004800
| 69> H                   6.92396300   -2.29996900    0.00001700
| 70> C                   9.81565400   -0.53494200   -0.00007400
| 71> H                   9.95175600    1.60749300   -0.00007600
| 72> H                   9.36673300   -2.63417100   -0.00006200
| 73> H                  10.88798800   -0.68303700   -0.00010900
| 74> *
| 75>
| 76>
| 77>                          ****END OF INPUT****

CARTESIAN COORDINATES (ANGSTROEM)
---------------------------------
  C     -5.152525    3.786832   -0.000055
  C     -3.791441    3.663439   -0.000052
  C     -3.180043    2.388564   -0.000033
  C     -4.000714    1.220180   -0.000019
  C     -5.406696    1.389406   -0.000020
  C     -5.966310    2.638182   -0.000038
  C     -1.787421    2.250965   -0.000024
  C     -3.388342   -0.060906   -0.000004
  C     -1.998488   -0.160405    0.000000
  C     -1.181976    1.014326   -0.000005
  C      0.260832    0.866399    0.000010
  C      0.803178   -0.418142    0.000021
  C     -1.362594   -1.483582   -0.000000
  H     -1.190299    3.153084   -0.000032
  H     -5.609826    4.768156   -0.000069
  H     -3.154487    4.539759   -0.000063
  H     -6.044251    0.515279   -0.000005
  H     -7.043423    2.745572   -0.000038
  C     -4.285019   -1.245574    0.000012
  C     -4.741743   -1.783898    1.200101
  C     -4.741819   -1.783872   -1.200060
  C     -5.616300   -2.859896    1.199607
  H     -4.400612   -1.360528    2.137614
  C     -5.616374   -2.859872   -1.199535
  H     -4.400747   -1.360481   -2.137586
  C     -6.054186   -3.403878    0.000044
  H     -5.959049   -3.272677    2.140423
  H     -5.959180   -3.272634   -2.140338
  H     -6.737374   -4.243864    0.000056
  O     -1.915474   -2.554008   -0.000009
  O      0.009294   -1.527981    0.000013
  C      1.168026    1.935022    0.000018
  C      2.165776   -0.653414    0.000036
  C      3.052691    0.424079    0.000041
  C      2.526774    1.729126    0.000033
  H      3.203559    2.572644    0.000039
  H      0.796467    2.950480    0.000014
  H      2.528014   -1.672187    0.000043
  C      4.448747    0.211315    0.000058
  C      5.648395    0.041577    0.000064
  C      7.049000   -0.153517    0.000015
  C      7.920796    0.945480   -0.000012
  C      7.590708   -1.447399   -0.000004
  C      9.289942    0.750684   -0.000055
  H      7.509654    1.946671    0.000003
  C      8.961566   -1.630224   -0.000048
  H      6.923963   -2.299969    0.000017
  C      9.815654   -0.534942   -0.000074
  H      9.951756    1.607493   -0.000076
  H      9.366733   -2.634171   -0.000062
  H     10.887988   -0.683037   -0.000109

 Total Charge           Charge          ....    0
 Multiplicity           Mult            ....    1
 Number of Electrons    NEL             ....  220
 Basis Dimension        Dim             .... 1131

ORBITAL ENERGIES
----------------

  NO   OCC          E(Eh)            E(eV)
   0   2.0000     -20.623296      -561.1884
   1   2.0000     -20.543606      -559.0199
   2   2.0000     -11.396167      -310.1055
   3   2.0000     -11.316904      -307.9486
   4   2.0000     -11.276486      -306.8488
   5   2.0000     -11.272977      -306.7533
   6   2.0000     -11.267337      -306.5998
   7   2.0000     -11.262211      -306.4604
   8   2.0000     -11.262044      -306.4558
   9   2.0000     -11.256958      -306.3174
  10   2.0000     -11.255969      -306.2905
  11   2.0000     -11.251629      -306.1724
  12   2.0000     -11.246030      -306.0200
  13   2.0000     -11.244924      -305.9899
  14   2.0000     -11.244796      -305.9865
  15   2.0000     -11.243542      -305.9523
  16   2.0000     -11.240953      -305.8819
  17   2.0000     -11.240903      -305.8805
  18   2.0000     -11.240452      -305.8683
  19   2.0000     -11.240187      -305.8610
  20   2.0000     -11.239939      -305.8543
  21   2.0000     -11.238476      -305.8145
  22   2.0000     -11.238418      -305.8129
  23   2.0000     -11.236838      -305.7699
  24   2.0000     -11.234797      -305.7144
  25   2.0000     -11.233877      -305.6893
  26   2.0000     -11.233700      -305.6845
  27   2.0000     -11.233444      -305.6775
  28   2.0000     -11.229406      -305.5677
  29   2.0000     -11.229147      -305.5606
  30   2.0000     -11.227675      -305.5206
  31   2.0000     -11.227545      -305.5170
  32   2.0000     -11.226717      -305.4945
  33   2.0000      -1.481836       -40.3228
  34   2.0000      -1.379254       -37.5314
  35   2.0000      -1.204958       -32.7886
  36   2.0000      -1.179854       -32.1055
  37   2.0000      -1.168276       -31.7904
  38   2.0000      -1.157924       -31.5087
  39   2.0000      -1.137683       -30.9579
  40   2.0000      -1.095526       -29.8108
  41   2.0000      -1.076471       -29.2923
  42   2.0000      -1.056758       -28.7559
  43   2.0000      -1.040170       -28.3045
  44   2.0000      -1.030755       -28.0483
  45   2.0000      -1.023163       -27.8417
  46   2.0000      -1.018868       -27.7248
  47   2.0000      -1.014402       -27.6033
  48   2.0000      -0.998227       -27.1631
  49   2.0000      -0.974720       -26.5235
  50   2.0000      -0.917215       -24.9587
  51   2.0000      -0.892230       -24.2788
  52   2.0000      -0.871376       -23.7113
  53   2.0000      -0.853314       -23.2199
  54   2.0000      -0.841995       -22.9118
  55   2.0000      -0.834251       -22.7011
  56   2.0000      -0.831976       -22.6392
  57   2.0000      -0.825556       -22.4645
  58   2.0000      -0.796804       -21.6821
  59   2.0000      -0.785549       -21.3759
  60   2.0000      -0.767623       -20.8881
  61   2.0000      -0.732406       -19.9298
  62   2.0000      -0.721447       -19.6316
  63   2.0000      -0.716731       -19.5033
  64   2.0000      -0.694886       -18.9088
  65   2.0000      -0.682073       -18.5601
  66   2.0000      -0.674622       -18.3574
  67   2.0000      -0.667944       -18.1757
  68   2.0000      -0.663509       -18.0550
  69   2.0000      -0.653389       -17.7796
  70   2.0000      -0.644178       -17.5290
  71   2.0000      -0.640962       -17.4415
  72   2.0000      -0.636375       -17.3167
  73   2.0000      -0.632019       -17.1981
  74   2.0000      -0.628863       -17.1122
  75   2.0000      -0.610263       -16.6061
  76   2.0000      -0.606351       -16.4996
  77   2.0000      -0.604522       -16.4499
  78   2.0000      -0.597184       -16.2502
  79   2.0000      -0.590711       -16.0741
  80   2.0000      -0.585438       -15.9306
  81   2.0000      -0.582736       -15.8570
  82   2.0000      -0.574015       -15.6197
  83   2.0000      -0.560623       -15.2553
  84   2.0000      -0.551776       -15.0146
  85   2.0000      -0.549426       -14.9506
  86   2.0000      -0.538287       -14.6475
  87   2.0000      -0.530120       -14.4253
  88   2.0000      -0.517983       -14.0950
  89   2.0000      -0.513434       -13.9713
  90   2.0000      -0.509493       -13.8640
  91   2.0000      -0.504946       -13.7403
  92   2.0000      -0.503853       -13.7105
  93   2.0000      -0.500507       -13.6195
  94   2.0000      -0.498661       -13.5693
  95   2.0000      -0.490841       -13.3565
  96   2.0000      -0.476781       -12.9739
  97   2.0000      -0.474671       -12.9164
  98   2.0000      -0.457790       -12.4571
  99   2.0000      -0.437296       -11.8994
 100   2.0000      -0.399757       -10.8779
 101   2.0000      -0.398897       -10.8545
 102   2.0000      -0.374472       -10.1899
 103   2.0000      -0.346429        -9.4268
 104   2.0000      -0.342744        -9.3265
 105   2.0000      -0.338435        -9.2093
 106   2.0000      -0.332824        -9.0566
 107   2.0000      -0.330081        -8.9820
 108   2.0000      -0.309367        -8.4183
 109   2.0000      -0.273260        -7.4358
 110   0.0000       0.040045         1.0897
 111   0.0000       0.053412         1.4534
 112   0.0000       0.093511         2.5446
 113   0.0000       0.116630         3.1737
 114   0.0000       0.120089         3.2678

E(0)                                       ...  -1334.621377461
E(0)                                       ...  -1334.621377461
E(CORR)(strong-pairs)                      ...     -5.221293278
E(CORR)(weak-pairs)                        ...     -0.012044344
E(CORR)(corrected)                         ...     -5.233337622
E(TOT)                                     ...  -1339.854715083

MULLIKEN ATOMIC CHARGES
-----------------------
   0 C :   -0.130321
   1 C :   -0.283195
   2 C :    0.136728
   3 C :    0.137285
   4 C :   -0.264341
   5 C :   -0.162011
   6 C :   -0.379097
   7 C :    0.266808
   8 C :   -0.091978
   9 C :    0.074678
  10 C :    0.192536
  11 C :    0.199864
  12 C :    0.296601
  13 H :    0.169149
  14 H :    0.173995
  15 H :    0.172610
  16 H :    0.183364
  17 H :    0.171932
  18 C :    0.067215
  19 C :   -0.251363
  20 C :   -0.275158
  21 C :   -0.193938
  22 H :    0.166159
  23 C :   -0.186583
  24 H :    0.166346
  25 C :   -0.153768
  26 H :    0.167479
  27 H :    0.167873
  28 H :    0.169445
  29 O :   -0.320567
  30 O :   -0.184595
  31 C :   -0.263859
  32 C :   -0.374558
  33 C :    0.043376
  34 C :   -0.214400
  35 H :    0.175891
  36 H :    0.172968
  37 H :    0.167486
  38 C :    0.050703
  39 C :    0.178144
  40 C :   -0.069096
  41 C :   -0.209570
  42 C :   -0.199035
  43 C :   -0.200770
  44 H :    0.173872
  45 C :   -0.199152
  46 H :    0.173775
  47 C :   -0.127152
  48 H :    0.172104
  49 H :    0.171649
  50 H :    0.174471
Sum of atomic charges:   -0.0000015

LOEWDIN ATOMIC CHARGES
----------------------
   0 C :   -0.132797
   1 C :   -0.100395
   2 C :   -0.088180
   3 C :   -0.051834
   4 C :   -0.094667
   5 C :   -0.137898
   6 C :   -0.046333
   7 C :    0.000295
   8 C :   -0.051192
   9 C :   -0.066199
  10 C :   -0.082307
  11 C :   -0.185690
  12 C :   -0.393478
  13 H :    0.169825
  14 H :    0.159703
  15 H :    0.163188
  16 H :    0.167256
  17 H :    0.158973
  18 C :   -0.106837
  19 C :   -0.106686
  20 C :   -0.106878
  21 C :   -0.150567
  22 H :    0.161206
  23 C :   -0.150814
  24 H :    0.161230
  25 C :   -0.153346
  26 H :    0.155942
  27 H :    0.155938
  28 H :    0.154730
  29 O :    0.137685
  30 O :    0.346659
  31 C :   -0.085175
  32 C :   -0.059540
  33 C :   -0.145028
  34 C :   -0.096236
  35 H :    0.165302
  36 H :    0.166884
  37 H :    0.170472
  38 C :   -0.019785
  39 C :   -0.015196
  40 C :   -0.155594
  41 C :   -0.094629
  42 C :   -0.093849
  43 C :   -0.142826
  44 H :    0.162588
  45 C :   -0.142614
  46 H :    0.162561
  47 C :   -0.138763
  48 H :    0.158673
  49 H :    0.158640
  50 H :    0.157584

  Mayer bond orders larger than 0.100000
B(  0-C ,  1-C ) :   1.4210 B(  0-C ,  5-C ) :   1.1125 B(  0-C , 14-H ) :   0.9341
B(  1-C ,  2-C ) :   1.1360 B(  1-C , 15-H ) :   0.9429 B(  2-C ,  3-C ) :   1.2186
B(  2-C ,  6-C ) :   1.1632 B(  3-C ,  4-C ) :   1.1353 B(  3-C ,  7-C ) :   1.1441
B(  4-C ,  5-C ) :   1.4489 B(  4-C , 16-H ) :   0.9226 B(  5-C , 17-H ) :   0.9341
B(  6-C ,  9-C ) :   1.3548 B(  6-C , 13-H ) :   0.9374 B(  7-C ,  8-C ) :   1.3135
B(  7-C , 18-C ) :   0.6687 B(  8-C ,  9-C ) :   1.1695 B(  8-C , 12-C ) :   0.9097
B(  9-C , 10-C ) :   0.9620 B( 10-C , 11-C ) :   1.2594 B( 10-C , 31-C ) :   1.2004
B( 11-C , 30-O ) :   0.9781 B( 11-C , 32-C ) :   1.2650 B( 12-C , 29-O ) :   2.0044
B( 12-C , 30-O ) :   1.1160 B( 18-C , 19-C ) :   1.3148 B( 18-C , 20-C ) :   1.3020
B( 19-C , 21-C ) :   1.3393 B( 19-C , 22-H ) :   0.9354 B( 20-C , 23-C ) :   1.3344
B( 20-C , 24-H ) :   0.9375 B( 21-C , 25-C ) :   1.2835 B( 21-C , 26-H ) :   0.9334
B( 23-C , 25-C ) :   1.2880 B( 23-C , 27-H ) :   0.9332 B( 25-C , 28-H ) :   0.9312
B( 31-C , 34-C ) :   1.3624 B( 31-C , 36-H ) :   0.9213 B( 32-C , 33-C ) :   1.2257
B( 32-C , 37-H ) :   0.9712 B( 33-C , 34-C ) :   1.1866 B( 33-C , 38-C ) :   1.0835
B( 33-C , 39-C ) :  -0.1647 B( 34-C , 35-H ) :   0.9461 B( 38-C , 39-C ) :   2.5766
B( 38-C , 40-C ) :  -0.1722 B( 39-C , 40-C ) :   0.9874 B( 40-C , 41-C ) :   1.2554
B( 40-C , 42-C ) :   1.2491 B( 41-C , 43-C ) :   1.3468 B( 41-C , 44-H ) :   0.9364
B( 42-C , 45-C ) :   1.3452 B( 42-C , 46-H ) :   0.9345 B( 43-C , 47-C ) :   1.2818
B( 43-C , 48-H ) :   0.9304 B( 45-C , 47-C ) :   1.2902 B( 45-C , 49-H ) :   0.9302
B( 47-C , 50-H ) :   0.9266

-----------------------------------------------------------------------------
         ABSORPTION SPECTRUM VIA TRANSITION ELECTRIC DIPOLE MOMENTS
-----------------------------------------------------------------------------
State   Energy  Wavelength   fosc         T2         TX        TY        TZ
        (cm-1)    (nm)                  (au**2)     (au)      (au)      (au)
-----------------------------------------------------------------------------
   1   27989.9    357.3   0.169936789   1.99876   1.36601   0.34482   0.00040
   2   30590.5    326.9   1.059219423  11.39923   3.24767   0.92123   0.00133
   3   32334.4    309.3   0.000208061   0.00212   0.00560   0.02056   0.03004
   4   35059.4    285.2   0.961363875   9.02732   3.00435   0.03350   0.00357
   5   36418.7    274.6   0.001506511   0.01362   0.10834   0.03342   0.00397
   6   38566.6    259.3   0.000544432   0.00465   0.04328   0.03341   0.02036
   7   39487.3    253.2   0.198268220   1.65299   0.08381   1.28238   0.00572
   8   40722.2    245.6   0.003806291   0.03077   0.05186   0.08089   0.09537
   9   41366.9    241.7   0.013818676   0.10997   0.28898   0.15139   0.00574
  10   40014.3    249.9   0.001222677   0.01006   0.03435   0.04813   0.01342
  11   43444.0    230.2   0.016290391   0.12345   0.29122   0.18375   0.00807
  12   42268.5    236.6   0.004476556   0.03487   0.02277   0.14167   0.07298
  13   44579.7    224.3   0.070892566   0.52353   0.17327   0.54964   0.01855
  14   45382.5    220.3   0.223628871   1.62224   0.29511   1.23588   0.02642
  15   46641.7    214.4   0.220834433   1.55872   0.81705   0.94370   0.00777
  16   48554.7    206.0   0.060263192   0.40860   0.46726   0.24848   0.00691
  17   48371.0    206.7   0.096860892   0.65923   0.66722   0.42375   0.01729
  18   45174.9    221.4   0.000374517   0.00273   0.03974   0.03110   0.00596
  19   49904.7    200.4   0.000449758   0.00297   0.03857   0.03761   0.00068
  20   51289.7    195.0   0.248782184   1.59685   0.97339   0.80480   0.01442
  21   57598.6    173.6   0.003731695   0.02133   0.09056   0.04039   0.10637

FINAL SINGLE POINT ENERGY     -1339.727183683201

DIPOLE MOMENT
-------------
                                X             Y             Z
Electronic contribution:     -0.61983      -1.42331       0.00148
Nuclear contribution   :      0.62476       3.84855      -0.00016
                        -----------------------------------------
Total Dipole Moment    :      0.00494       2.42524       0.00131
                        -----------------------------------------
Magnitude (a.u.)       :      2.42525
Magnitude (Debye)      :      6.16449

Rotational constants in cm-1:     0.010488     0.001567     0.001383
Rotational constants in MHz :   314.420507    46.965772    41.449328

                             ****ORCA TERMINATED NORMALLY****
TOTAL RUN TIME: 1 days 22 hours 11 minutes 11 seconds 17 msec
