                         Program Version 5.0.2 -  RELEASE  -
|  1> %maxcore 3200
|  2> %pal
|  3>  nprocs= 8
|  4> end
|  5> ! RI-B2PLYP D3BJ def2-TZVP def2/J def2-TZVP/C RIJCOSX CPCM TightSCF
|  6> %TDDFT DCORR 4
|  7>    NROOTS   30
|  8>
|  9>    TDA      FALSE
| 10> END
| 11>
| 12> %CPCM
| 13>    SMD          TRUE
| 14>    SMDsolvent   "ACETONITRILE"
| 15> END
| 16>
| 17>
| 18> * xyz 0 1
| 19> C                  -5.15252500    3.78683200   -0.00005500
| 20> C                  -3.79144100    3.66343900   -0.00005200
| 21> C                  -3.18004300    2.38856400   -0.00003300
| 22> C                  -4.00071400    1.22018000   -0.00001900
| 23> C                  -5.40669600    1.38940600   -0.00002000
| 24> C                  -5.96631000    2.63818200   -0.00003800
| 25> C                  -1.78742100    2.25096500   -0.00002400
| 26> C                  -3.38834200   -0.06090600   -0.00000400
| 27> C                  -1.99848800   -0.16040500    0.00000000
| 28> C                  -1.18197600    1.01432600   -0.00000500
| 29> C                   0.26083200    0.86639900    0.00001000
| 30> C                   0.80317800   -0.41814200    0.00002100
| 31> C                  -1.36259400   -1.48358200   -0.00000000
| 32> H                  -1.19029900    3.15308400   -0.00003200
| 33> H                  -5.60982600    4.76815600   -0.00006900
| 34> H                  -3.15448700    4.53975900   -0.00006300
| 35> H                  -6.04425100    0.51527900   -0.00000500
| 36> H                  -7.04342300    2.74557200   -0.00003800
| 37> C                  -4.28501900   -1.24557400    0.00001200
| 38> C                  -4.74174300   -1.78389800    1.20010100
| 39> C                  -4.74181900   -1.78387200   -1.20006000
| 40> C                  -5.61630000   -2.85989600    1.19960700
| 41> H                  -4.40061200   -1.36052800    2.13761400
| 42> C                  -5.61637400   -2.85987200   -1.19953500
| 43> H                  -4.40074700   -1.36048100   -2.13758600
| 44> C                  -6.05418600   -3.40387800    0.00004400
| 45> H                  -5.95904900   -3.27267700    2.14042300
| 46> H                  -5.95918000   -3.27263400   -2.14033800
| 47> H                  -6.73737400   -4.24386400    0.00005600
| 48> O                  -1.91547400   -2.55400800   -0.00000900
| 49> O                   0.00929400   -1.52798100    0.00001300
| 50> C                   1.16802600    1.93502200    0.00001800
| 51> C                   2.16577600   -0.65341400    0.00003600
| 52> C                   3.05269100    0.42407900    0.00004100
| 53> C                   2.52677400    1.72912600    0.00003300
| 54> H                   3.20355900    2.57264400    0.00003900
| 55> H                   0.79646700    2.95048000    0.00001400
| 56> H                   2.52801400   -1.67218700    0.00004300
| 57> C                   4.44874700    0.21131500    0.00005800
| 58> C                   5.64839500    0.04157700    0.00006400
| 59> C                   7.04900000   -0.15351700    0.00001500
| 60> C                   7.92079600    0.94548000   -0.00001200
| 61> C                   7.59070800   -1.44739900   -0.00000400
| 62> C                   9.28994200    0.75068400   -0.00005500
| 63> H                   7.50965400    1.94667100    0.00000300
| 64> C                   8.96156600   -1.63022400   -0.00004800
| 65> H                   6.92396300   -2.29996900    0.00001700
| 66> C                   9.81565400   -0.53494200   -0.00007400
| 67> H                   9.95175600    1.60749300   -0.00007600
| 68> H                   9.36673300   -2.63417100   -0.00006200
| 69> H                  10.88798800   -0.68303700   -0.00010900
| 70> *
| 71>
| 72>
| 73>                          ****END OF INPUT****

CARTESIAN COORDINATES (ANGSTROEM)
---------------------------------
  C     -5.152525    3.786832   -0.000055
  C     -3.791441    3.663439   -0.000052
  C     -3.180043    2.388564   -0.000033
  C     -4.000714    1.220180   -0.000019
  C     -5.406696    1.389406   -0.000020
  C     -5.966310    2.638182   -0.000038
  C     -1.787421    2.250965   -0.000024
  C     -3.388342   -0.060906   -0.000004
  C     -1.998488   -0.160405    0.000000
  C     -1.181976    1.014326   -0.000005
  C      0.260832    0.866399    0.000010
  C      0.803178   -0.418142    0.000021
  C     -1.362594   -1.483582   -0.000000
  H     -1.190299    3.153084   -0.000032
  H     -5.609826    4.768156   -0.000069
  H     -3.154487    4.539759   -0.000063
  H     -6.044251    0.515279   -0.000005
  H     -7.043423    2.745572   -0.000038
  C     -4.285019   -1.245574    0.000012
  C     -4.741743   -1.783898    1.200101
  C     -4.741819   -1.783872   -1.200060
  C     -5.616300   -2.859896    1.199607
  H     -4.400612   -1.360528    2.137614
  C     -5.616374   -2.859872   -1.199535
  H     -4.400747   -1.360481   -2.137586
  C     -6.054186   -3.403878    0.000044
  H     -5.959049   -3.272677    2.140423
  H     -5.959180   -3.272634   -2.140338
  H     -6.737374   -4.243864    0.000056
  O     -1.915474   -2.554008   -0.000009
  O      0.009294   -1.527981    0.000013
  C      1.168026    1.935022    0.000018
  C      2.165776   -0.653414    0.000036
  C      3.052691    0.424079    0.000041
  C      2.526774    1.729126    0.000033
  H      3.203559    2.572644    0.000039
  H      0.796467    2.950480    0.000014
  H      2.528014   -1.672187    0.000043
  C      4.448747    0.211315    0.000058
  C      5.648395    0.041577    0.000064
  C      7.049000   -0.153517    0.000015
  C      7.920796    0.945480   -0.000012
  C      7.590708   -1.447399   -0.000004
  C      9.289942    0.750684   -0.000055
  H      7.509654    1.946671    0.000003
  C      8.961566   -1.630224   -0.000048
  H      6.923963   -2.299969    0.000017
  C      9.815654   -0.534942   -0.000074
  H      9.951756    1.607493   -0.000076
  H      9.366733   -2.634171   -0.000062
  H     10.887988   -0.683037   -0.000109

 Total Charge           Charge          ....    0
 Multiplicity           Mult            ....    1
 Number of Electrons    NEL             ....  220
 Basis Dimension        Dim             .... 1131

ORBITAL ENERGIES
----------------

  NO   OCC          E(Eh)            E(eV)
   0   2.0000     -19.791239      -538.5470
   1   2.0000     -19.713902      -536.4425
   2   2.0000     -10.768263      -293.0193
   3   2.0000     -10.697698      -291.0992
   4   2.0000     -10.655980      -289.9640
   5   2.0000     -10.655868      -289.9609
   6   2.0000     -10.650166      -289.8057
   7   2.0000     -10.648690      -289.7656
   8   2.0000     -10.647545      -289.7344
   9   2.0000     -10.642651      -289.6013
  10   2.0000     -10.639484      -289.5151
  11   2.0000     -10.638083      -289.4770
  12   2.0000     -10.629853      -289.2530
  13   2.0000     -10.629511      -289.2437
  14   2.0000     -10.628657      -289.2205
  15   2.0000     -10.628211      -289.2083
  16   2.0000     -10.625668      -289.1391
  17   2.0000     -10.625177      -289.1258
  18   2.0000     -10.624915      -289.1186
  19   2.0000     -10.624876      -289.1176
  20   2.0000     -10.624865      -289.1173
  21   2.0000     -10.623792      -289.0881
  22   2.0000     -10.622704      -289.0585
  23   2.0000     -10.621247      -289.0188
  24   2.0000     -10.621069      -289.0140
  25   2.0000     -10.620354      -288.9945
  26   2.0000     -10.619458      -288.9701
  27   2.0000     -10.619217      -288.9636
  28   2.0000     -10.614279      -288.8292
  29   2.0000     -10.614132      -288.8252
  30   2.0000     -10.613185      -288.7994
  31   2.0000     -10.613096      -288.7970
  32   2.0000     -10.612269      -288.7745
  33   2.0000      -1.274869       -34.6909
  34   2.0000      -1.181090       -32.1391
  35   2.0000      -1.027943       -27.9717
  36   2.0000      -1.006112       -27.3777
  37   2.0000      -0.995299       -27.0835
  38   2.0000      -0.985514       -26.8172
  39   2.0000      -0.969002       -26.3679
  40   2.0000      -0.930998       -25.3337
  41   2.0000      -0.914099       -24.8739
  42   2.0000      -0.897688       -24.4273
  43   2.0000      -0.884898       -24.0793
  44   2.0000      -0.874712       -23.8021
  45   2.0000      -0.866977       -23.5917
  46   2.0000      -0.863095       -23.4860
  47   2.0000      -0.858643       -23.3649
  48   2.0000      -0.845200       -22.9990
  49   2.0000      -0.824744       -22.4424
  50   2.0000      -0.780164       -21.2293
  51   2.0000      -0.756414       -20.5831
  52   2.0000      -0.742399       -20.2017
  53   2.0000      -0.722906       -19.6713
  54   2.0000      -0.713388       -19.4123
  55   2.0000      -0.706829       -19.2338
  56   2.0000      -0.704178       -19.1617
  57   2.0000      -0.697834       -18.9890
  58   2.0000      -0.675358       -18.3774
  59   2.0000      -0.665039       -18.0966
  60   2.0000      -0.648823       -17.6554
  61   2.0000      -0.622830       -16.9481
  62   2.0000      -0.611232       -16.6325
  63   2.0000      -0.607792       -16.5389
  64   2.0000      -0.586655       -15.9637
  65   2.0000      -0.575283       -15.6542
  66   2.0000      -0.568100       -15.4588
  67   2.0000      -0.562037       -15.2938
  68   2.0000      -0.557452       -15.1690
  69   2.0000      -0.547145       -14.8886
  70   2.0000      -0.540673       -14.7125
  71   2.0000      -0.537035       -14.6135
  72   2.0000      -0.534972       -14.5573
  73   2.0000      -0.529570       -14.4103
  74   2.0000      -0.528486       -14.3808
  75   2.0000      -0.512280       -13.9399
  76   2.0000      -0.508772       -13.8444
  77   2.0000      -0.506952       -13.7949
  78   2.0000      -0.500425       -13.6173
  79   2.0000      -0.495178       -13.4745
  80   2.0000      -0.490186       -13.3386
  81   2.0000      -0.487821       -13.2743
  82   2.0000      -0.475882       -12.9494
  83   2.0000      -0.469429       -12.7738
  84   2.0000      -0.466734       -12.7005
  85   2.0000      -0.465634       -12.6705
  86   2.0000      -0.450722       -12.2648
  87   2.0000      -0.447841       -12.1864
  88   2.0000      -0.431792       -11.7497
  89   2.0000      -0.426009       -11.5923
  90   2.0000      -0.425010       -11.5651
  91   2.0000      -0.422493       -11.4966
  92   2.0000      -0.418614       -11.3911
  93   2.0000      -0.413548       -11.2532
  94   2.0000      -0.410460       -11.1692
  95   2.0000      -0.408001       -11.1023
  96   2.0000      -0.405036       -11.0216
  97   2.0000      -0.391383       -10.6501
  98   2.0000      -0.370626       -10.0853
  99   2.0000      -0.364978        -9.9316
 100   2.0000      -0.343933        -9.3589
 101   2.0000      -0.332293        -9.0422
 102   2.0000      -0.325710        -8.8630
 103   2.0000      -0.300772        -8.1844
 104   2.0000      -0.296384        -8.0650
 105   2.0000      -0.291841        -7.9414
 106   2.0000      -0.289336        -7.8732
 107   2.0000      -0.282954        -7.6996
 108   2.0000      -0.268167        -7.2972
 109   2.0000      -0.238155        -6.4805
 110   0.0000      -0.032012        -0.8711
 111   0.0000      -0.022944        -0.6243
 112   0.0000       0.015487         0.4214
 113   0.0000       0.035368         0.9624
 114   0.0000       0.039100         1.0640

MULLIKEN ATOMIC CHARGES
-----------------------
   0 C :   -0.116202
   1 C :   -0.264424
   2 C :    0.136849
   3 C :    0.076060
   4 C :   -0.233498
   5 C :   -0.166330
   6 C :   -0.380963
   7 C :    0.307121
   8 C :   -0.147644
   9 C :    0.119052
  10 C :    0.167278
  11 C :    0.243293
  12 C :    0.404844
  13 H :    0.160199
  14 H :    0.163161
  15 H :    0.158740
  16 H :    0.177479
  17 H :    0.160972
  18 C :    0.102615
  19 C :   -0.239255
  20 C :   -0.239133
  21 C :   -0.188554
  22 H :    0.154110
  23 C :   -0.188640
  24 H :    0.154107
  25 C :   -0.140219
  26 H :    0.154239
  27 H :    0.154281
  28 H :    0.156579
  29 O :   -0.398701
  30 O :   -0.259970
  31 C :   -0.240299
  32 C :   -0.351554
  33 C :    0.005443
  34 C :   -0.210038
  35 H :    0.164861
  36 H :    0.167917
  37 H :    0.160423
  38 C :    0.070942
  39 C :    0.178352
  40 C :   -0.056709
  41 C :   -0.200345
  42 C :   -0.200589
  43 C :   -0.186705
  44 H :    0.164677
  45 C :   -0.186784
  46 H :    0.164352
  47 C :   -0.113253
  48 H :    0.159122
  49 H :    0.160016
  50 H :    0.162724
Sum of atomic charges:   -0.0000000

LOEWDIN ATOMIC CHARGES
----------------------
   0 C :   -0.126513
   1 C :   -0.096619
   2 C :   -0.084100
   3 C :   -0.051700
   4 C :   -0.087729
   5 C :   -0.135399
   6 C :   -0.044849
   7 C :    0.011856
   8 C :   -0.049292
   9 C :   -0.062208
  10 C :   -0.079626
  11 C :   -0.176169
  12 C :   -0.359933
  13 H :    0.164865
  14 H :    0.154619
  15 H :    0.158205
  16 H :    0.162859
  17 H :    0.153811
  18 C :   -0.099329
  19 C :   -0.101664
  20 C :   -0.101664
  21 C :   -0.145957
  22 H :    0.155802
  23 C :   -0.145957
  24 H :    0.155802
  25 C :   -0.150255
  26 H :    0.150703
  27 H :    0.150703
  28 H :    0.149523
  29 O :    0.088410
  30 O :    0.325961
  31 C :   -0.078575
  32 C :   -0.055163
  33 C :   -0.140613
  34 C :   -0.091916
  35 H :    0.160041
  36 H :    0.161797
  37 H :    0.165427
  38 C :   -0.023556
  39 C :   -0.018600
  40 C :   -0.152236
  41 C :   -0.087617
  42 C :   -0.087733
  43 C :   -0.139079
  44 H :    0.157848
  45 C :   -0.139146
  46 H :    0.157822
  47 C :   -0.132878
  48 H :    0.153672
  49 H :    0.153720
  50 H :    0.152632

  Mayer bond orders larger than 0.100000
B(  0-C ,  1-C ) :   1.5444 B(  0-C ,  5-C ) :   1.2292 B(  0-C , 14-H ) :   0.9799
B(  1-C ,  2-C ) :   1.2192 B(  1-C , 15-H ) :   0.9881 B(  2-C ,  3-C ) :   1.2752
B(  2-C ,  6-C ) :   1.2631 B(  3-C ,  4-C ) :   1.2076 B(  3-C ,  7-C ) :   1.1963
B(  4-C ,  5-C ) :   1.5860 B(  4-C , 16-H ) :   0.9617 B(  5-C , 17-H ) :   0.9824
B(  6-C ,  9-C ) :   1.4903 B(  6-C , 13-H ) :   0.9727 B(  7-C ,  8-C ) :   1.3730
B(  7-C , 18-C ) :   0.7221 B(  8-C ,  9-C ) :   1.2451 B(  8-C , 12-C ) :   0.9967
B(  9-C , 10-C ) :   0.9955 B( 10-C , 11-C ) :   1.3479 B( 10-C , 31-C ) :   1.2860
B( 11-C , 30-O ) :   0.9866 B( 11-C , 32-C ) :   1.3914 B( 12-C , 29-O ) :   2.0683
B( 12-C , 30-O ) :   1.1642 B( 18-C , 19-C ) :   1.3943 B( 18-C , 20-C ) :   1.3945
B( 19-C , 21-C ) :   1.4390 B( 19-C , 22-H ) :   0.9845 B( 20-C , 23-C ) :   1.4390
B( 20-C , 24-H ) :   0.9845 B( 21-C , 25-C ) :   1.3909 B( 21-C , 26-H ) :   0.9828
B( 23-C , 25-C ) :   1.3908 B( 23-C , 27-H ) :   0.9828 B( 25-C , 28-H ) :   0.9779
B( 31-C , 34-C ) :   1.4962 B( 31-C , 36-H ) :   0.9579 B( 32-C , 33-C ) :   1.3401
B( 32-C , 37-H ) :   1.0144 B( 33-C , 34-C ) :   1.2939 B( 33-C , 38-C ) :   1.1357
B( 33-C , 39-C ) :  -0.1466 B( 34-C , 35-H ) :   0.9916 B( 38-C , 39-C ) :   2.8229
B( 38-C , 40-C ) :  -0.1438 B( 39-C , 40-C ) :   1.0479 B( 40-C , 41-C ) :   1.3497
B( 40-C , 42-C ) :   1.3498 B( 41-C , 43-C ) :   1.4554 B( 41-C , 44-H ) :   0.9775
B( 42-C , 45-C ) :   1.4568 B( 42-C , 46-H ) :   0.9778 B( 43-C , 47-C ) :   1.3901
B( 43-C , 48-H ) :   0.9797 B( 45-C , 47-C ) :   1.3915 B( 45-C , 49-H ) :   0.9781
B( 47-C , 50-H ) :   0.9734

MP2 TOTAL ENERGY:    -1341.959962378 Eh

-----------------------------------------------------------------------------
         ABSORPTION SPECTRUM VIA TRANSITION ELECTRIC DIPOLE MOMENTS
-----------------------------------------------------------------------------
State   Energy    Wavelength  fosc         T2        TX        TY        TZ
        (cm-1)      (nm)                 (au**2)    (au)      (au)      (au)
-----------------------------------------------------------------------------
   1   28427.3    351.8   1.354532315  15.68664  -3.81026   1.08100  -0.00001
   2   27494.8    363.7   0.364984969   4.37018  -2.04770  -0.42085   0.00000
   3   32903.2    303.9   0.530360636   5.30650  -2.30339  -0.02963   0.00002
   4   32657.6    306.2   0.000030405   0.00031  -0.00001  -0.00000  -0.01751
   5   34061.6    293.6   0.016869804   0.16305  -0.05435  -0.40012   0.00002
   6   35946.5    278.2   0.287032596   2.62875   0.96424  -1.30345   0.00003
   7   38250.4    261.4   0.129602979   1.11546   0.97070   0.41617   0.00003
   8   37849.9    264.2   0.002106530   0.01832  -0.02791   0.13245  -0.00000
   9   40766.6    245.3   0.000002766   0.00002   0.00000  -0.00002  -0.00473
  10   36557.8    273.5   0.026211173   0.23604  -0.32199   0.36381  -0.00002
  11   37403.3    267.4   0.004933937   0.04343  -0.09332  -0.18633   0.00019
  12   37520.7    266.5   0.002764984   0.02426  -0.00022  -0.00025  -0.15576
  13   38639.6    258.8   0.091275442   0.77767  -0.86229   0.18476   0.00002
  14   40889.4    244.6   0.000018496   0.00015   0.00005   0.00019  -0.01220
  15   38096.9    262.5   0.011274620   0.09743   0.24809   0.18942   0.00001
  16   42299.9    236.4   0.750148208   5.83825  -1.17362   2.11208  -0.00002
  17   41097.4    243.3   0.000676302   0.00542   0.00038   0.00037   0.07360
  18   43335.1    230.8   0.147826988   1.12303  -0.79727  -0.69813   0.00004
  19   44445.9    225.0   0.005086314   0.03767   0.04920  -0.18776  -0.00001
  20   44164.3    226.4   0.208698624   1.55569   0.13133   1.24034  -0.00000
  21   45056.8    221.9   0.059975947   0.43822  -0.22618   0.62214   0.00001
  22   49757.2    201.0   0.000000005   0.00000  -0.00002  -0.00017   0.00005
  23   46076.9    217.0   0.062897032   0.44939  -0.66654   0.07150   0.00002
  24   43780.9    228.4   0.000197221   0.00148   0.00198   0.00045  -0.03846
  25   43523.6    229.8   0.155707261   1.17777   1.06432   0.21209   0.00006
  26   44967.9    222.4   0.057552166   0.42134   0.25016   0.59897  -0.00003
  27   45323.2    220.6   0.099405370   0.72205  -0.63705  -0.56233  -0.00002
  28   49145.1    203.5   0.528158757   3.53802  -1.87939   0.07691   0.00002
  29   45733.2    218.7   0.094508082   0.68032   0.82255   0.06109   0.00003
  30   46772.4    213.8   0.127512214   0.89751  -0.38734  -0.86456   0.00001

Dispersion correction           -0.061542503
FINAL SINGLE POINT ENERGY     -1340.175008453123

DIPOLE MOMENT
-------------
                                X             Y             Z
Electronic contribution:     -0.58556      -1.23619       0.00012
Nuclear contribution   :      0.62476       3.84855      -0.00016
                        -----------------------------------------
Total Dipole Moment    :      0.03920       2.61236      -0.00005
                        -----------------------------------------
Magnitude (a.u.)       :      2.61266
Magnitude (Debye)      :      6.64085

Rotational constants in cm-1:     0.010488     0.001567     0.001383
Rotational constants in MHz :   314.420507    46.965772    41.449328

                             ****ORCA TERMINATED NORMALLY****
TOTAL RUN TIME: 0 days 2 hours 1 minutes 40 seconds 938 msec
