                         Program Version 5.0.2 -  RELEASE  -
|  1> %maxcore 3200
|  2> %pal
|  3>  nprocs= 8
|  4> end
|  5> ! RI-wB2PLYP def2-TZVP def2/J def2-TZVP/C RIJCOSX CPCM TightSCF
|  6> %TDDFT DCORR 1
|  7>    NROOTS   30
|  8>
|  9>    TDA      FALSE
| 10> END
| 11>
| 12> %CPCM
| 13>    SMD          TRUE
| 14>    SMDsolvent   "ACETONITRILE"
| 15> END
| 16>
| 17>
| 18> * xyz 0 1
| 19> C                  -5.15252500    3.78683200   -0.00005500
| 20> C                  -3.79144100    3.66343900   -0.00005200
| 21> C                  -3.18004300    2.38856400   -0.00003300
| 22> C                  -4.00071400    1.22018000   -0.00001900
| 23> C                  -5.40669600    1.38940600   -0.00002000
| 24> C                  -5.96631000    2.63818200   -0.00003800
| 25> C                  -1.78742100    2.25096500   -0.00002400
| 26> C                  -3.38834200   -0.06090600   -0.00000400
| 27> C                  -1.99848800   -0.16040500    0.00000000
| 28> C                  -1.18197600    1.01432600   -0.00000500
| 29> C                   0.26083200    0.86639900    0.00001000
| 30> C                   0.80317800   -0.41814200    0.00002100
| 31> C                  -1.36259400   -1.48358200   -0.00000000
| 32> H                  -1.19029900    3.15308400   -0.00003200
| 33> H                  -5.60982600    4.76815600   -0.00006900
| 34> H                  -3.15448700    4.53975900   -0.00006300
| 35> H                  -6.04425100    0.51527900   -0.00000500
| 36> H                  -7.04342300    2.74557200   -0.00003800
| 37> C                  -4.28501900   -1.24557400    0.00001200
| 38> C                  -4.74174300   -1.78389800    1.20010100
| 39> C                  -4.74181900   -1.78387200   -1.20006000
| 40> C                  -5.61630000   -2.85989600    1.19960700
| 41> H                  -4.40061200   -1.36052800    2.13761400
| 42> C                  -5.61637400   -2.85987200   -1.19953500
| 43> H                  -4.40074700   -1.36048100   -2.13758600
| 44> C                  -6.05418600   -3.40387800    0.00004400
| 45> H                  -5.95904900   -3.27267700    2.14042300
| 46> H                  -5.95918000   -3.27263400   -2.14033800
| 47> H                  -6.73737400   -4.24386400    0.00005600
| 48> O                  -1.91547400   -2.55400800   -0.00000900
| 49> O                   0.00929400   -1.52798100    0.00001300
| 50> C                   1.16802600    1.93502200    0.00001800
| 51> C                   2.16577600   -0.65341400    0.00003600
| 52> C                   3.05269100    0.42407900    0.00004100
| 53> C                   2.52677400    1.72912600    0.00003300
| 54> H                   3.20355900    2.57264400    0.00003900
| 55> H                   0.79646700    2.95048000    0.00001400
| 56> H                   2.52801400   -1.67218700    0.00004300
| 57> C                   4.44874700    0.21131500    0.00005800
| 58> C                   5.64839500    0.04157700    0.00006400
| 59> C                   7.04900000   -0.15351700    0.00001500
| 60> C                   7.92079600    0.94548000   -0.00001200
| 61> C                   7.59070800   -1.44739900   -0.00000400
| 62> C                   9.28994200    0.75068400   -0.00005500
| 63> H                   7.50965400    1.94667100    0.00000300
| 64> C                   8.96156600   -1.63022400   -0.00004800
| 65> H                   6.92396300   -2.29996900    0.00001700
| 66> C                   9.81565400   -0.53494200   -0.00007400
| 67> H                   9.95175600    1.60749300   -0.00007600
| 68> H                   9.36673300   -2.63417100   -0.00006200
| 69> H                  10.88798800   -0.68303700   -0.00010900
| 70> *
| 71>
| 72>
| 73>                          ****END OF INPUT****

CARTESIAN COORDINATES (ANGSTROEM)
---------------------------------
  C     -5.152525    3.786832   -0.000055
  C     -3.791441    3.663439   -0.000052
  C     -3.180043    2.388564   -0.000033
  C     -4.000714    1.220180   -0.000019
  C     -5.406696    1.389406   -0.000020
  C     -5.966310    2.638182   -0.000038
  C     -1.787421    2.250965   -0.000024
  C     -3.388342   -0.060906   -0.000004
  C     -1.998488   -0.160405    0.000000
  C     -1.181976    1.014326   -0.000005
  C      0.260832    0.866399    0.000010
  C      0.803178   -0.418142    0.000021
  C     -1.362594   -1.483582   -0.000000
  H     -1.190299    3.153084   -0.000032
  H     -5.609826    4.768156   -0.000069
  H     -3.154487    4.539759   -0.000063
  H     -6.044251    0.515279   -0.000005
  H     -7.043423    2.745572   -0.000038
  C     -4.285019   -1.245574    0.000012
  C     -4.741743   -1.783898    1.200101
  C     -4.741819   -1.783872   -1.200060
  C     -5.616300   -2.859896    1.199607
  H     -4.400612   -1.360528    2.137614
  C     -5.616374   -2.859872   -1.199535
  H     -4.400747   -1.360481   -2.137586
  C     -6.054186   -3.403878    0.000044
  H     -5.959049   -3.272677    2.140423
  H     -5.959180   -3.272634   -2.140338
  H     -6.737374   -4.243864    0.000056
  O     -1.915474   -2.554008   -0.000009
  O      0.009294   -1.527981    0.000013
  C      1.168026    1.935022    0.000018
  C      2.165776   -0.653414    0.000036
  C      3.052691    0.424079    0.000041
  C      2.526774    1.729126    0.000033
  H      3.203559    2.572644    0.000039
  H      0.796467    2.950480    0.000014
  H      2.528014   -1.672187    0.000043
  C      4.448747    0.211315    0.000058
  C      5.648395    0.041577    0.000064
  C      7.049000   -0.153517    0.000015
  C      7.920796    0.945480   -0.000012
  C      7.590708   -1.447399   -0.000004
  C      9.289942    0.750684   -0.000055
  H      7.509654    1.946671    0.000003
  C      8.961566   -1.630224   -0.000048
  H      6.923963   -2.299969    0.000017
  C      9.815654   -0.534942   -0.000074
  H      9.951756    1.607493   -0.000076
  H      9.366733   -2.634171   -0.000062
  H     10.887988   -0.683037   -0.000109

 Total Charge           Charge          ....    0
 Multiplicity           Mult            ....    1
 Number of Electrons    NEL             ....  220
 Basis Dimension        Dim             .... 1131

ORBITAL ENERGIES
----------------

  NO   OCC          E(Eh)            E(eV)
   0   2.0000     -19.865368      -540.5642
   1   2.0000     -19.788884      -538.4829
   2   2.0000     -10.844757      -295.1008
   3   2.0000     -10.771334      -293.1029
   4   2.0000     -10.730138      -291.9819
   5   2.0000     -10.728959      -291.9498
   6   2.0000     -10.723594      -291.8038
   7   2.0000     -10.721604      -291.7497
   8   2.0000     -10.719289      -291.6867
   9   2.0000     -10.715385      -291.5804
  10   2.0000     -10.712420      -291.4998
  11   2.0000     -10.710406      -291.4450
  12   2.0000     -10.702154      -291.2204
  13   2.0000     -10.702033      -291.2171
  14   2.0000     -10.701508      -291.2028
  15   2.0000     -10.701104      -291.1918
  16   2.0000     -10.697945      -291.1059
  17   2.0000     -10.697537      -291.0948
  18   2.0000     -10.697131      -291.0837
  19   2.0000     -10.696642      -291.0704
  20   2.0000     -10.696592      -291.0691
  21   2.0000     -10.695476      -291.0387
  22   2.0000     -10.694559      -291.0138
  23   2.0000     -10.692584      -290.9600
  24   2.0000     -10.692536      -290.9587
  25   2.0000     -10.691641      -290.9343
  26   2.0000     -10.690596      -290.9059
  27   2.0000     -10.690389      -290.9003
  28   2.0000     -10.685947      -290.7794
  29   2.0000     -10.685821      -290.7760
  30   2.0000     -10.684891      -290.7507
  31   2.0000     -10.684798      -290.7481
  32   2.0000     -10.683842      -290.7221
  33   2.0000      -1.359177       -36.9851
  34   2.0000      -1.263688       -34.3867
  35   2.0000      -1.113645       -30.3038
  36   2.0000      -1.091000       -29.6876
  37   2.0000      -1.079557       -29.3762
  38   2.0000      -1.069963       -29.1152
  39   2.0000      -1.053183       -28.6586
  40   2.0000      -1.014242       -27.5989
  41   2.0000      -0.996687       -27.1212
  42   2.0000      -0.979630       -26.6571
  43   2.0000      -0.966214       -26.2920
  44   2.0000      -0.956102       -26.0169
  45   2.0000      -0.947614       -25.7859
  46   2.0000      -0.943928       -25.6856
  47   2.0000      -0.939486       -25.5647
  48   2.0000      -0.925412       -25.1817
  49   2.0000      -0.903977       -24.5985
  50   2.0000      -0.858713       -23.3668
  51   2.0000      -0.834233       -22.7006
  52   2.0000      -0.819599       -22.3024
  53   2.0000      -0.799347       -21.7513
  54   2.0000      -0.789934       -21.4952
  55   2.0000      -0.782913       -21.3041
  56   2.0000      -0.779835       -21.2204
  57   2.0000      -0.773756       -21.0550
  58   2.0000      -0.750228       -20.4147
  59   2.0000      -0.740073       -20.1384
  60   2.0000      -0.723634       -19.6911
  61   2.0000      -0.696738       -18.9592
  62   2.0000      -0.684905       -18.6372
  63   2.0000      -0.682132       -18.5618
  64   2.0000      -0.659683       -17.9509
  65   2.0000      -0.646888       -17.6027
  66   2.0000      -0.640146       -17.4193
  67   2.0000      -0.638966       -17.3872
  68   2.0000      -0.627641       -17.0790
  69   2.0000      -0.618546       -16.8315
  70   2.0000      -0.610697       -16.6179
  71   2.0000      -0.608057       -16.5461
  72   2.0000      -0.605786       -16.4843
  73   2.0000      -0.600741       -16.3470
  74   2.0000      -0.598403       -16.2834
  75   2.0000      -0.581035       -15.8108
  76   2.0000      -0.577495       -15.7144
  77   2.0000      -0.575193       -15.6518
  78   2.0000      -0.568912       -15.4809
  79   2.0000      -0.562856       -15.3161
  80   2.0000      -0.558155       -15.1882
  81   2.0000      -0.555819       -15.1246
  82   2.0000      -0.544038       -14.8040
  83   2.0000      -0.543189       -14.7809
  84   2.0000      -0.539881       -14.6909
  85   2.0000      -0.533253       -14.5106
  86   2.0000      -0.523359       -14.2413
  87   2.0000      -0.513636       -13.9767
  88   2.0000      -0.501621       -13.6498
  89   2.0000      -0.492563       -13.4033
  90   2.0000      -0.492138       -13.3917
  91   2.0000      -0.489282       -13.3140
  92   2.0000      -0.483268       -13.1504
  93   2.0000      -0.477524       -12.9941
  94   2.0000      -0.476202       -12.9581
  95   2.0000      -0.475359       -12.9352
  96   2.0000      -0.468941       -12.7605
  97   2.0000      -0.454763       -12.3747
  98   2.0000      -0.436579       -11.8799
  99   2.0000      -0.433269       -11.7899
 100   2.0000      -0.406040       -11.0489
 101   2.0000      -0.396020       -10.7763
 102   2.0000      -0.384249       -10.4559
 103   2.0000      -0.357818        -9.7367
 104   2.0000      -0.352976        -9.6050
 105   2.0000      -0.348795        -9.4912
 106   2.0000      -0.344268        -9.3680
 107   2.0000      -0.340064        -9.2536
 108   2.0000      -0.321454        -8.7472
 109   2.0000      -0.288078        -7.8390
 110   0.0000       0.005144         0.1400
 111   0.0000       0.016484         0.4485
 112   0.0000       0.056175         1.5286
 113   0.0000       0.077989         2.1222
 114   0.0000       0.082654         2.2491

MULLIKEN ATOMIC CHARGES
-----------------------
   0 C :   -0.141856
   1 C :   -0.261944
   2 C :    0.092843
   3 C :    0.083951
   4 C :   -0.243637
   5 C :   -0.190103
   6 C :   -0.331345
   7 C :    0.240668
   8 C :   -0.119212
   9 C :    0.106866
  10 C :    0.120492
  11 C :    0.227711
  12 C :    0.379773
  13 H :    0.180893
  14 H :    0.185308
  15 H :    0.181506
  16 H :    0.203034
  17 H :    0.182997
  18 C :   -0.012450
  19 C :   -0.220067
  20 C :   -0.219884
  21 C :   -0.207186
  22 H :    0.178061
  23 C :   -0.207319
  24 H :    0.178059
  25 C :   -0.160205
  26 H :    0.176998
  27 H :    0.177061
  28 H :    0.178995
  29 O :   -0.375455
  30 O :   -0.242802
  31 C :   -0.241354
  32 C :   -0.332148
  33 C :    0.017134
  34 C :   -0.217578
  35 H :    0.188546
  36 H :    0.192192
  37 H :    0.188433
  38 C :    0.013530
  39 C :    0.121754
  40 C :   -0.031089
  41 C :   -0.207691
  42 C :   -0.207296
  43 C :   -0.206914
  44 H :    0.188546
  45 C :   -0.206818
  46 H :    0.188289
  47 C :   -0.137638
  48 H :    0.181477
  49 H :    0.182458
  50 H :    0.184418
Sum of atomic charges:   -0.0000000

LOEWDIN ATOMIC CHARGES
----------------------
   0 C :   -0.129184
   1 C :   -0.100856
   2 C :   -0.085330
   3 C :   -0.054259
   4 C :   -0.091229
   5 C :   -0.139404
   6 C :   -0.048669
   7 C :    0.011732
   8 C :   -0.051506
   9 C :   -0.063184
  10 C :   -0.081616
  11 C :   -0.178758
  12 C :   -0.358320
  13 H :    0.168691
  14 H :    0.158811
  15 H :    0.162290
  16 H :    0.166598
  17 H :    0.157839
  18 C :   -0.104233
  19 C :   -0.105158
  20 C :   -0.105159
  21 C :   -0.148621
  22 H :    0.160224
  23 C :   -0.148621
  24 H :    0.160224
  25 C :   -0.153101
  26 H :    0.154907
  27 H :    0.154908
  28 H :    0.153662
  29 O :    0.090747
  30 O :    0.326069
  31 C :   -0.080224
  32 C :   -0.057183
  33 C :   -0.140909
  34 C :   -0.095094
  35 H :    0.164310
  36 H :    0.165859
  37 H :    0.170001
  38 C :   -0.025093
  39 C :   -0.019535
  40 C :   -0.154431
  41 C :   -0.090501
  42 C :   -0.090595
  43 C :   -0.143124
  44 H :    0.162034
  45 C :   -0.143180
  46 H :    0.162018
  47 C :   -0.135832
  48 H :    0.157624
  49 H :    0.157668
  50 H :    0.156693

  Mayer bond orders larger than 0.100000
B(  0-C ,  1-C ) :   1.5695 B(  0-C ,  5-C ) :   1.2265 B(  0-C , 14-H ) :   0.9734
B(  1-C ,  2-C ) :   1.2145 B(  1-C , 15-H ) :   0.9711 B(  2-C ,  3-C ) :   1.2787
B(  2-C ,  6-C ) :   1.2945 B(  3-C ,  4-C ) :   1.1990 B(  3-C ,  7-C ) :   1.1902
B(  4-C ,  5-C ) :   1.6148 B(  4-C , 16-H ) :   0.9473 B(  5-C , 17-H ) :   0.9739
B(  6-C ,  9-C ) :   1.5302 B(  6-C , 13-H ) :   0.9313 B(  7-C ,  8-C ) :   1.4097
B(  7-C , 18-C ) :   0.7673 B(  8-C ,  9-C ) :   1.2393 B(  8-C , 12-C ) :   0.9900
B(  9-C , 10-C ) :   0.9979 B( 10-C , 11-C ) :   1.3583 B( 10-C , 31-C ) :   1.3047
B( 11-C , 30-O ) :   0.9935 B( 11-C , 32-C ) :   1.4194 B( 12-C , 29-O ) :   2.1027
B( 12-C , 30-O ) :   1.1749 B( 18-C , 19-C ) :   1.3831 B( 18-C , 20-C ) :   1.3833
B( 19-C , 21-C ) :   1.4428 B( 19-C , 22-H ) :   0.9768 B( 20-C , 23-C ) :   1.4428
B( 20-C , 24-H ) :   0.9768 B( 21-C , 25-C ) :   1.3957 B( 21-C , 26-H ) :   0.9761
B( 23-C , 25-C ) :   1.3956 B( 23-C , 27-H ) :   0.9760 B( 25-C , 28-H ) :   0.9722
B( 31-C , 34-C ) :   1.5193 B( 31-C , 36-H ) :   0.9369 B( 32-C , 33-C ) :   1.3588
B( 32-C , 37-H ) :   0.9780 B( 33-C , 34-C ) :   1.2960 B( 33-C , 38-C ) :   1.1020
B( 34-C , 35-H ) :   0.9756 B( 38-C , 39-C ) :   2.8815 B( 39-C , 40-C ) :   1.0053
B( 40-C , 41-C ) :   1.3456 B( 40-C , 42-C ) :   1.3462 B( 41-C , 43-C ) :   1.4559
B( 41-C , 44-H ) :   0.9683 B( 42-C , 45-C ) :   1.4574 B( 42-C , 46-H ) :   0.9684
B( 43-C , 47-C ) :   1.3954 B( 43-C , 48-H ) :   0.9734 B( 45-C , 47-C ) :   1.3969
B( 45-C , 49-H ) :   0.9715 B( 47-C , 50-H ) :   0.9683

MP2 TOTAL ENERGY:    -1340.436798794 Eh

-----------------------------------------------------------------------------
         ABSORPTION SPECTRUM VIA TRANSITION ELECTRIC DIPOLE MOMENTS
-----------------------------------------------------------------------------
State   Energy    Wavelength  fosc         T2        TX        TY        TZ
        (cm-1)      (nm)                 (au**2)    (au)      (au)      (au)
-----------------------------------------------------------------------------
   1   31244.3    320.1   1.323770471  13.94819  -3.58644   1.04193  -0.00002
   2   30965.3    322.9   0.342602304   3.64242   1.85447   0.45097  -0.00000
   3   35863.3    278.8   0.623020116   5.71910   2.39120  -0.03560  -0.00002
   4   37432.1    267.2   0.026537356   0.23339   0.15245  -0.45843   0.00002
   5   38181.3    261.9   0.000025541   0.00022   0.00022  -0.00014  -0.01484
   6   40756.1    245.4   0.465437958   3.75963   1.45806  -1.27816   0.00004
   7   40753.2    245.4   0.003979555   0.03215  -0.01780  -0.17841   0.00000
   8   43594.8    229.4   0.000000006   0.00000  -0.00000  -0.00002   0.00021
   9   42545.3    235.0   0.348028320   2.69302  -0.22089  -1.62611  -0.00000
  10   42734.4    234.0   0.000871709   0.00672  -0.00003  -0.00003  -0.08195
  11   46228.3    216.3   0.561013980   3.99522   1.91122  -0.58522   0.00001
  12   48455.9    206.4   0.020160593   0.13697   0.26794   0.25531   0.00001
  13   46507.6    215.0   0.386944659   2.73905   0.01156   1.65497  -0.00000
  14   45817.4    218.3   0.001241688   0.00892   0.00001  -0.00011   0.09446
  15   50816.4    196.8   0.000004415   0.00003  -0.00001   0.00004   0.00535
  16   49025.9    204.0   0.063144462   0.42402   0.63004   0.16452  -0.00000
  17   47105.1    212.3   0.111205314   0.77720  -0.29652   0.83023  -0.00003
  18   47671.6    209.8   0.080672787   0.55711   0.73117  -0.14999   0.00008
  19   50543.5    197.8   0.626749210   4.08229  -1.96516   0.46950   0.00007
  20   50593.1    197.7   0.418385737   2.72246  -0.25257  -1.63054   0.00001
  21   49499.9    202.0   0.462332782   3.07487   1.40173   1.05358   0.00002
  22   50034.8    199.9   0.115325873   0.75880  -0.40726  -0.77003  -0.00064
  23   49575.2    201.7   0.155398900   1.03195   0.00029   0.00057  -1.01585
  24   50703.7    197.2   0.325201878   2.11149   0.61779   1.31523   0.00004
  25   50986.4    196.1   0.008952832   0.05781  -0.22832  -0.07534  -0.00007
  26   53358.6    187.4   0.355861723   2.19560   0.00066   0.00037  -1.48175
  27   54157.0    184.6   0.102855925   0.62525  -0.71266  -0.34257  -0.00182
  28   53639.1    186.4   0.270358799   1.65934   1.01351   0.79506  -0.00068
  29   53332.8    187.5   0.041129026   0.25388  -0.00095  -0.00077  -0.50386
  30   56997.0    175.4   0.412352480   2.38173  -1.49191   0.39488   0.00009

FINAL SINGLE POINT ENERGY     -1338.749994431581

DIPOLE MOMENT
-------------
                                X             Y             Z
Electronic contribution:     -0.58211      -1.23636       0.00011
Nuclear contribution   :      0.62476       3.84855      -0.00016
                        -----------------------------------------
Total Dipole Moment    :      0.04266       2.61219      -0.00005
                        -----------------------------------------
Magnitude (a.u.)       :      2.61254
Magnitude (Debye)      :      6.64055

Rotational constants in cm-1:     0.010488     0.001567     0.001383
Rotational constants in MHz :   314.420507    46.965772    41.449328

                             ****ORCA TERMINATED NORMALLY****
TOTAL RUN TIME: 0 days 2 hours 4 minutes 29 seconds 935 msec
