                         Program Version 5.0.2 -  RELEASE  -
|  1> %maxcore 20000
|  2> %pal
|  3>  nprocs= 4
|  4> end
|  5> ! RI-B2GP-PLYP   def2-TZVP def2/J def2-TZVP/C RIJCOSX CPCM TightSCF
|  6> %TDDFT
|  7>    NROOTS   30
|  8>    dcorr 4
|  9>    TDA      FALSE
| 10> END
| 11>
| 12> %CPCM
| 13>    SMD          TRUE
| 14>    SMDsolvent   "ACETONITRILE"
| 15> END
| 16>
| 17>
| 18> * xyz 0 1
| 19> C                  -5.15252500    3.78683200   -0.00005500
| 20> C                  -3.79144100    3.66343900   -0.00005200
| 21> C                  -3.18004300    2.38856400   -0.00003300
| 22> C                  -4.00071400    1.22018000   -0.00001900
| 23> C                  -5.40669600    1.38940600   -0.00002000
| 24> C                  -5.96631000    2.63818200   -0.00003800
| 25> C                  -1.78742100    2.25096500   -0.00002400
| 26> C                  -3.38834200   -0.06090600   -0.00000400
| 27> C                  -1.99848800   -0.16040500    0.00000000
| 28> C                  -1.18197600    1.01432600   -0.00000500
| 29> C                   0.26083200    0.86639900    0.00001000
| 30> C                   0.80317800   -0.41814200    0.00002100
| 31> C                  -1.36259400   -1.48358200   -0.00000000
| 32> H                  -1.19029900    3.15308400   -0.00003200
| 33> H                  -5.60982600    4.76815600   -0.00006900
| 34> H                  -3.15448700    4.53975900   -0.00006300
| 35> H                  -6.04425100    0.51527900   -0.00000500
| 36> H                  -7.04342300    2.74557200   -0.00003800
| 37> C                  -4.28501900   -1.24557400    0.00001200
| 38> C                  -4.74174300   -1.78389800    1.20010100
| 39> C                  -4.74181900   -1.78387200   -1.20006000
| 40> C                  -5.61630000   -2.85989600    1.19960700
| 41> H                  -4.40061200   -1.36052800    2.13761400
| 42> C                  -5.61637400   -2.85987200   -1.19953500
| 43> H                  -4.40074700   -1.36048100   -2.13758600
| 44> C                  -6.05418600   -3.40387800    0.00004400
| 45> H                  -5.95904900   -3.27267700    2.14042300
| 46> H                  -5.95918000   -3.27263400   -2.14033800
| 47> H                  -6.73737400   -4.24386400    0.00005600
| 48> O                  -1.91547400   -2.55400800   -0.00000900
| 49> O                   0.00929400   -1.52798100    0.00001300
| 50> C                   1.16802600    1.93502200    0.00001800
| 51> C                   2.16577600   -0.65341400    0.00003600
| 52> C                   3.05269100    0.42407900    0.00004100
| 53> C                   2.52677400    1.72912600    0.00003300
| 54> H                   3.20355900    2.57264400    0.00003900
| 55> H                   0.79646700    2.95048000    0.00001400
| 56> H                   2.52801400   -1.67218700    0.00004300
| 57> C                   4.44874700    0.21131500    0.00005800
| 58> C                   5.64839500    0.04157700    0.00006400
| 59> C                   7.04900000   -0.15351700    0.00001500
| 60> C                   7.92079600    0.94548000   -0.00001200
| 61> C                   7.59070800   -1.44739900   -0.00000400
| 62> C                   9.28994200    0.75068400   -0.00005500
| 63> H                   7.50965400    1.94667100    0.00000300
| 64> C                   8.96156600   -1.63022400   -0.00004800
| 65> H                   6.92396300   -2.29996900    0.00001700
| 66> C                   9.81565400   -0.53494200   -0.00007400
| 67> H                   9.95175600    1.60749300   -0.00007600
| 68> H                   9.36673300   -2.63417100   -0.00006200
| 69> H                  10.88798800   -0.68303700   -0.00010900
| 70> *
| 71>
| 72>
| 73>                          ****END OF INPUT****

CARTESIAN COORDINATES (ANGSTROEM)
---------------------------------
  C     -5.152525    3.786832   -0.000055
  C     -3.791441    3.663439   -0.000052
  C     -3.180043    2.388564   -0.000033
  C     -4.000714    1.220180   -0.000019
  C     -5.406696    1.389406   -0.000020
  C     -5.966310    2.638182   -0.000038
  C     -1.787421    2.250965   -0.000024
  C     -3.388342   -0.060906   -0.000004
  C     -1.998488   -0.160405    0.000000
  C     -1.181976    1.014326   -0.000005
  C      0.260832    0.866399    0.000010
  C      0.803178   -0.418142    0.000021
  C     -1.362594   -1.483582   -0.000000
  H     -1.190299    3.153084   -0.000032
  H     -5.609826    4.768156   -0.000069
  H     -3.154487    4.539759   -0.000063
  H     -6.044251    0.515279   -0.000005
  H     -7.043423    2.745572   -0.000038
  C     -4.285019   -1.245574    0.000012
  C     -4.741743   -1.783898    1.200101
  C     -4.741819   -1.783872   -1.200060
  C     -5.616300   -2.859896    1.199607
  H     -4.400612   -1.360528    2.137614
  C     -5.616374   -2.859872   -1.199535
  H     -4.400747   -1.360481   -2.137586
  C     -6.054186   -3.403878    0.000044
  H     -5.959049   -3.272677    2.140423
  H     -5.959180   -3.272634   -2.140338
  H     -6.737374   -4.243864    0.000056
  O     -1.915474   -2.554008   -0.000009
  O      0.009294   -1.527981    0.000013
  C      1.168026    1.935022    0.000018
  C      2.165776   -0.653414    0.000036
  C      3.052691    0.424079    0.000041
  C      2.526774    1.729126    0.000033
  H      3.203559    2.572644    0.000039
  H      0.796467    2.950480    0.000014
  H      2.528014   -1.672187    0.000043
  C      4.448747    0.211315    0.000058
  C      5.648395    0.041577    0.000064
  C      7.049000   -0.153517    0.000015
  C      7.920796    0.945480   -0.000012
  C      7.590708   -1.447399   -0.000004
  C      9.289942    0.750684   -0.000055
  H      7.509654    1.946671    0.000003
  C      8.961566   -1.630224   -0.000048
  H      6.923963   -2.299969    0.000017
  C      9.815654   -0.534942   -0.000074
  H      9.951756    1.607493   -0.000076
  H      9.366733   -2.634171   -0.000062
  H     10.887988   -0.683037   -0.000109

 Total Charge           Charge          ....    0
 Multiplicity           Mult            ....    1
 Number of Electrons    NEL             ....  220
 Basis Dimension        Dim             .... 1131

ORBITAL ENERGIES
----------------

  NO   OCC          E(Eh)            E(eV)
   0   2.0000     -20.007258      -544.4252
   1   2.0000     -19.929468      -542.3084
   2   2.0000     -10.932687      -297.4935
   3   2.0000     -10.859496      -295.5019
   4   2.0000     -10.817961      -294.3717
   5   2.0000     -10.817116      -294.3487
   6   2.0000     -10.811424      -294.1938
   7   2.0000     -10.809272      -294.1352
   8   2.0000     -10.808055      -294.1021
   9   2.0000     -10.803303      -293.9728
  10   2.0000     -10.800511      -293.8968
  11   2.0000     -10.798562      -293.8438
  12   2.0000     -10.790488      -293.6241
  13   2.0000     -10.790427      -293.6224
  14   2.0000     -10.789270      -293.5910
  15   2.0000     -10.789266      -293.5908
  16   2.0000     -10.786179      -293.5069
  17   2.0000     -10.785657      -293.4926
  18   2.0000     -10.785628      -293.4919
  19   2.0000     -10.785573      -293.4903
  20   2.0000     -10.785571      -293.4903
  21   2.0000     -10.784516      -293.4616
  22   2.0000     -10.783378      -293.4306
  23   2.0000     -10.781682      -293.3845
  24   2.0000     -10.781496      -293.3794
  25   2.0000     -10.780575      -293.3543
  26   2.0000     -10.779728      -293.3313
  27   2.0000     -10.779479      -293.3245
  28   2.0000     -10.774773      -293.1965
  29   2.0000     -10.774600      -293.1918
  30   2.0000     -10.773555      -293.1633
  31   2.0000     -10.773449      -293.1604
  32   2.0000     -10.772601      -293.1374
  33   2.0000      -1.331034       -36.2193
  34   2.0000      -1.235018       -33.6066
  35   2.0000      -1.076446       -29.2916
  36   2.0000      -1.053745       -28.6739
  37   2.0000      -1.042640       -28.3717
  38   2.0000      -1.032728       -28.1019
  39   2.0000      -1.015355       -27.6292
  40   2.0000      -0.976253       -26.5652
  41   2.0000      -0.958788       -26.0899
  42   2.0000      -0.941537       -25.6205
  43   2.0000      -0.927793       -25.2465
  44   2.0000      -0.917790       -24.9743
  45   2.0000      -0.909970       -24.7616
  46   2.0000      -0.906031       -24.6544
  47   2.0000      -0.901537       -24.5321
  48   2.0000      -0.887470       -24.1493
  49   2.0000      -0.866242       -23.5716
  50   2.0000      -0.818451       -22.2712
  51   2.0000      -0.794394       -21.6166
  52   2.0000      -0.778650       -21.1881
  53   2.0000      -0.759418       -20.6648
  54   2.0000      -0.749431       -20.3931
  55   2.0000      -0.742604       -20.2073
  56   2.0000      -0.739940       -20.1348
  57   2.0000      -0.733583       -19.9618
  58   2.0000      -0.709561       -19.3081
  59   2.0000      -0.699041       -19.0219
  60   2.0000      -0.682551       -18.5732
  61   2.0000      -0.654045       -17.7975
  62   2.0000      -0.642580       -17.4855
  63   2.0000      -0.638885       -17.3849
  64   2.0000      -0.617459       -16.8019
  65   2.0000      -0.605700       -16.4819
  66   2.0000      -0.598529       -16.2868
  67   2.0000      -0.592228       -16.1153
  68   2.0000      -0.587598       -15.9894
  69   2.0000      -0.577405       -15.7120
  70   2.0000      -0.570304       -15.5188
  71   2.0000      -0.566401       -15.4126
  72   2.0000      -0.564627       -15.3643
  73   2.0000      -0.558224       -15.1900
  74   2.0000      -0.558131       -15.1875
  75   2.0000      -0.540376       -14.7044
  76   2.0000      -0.536768       -14.6062
  77   2.0000      -0.534890       -14.5551
  78   2.0000      -0.528301       -14.3758
  79   2.0000      -0.522540       -14.2190
  80   2.0000      -0.517568       -14.0837
  81   2.0000      -0.515035       -14.0148
  82   2.0000      -0.503932       -13.7127
  83   2.0000      -0.493772       -13.4362
  84   2.0000      -0.493145       -13.4192
  85   2.0000      -0.491097       -13.3634
  86   2.0000      -0.474190       -12.9034
  87   2.0000      -0.474034       -12.8991
  88   2.0000      -0.456573       -12.4240
  89   2.0000      -0.450650       -12.2628
  90   2.0000      -0.450257       -12.2521
  91   2.0000      -0.446406       -12.1473
  92   2.0000      -0.443651       -12.0724
  93   2.0000      -0.438530       -11.9330
  94   2.0000      -0.436295       -11.8722
  95   2.0000      -0.430672       -11.7192
  96   2.0000      -0.427998       -11.6464
  97   2.0000      -0.415662       -11.3107
  98   2.0000      -0.392063       -10.6686
  99   2.0000      -0.390834       -10.6351
 100   2.0000      -0.361511        -9.8372
 101   2.0000      -0.352415        -9.5897
 102   2.0000      -0.341439        -9.2910
 103   2.0000      -0.315605        -8.5881
 104   2.0000      -0.311275        -8.4702
 105   2.0000      -0.306792        -8.3482
 106   2.0000      -0.303947        -8.2708
 107   2.0000      -0.298292        -8.1169
 108   2.0000      -0.281733        -7.6663
 109   2.0000      -0.250109        -6.8058
 110   0.0000      -0.016876        -0.4592
 111   0.0000      -0.006810        -0.1853
 112   0.0000       0.032349         0.8803
 113   0.0000       0.053238         1.4487
 114   0.0000       0.057030         1.5519

MULLIKEN ATOMIC CHARGES
-----------------------
   0 C :   -0.115932
   1 C :   -0.279211
   2 C :    0.144956
   3 C :    0.088118
   4 C :   -0.249329
   5 C :   -0.169552
   6 C :   -0.399788
   7 C :    0.328100
   8 C :   -0.146364
   9 C :    0.120773
  10 C :    0.173034
  11 C :    0.245449
  12 C :    0.422991
  13 H :    0.164721
  14 H :    0.167907
  15 H :    0.164304
  16 H :    0.181273
  17 H :    0.165134
  18 C :    0.109879
  19 C :   -0.250490
  20 C :   -0.250365
  21 C :   -0.192268
  22 H :    0.159521
  23 C :   -0.192355
  24 H :    0.159517
  25 C :   -0.144900
  26 H :    0.158745
  27 H :    0.158797
  28 H :    0.160937
  29 O :   -0.422768
  30 O :   -0.274103
  31 C :   -0.244524
  32 C :   -0.360586
  33 C :   -0.000796
  34 C :   -0.213183
  35 H :    0.169371
  36 H :    0.171846
  37 H :    0.165597
  38 C :    0.082853
  39 C :    0.195991
  40 C :   -0.074616
  41 C :   -0.203635
  42 C :   -0.203646
  43 C :   -0.195725
  44 H :    0.169288
  45 C :   -0.195727
  46 H :    0.168828
  47 C :   -0.112402
  48 H :    0.163139
  49 H :    0.164280
  50 H :    0.166916
Sum of atomic charges:   -0.0000000

LOEWDIN ATOMIC CHARGES
----------------------
   0 C :   -0.125565
   1 C :   -0.097529
   2 C :   -0.083632
   3 C :   -0.052817
   4 C :   -0.087646
   5 C :   -0.135994
   6 C :   -0.045843
   7 C :    0.014064
   8 C :   -0.050423
   9 C :   -0.061986
  10 C :   -0.080131
  11 C :   -0.173318
  12 C :   -0.347712
  13 H :    0.164976
  14 H :    0.154862
  15 H :    0.158332
  16 H :    0.162923
  17 H :    0.153905
  18 C :   -0.098976
  19 C :   -0.101571
  20 C :   -0.101572
  21 C :   -0.145711
  22 H :    0.155994
  23 C :   -0.145711
  24 H :    0.155994
  25 C :   -0.150135
  26 H :    0.150867
  27 H :    0.150867
  28 H :    0.149675
  29 O :    0.079170
  30 O :    0.317174
  31 C :   -0.077591
  32 C :   -0.054908
  33 C :   -0.140098
  34 C :   -0.092259
  35 H :    0.160224
  36 H :    0.162022
  37 H :    0.165719
  38 C :   -0.024578
  39 C :   -0.019136
  40 C :   -0.152960
  41 C :   -0.087149
  42 C :   -0.087256
  43 C :   -0.139418
  44 H :    0.158077
  45 C :   -0.139497
  46 H :    0.158044
  47 C :   -0.132178
  48 H :    0.153761
  49 H :    0.153819
  50 H :    0.152832

  Mayer bond orders larger than 0.100000
B(  0-C ,  1-C ) :   1.5525 B(  0-C ,  5-C ) :   1.2254 B(  0-C , 14-H ) :   0.9796
B(  1-C ,  2-C ) :   1.2240 B(  1-C , 15-H ) :   0.9882 B(  2-C ,  3-C ) :   1.2904
B(  2-C ,  6-C ) :   1.2581 B(  3-C ,  4-C ) :   1.2058 B(  3-C ,  7-C ) :   1.2018
B(  4-C ,  5-C ) :   1.5975 B(  4-C , 16-H ) :   0.9634 B(  5-C , 17-H ) :   0.9823
B(  6-C ,  9-C ) :   1.4966 B(  6-C , 13-H ) :   0.9746 B(  7-C ,  8-C ) :   1.3803
B(  7-C , 18-C ) :   0.7037 B(  8-C ,  9-C ) :   1.2497 B(  8-C , 12-C ) :   1.0009
B(  9-C , 10-C ) :   0.9864 B( 10-C , 11-C ) :   1.3605 B( 10-C , 31-C ) :   1.2950
B( 11-C , 30-O ) :   0.9873 B( 11-C , 32-C ) :   1.3937 B( 12-C , 29-O ) :   2.0549
B( 12-C , 30-O ) :   1.1619 B( 18-C , 19-C ) :   1.4075 B( 18-C , 20-C ) :   1.4077
B( 19-C , 21-C ) :   1.4467 B( 19-C , 22-H ) :   0.9830 B( 20-C , 23-C ) :   1.4467
B( 20-C , 24-H ) :   0.9831 B( 21-C , 25-C ) :   1.3969 B( 21-C , 26-H ) :   0.9826
B( 23-C , 25-C ) :   1.3969 B( 23-C , 27-H ) :   0.9825 B( 25-C , 28-H ) :   0.9782
B( 31-C , 34-C ) :   1.4974 B( 31-C , 36-H ) :   0.9591 B( 32-C , 33-C ) :   1.3458
B( 32-C , 37-H ) :   1.0127 B( 33-C , 34-C ) :   1.2994 B( 33-C , 38-C ) :   1.1273
B( 33-C , 39-C ) :  -0.1729 B( 34-C , 35-H ) :   0.9916 B( 38-C , 39-C ) :   2.8312
B( 38-C , 40-C ) :  -0.1758 B( 39-C , 40-C ) :   1.0345 B( 40-C , 41-C ) :   1.3585
B( 40-C , 42-C ) :   1.3586 B( 41-C , 43-C ) :   1.4613 B( 41-C , 44-H ) :   0.9778
B( 42-C , 45-C ) :   1.4629 B( 42-C , 46-H ) :   0.9782 B( 43-C , 47-C ) :   1.3953
B( 43-C , 48-H ) :   0.9800 B( 45-C , 47-C ) :   1.3968 B( 45-C , 49-H ) :   0.9781
B( 47-C , 50-H ) :   0.9737

MP2 TOTAL ENERGY:    -1341.685797503 Eh

-----------------------------------------------------------------------------
         ABSORPTION SPECTRUM VIA TRANSITION ELECTRIC DIPOLE MOMENTS
-----------------------------------------------------------------------------
State   Energy    Wavelength  fosc         T2        TX        TY        TZ
        (cm-1)      (nm)                 (au**2)    (au)      (au)      (au)
-----------------------------------------------------------------------------
   1   29560.7    338.3   1.356760632  15.11001  -3.74053   1.05755  -0.00001
   2   28437.6    351.6   0.364099255   4.21505  -2.00424  -0.44507   0.00000
   3   33979.7    294.3   0.523822923   5.07505  -2.25276   0.01095   0.00003
   4   34960.0    286.0   0.028546228   0.26881  -0.16527   0.49143  -0.00002
   5   34203.1    292.4   0.000030657   0.00030   0.00005   0.00000  -0.01718
   6   37850.1    264.2   0.391768124   3.40751   1.28628  -1.32400   0.00004
   7   42241.9    236.7   0.000000067   0.00000  -0.00000   0.00002  -0.00072
   8   38559.8    259.3   0.004302638   0.03673   0.03312   0.18878   0.00000
   9   39119.1    255.6   0.174783687   1.47092  -0.64511  -1.02701  -0.00002
  10   40723.4    245.6   0.001850652   0.01496   0.00006  -0.00005   0.12231
  11   40908.1    244.5   0.207273156   1.66805  -1.27751   0.18981  -0.00002
  12   39083.0    255.9   0.108428414   0.91334  -0.48840   0.82146   0.00000
  13   41202.1    242.7   0.098666285   0.78836   0.63307  -0.62256  -0.00004
  14   43117.3    231.9   0.415222460   3.17033  -0.96307   1.49761  -0.00004
  15   40881.8    244.6   0.001673520   0.01348   0.00016   0.00003  -0.11609
  16   47625.8    210.0   0.030927249   0.21378  -0.22839  -0.40202  -0.00005
  17   44709.0    223.7   0.114695905   0.84456   0.42025   0.81728  -0.00001
  18   50675.2    197.3   0.000002985   0.00002   0.00000   0.00010  -0.00440
  19   41073.3    243.5   0.052637830   0.42190  -0.60095  -0.24649   0.00003
  20   42023.0    238.0   0.006430625   0.05038  -0.00000   0.00038   0.22445
  21   45992.9    217.4   0.188670044   1.35048  -0.09417   1.15828  -0.00005
  22   46419.6    215.4   0.296385035   2.10199   0.16484   1.44042  -0.00000
  23   49186.0    203.3   0.661810144   4.42963   2.10300  -0.08373  -0.00001
  24   46188.2    216.5   0.355680654   2.53515  -1.37797  -0.79771   0.00004
  25   46292.2    216.0   0.030185072   0.21466  -0.24419   0.39374  -0.00004
  26   46072.9    217.0   0.000976888   0.00698   0.00005   0.00013   0.08355
  27   44949.9    222.5   0.009377836   0.06868   0.02075  -0.26125   0.00002
  28   46815.5    213.6   0.057902617   0.40718  -0.03148  -0.63733  -0.00006
  29   47348.9    211.2   0.001928552   0.01341  -0.10670  -0.04499  -0.00023
  30   50581.5    197.7   0.250344994   1.62938  -0.70560  -1.06373  -0.00008

FINAL SINGLE POINT ENERGY     -1339.385425350230

DIPOLE MOMENT
-------------
                                X             Y             Z
Electronic contribution:     -0.58721      -1.21584       0.00011
Nuclear contribution   :      0.62476       3.84855      -0.00016
                        -----------------------------------------
Total Dipole Moment    :      0.03755       2.63271      -0.00005
                        -----------------------------------------
Magnitude (a.u.)       :      2.63298
Magnitude (Debye)      :      6.69249

Rotational constants in cm-1:     0.010488     0.001567     0.001383
Rotational constants in MHz :   314.420507    46.965772    41.449328

                             ****ORCA TERMINATED NORMALLY****
TOTAL RUN TIME: 0 days 14 hours 54 minutes 41 seconds 804 msec
