                         Program Version 5.0.2 -  RELEASE  -
|  1> %maxcore 20000
|  2> %pal
|  3>  nprocs= 6
|  4> end
|  5> ! RI-SCS-PBE-QIDH   def2-TZVP def2/J def2-TZVP/C RIJCOSX CPCM TightSCF
|  6> %TDDFT
|  7>    NROOTS   30
|  8>    dcorr 4
|  9>    doscs true
| 10>    TDA      FALSE
| 11> END
| 12>
| 13> %CPCM
| 14>    SMD          TRUE
| 15>    SMDsolvent   "ACETONITRILE"
| 16> END
| 17>
| 18>
| 19> * xyz 0 1
| 20> C                  -5.15252500    3.78683200   -0.00005500
| 21> C                  -3.79144100    3.66343900   -0.00005200
| 22> C                  -3.18004300    2.38856400   -0.00003300
| 23> C                  -4.00071400    1.22018000   -0.00001900
| 24> C                  -5.40669600    1.38940600   -0.00002000
| 25> C                  -5.96631000    2.63818200   -0.00003800
| 26> C                  -1.78742100    2.25096500   -0.00002400
| 27> C                  -3.38834200   -0.06090600   -0.00000400
| 28> C                  -1.99848800   -0.16040500    0.00000000
| 29> C                  -1.18197600    1.01432600   -0.00000500
| 30> C                   0.26083200    0.86639900    0.00001000
| 31> C                   0.80317800   -0.41814200    0.00002100
| 32> C                  -1.36259400   -1.48358200   -0.00000000
| 33> H                  -1.19029900    3.15308400   -0.00003200
| 34> H                  -5.60982600    4.76815600   -0.00006900
| 35> H                  -3.15448700    4.53975900   -0.00006300
| 36> H                  -6.04425100    0.51527900   -0.00000500
| 37> H                  -7.04342300    2.74557200   -0.00003800
| 38> C                  -4.28501900   -1.24557400    0.00001200
| 39> C                  -4.74174300   -1.78389800    1.20010100
| 40> C                  -4.74181900   -1.78387200   -1.20006000
| 41> C                  -5.61630000   -2.85989600    1.19960700
| 42> H                  -4.40061200   -1.36052800    2.13761400
| 43> C                  -5.61637400   -2.85987200   -1.19953500
| 44> H                  -4.40074700   -1.36048100   -2.13758600
| 45> C                  -6.05418600   -3.40387800    0.00004400
| 46> H                  -5.95904900   -3.27267700    2.14042300
| 47> H                  -5.95918000   -3.27263400   -2.14033800
| 48> H                  -6.73737400   -4.24386400    0.00005600
| 49> O                  -1.91547400   -2.55400800   -0.00000900
| 50> O                   0.00929400   -1.52798100    0.00001300
| 51> C                   1.16802600    1.93502200    0.00001800
| 52> C                   2.16577600   -0.65341400    0.00003600
| 53> C                   3.05269100    0.42407900    0.00004100
| 54> C                   2.52677400    1.72912600    0.00003300
| 55> H                   3.20355900    2.57264400    0.00003900
| 56> H                   0.79646700    2.95048000    0.00001400
| 57> H                   2.52801400   -1.67218700    0.00004300
| 58> C                   4.44874700    0.21131500    0.00005800
| 59> C                   5.64839500    0.04157700    0.00006400
| 60> C                   7.04900000   -0.15351700    0.00001500
| 61> C                   7.92079600    0.94548000   -0.00001200
| 62> C                   7.59070800   -1.44739900   -0.00000400
| 63> C                   9.28994200    0.75068400   -0.00005500
| 64> H                   7.50965400    1.94667100    0.00000300
| 65> C                   8.96156600   -1.63022400   -0.00004800
| 66> H                   6.92396300   -2.29996900    0.00001700
| 67> C                   9.81565400   -0.53494200   -0.00007400
| 68> H                   9.95175600    1.60749300   -0.00007600
| 69> H                   9.36673300   -2.63417100   -0.00006200
| 70> H                  10.88798800   -0.68303700   -0.00010900
| 71> *
| 72>
| 73>
| 74>                          ****END OF INPUT****

CARTESIAN COORDINATES (ANGSTROEM)
---------------------------------
  C     -5.152525    3.786832   -0.000055
  C     -3.791441    3.663439   -0.000052
  C     -3.180043    2.388564   -0.000033
  C     -4.000714    1.220180   -0.000019
  C     -5.406696    1.389406   -0.000020
  C     -5.966310    2.638182   -0.000038
  C     -1.787421    2.250965   -0.000024
  C     -3.388342   -0.060906   -0.000004
  C     -1.998488   -0.160405    0.000000
  C     -1.181976    1.014326   -0.000005
  C      0.260832    0.866399    0.000010
  C      0.803178   -0.418142    0.000021
  C     -1.362594   -1.483582   -0.000000
  H     -1.190299    3.153084   -0.000032
  H     -5.609826    4.768156   -0.000069
  H     -3.154487    4.539759   -0.000063
  H     -6.044251    0.515279   -0.000005
  H     -7.043423    2.745572   -0.000038
  C     -4.285019   -1.245574    0.000012
  C     -4.741743   -1.783898    1.200101
  C     -4.741819   -1.783872   -1.200060
  C     -5.616300   -2.859896    1.199607
  H     -4.400612   -1.360528    2.137614
  C     -5.616374   -2.859872   -1.199535
  H     -4.400747   -1.360481   -2.137586
  C     -6.054186   -3.403878    0.000044
  H     -5.959049   -3.272677    2.140423
  H     -5.959180   -3.272634   -2.140338
  H     -6.737374   -4.243864    0.000056
  O     -1.915474   -2.554008   -0.000009
  O      0.009294   -1.527981    0.000013
  C      1.168026    1.935022    0.000018
  C      2.165776   -0.653414    0.000036
  C      3.052691    0.424079    0.000041
  C      2.526774    1.729126    0.000033
  H      3.203559    2.572644    0.000039
  H      0.796467    2.950480    0.000014
  H      2.528014   -1.672187    0.000043
  C      4.448747    0.211315    0.000058
  C      5.648395    0.041577    0.000064
  C      7.049000   -0.153517    0.000015
  C      7.920796    0.945480   -0.000012
  C      7.590708   -1.447399   -0.000004
  C      9.289942    0.750684   -0.000055
  H      7.509654    1.946671    0.000003
  C      8.961566   -1.630224   -0.000048
  H      6.923963   -2.299969    0.000017
  C      9.815654   -0.534942   -0.000074
  H      9.951756    1.607493   -0.000076
  H      9.366733   -2.634171   -0.000062
  H     10.887988   -0.683037   -0.000109

 Total Charge           Charge          ....    0
 Multiplicity           Mult            ....    1
 Number of Electrons    NEL             ....  220
 Basis Dimension        Dim             .... 1131

ORBITAL ENERGIES
----------------

  NO   OCC          E(Eh)            E(eV)
   0   2.0000     -20.073950      -546.2399
   1   2.0000     -19.994377      -544.0747
   2   2.0000     -10.977129      -298.7029
   3   2.0000     -10.905577      -296.7558
   4   2.0000     -10.865344      -295.6610
   5   2.0000     -10.863651      -295.6150
   6   2.0000     -10.858426      -295.4728
   7   2.0000     -10.856030      -295.4076
   8   2.0000     -10.853954      -295.3511
   9   2.0000     -10.849905      -295.2409
  10   2.0000     -10.847171      -295.1665
  11   2.0000     -10.845393      -295.1181
  12   2.0000     -10.836284      -294.8703
  13   2.0000     -10.836179      -294.8674
  14   2.0000     -10.836013      -294.8629
  15   2.0000     -10.835804      -294.8572
  16   2.0000     -10.832048      -294.7550
  17   2.0000     -10.831838      -294.7493
  18   2.0000     -10.831773      -294.7475
  19   2.0000     -10.831088      -294.7289
  20   2.0000     -10.831032      -294.7274
  21   2.0000     -10.829883      -294.6961
  22   2.0000     -10.828997      -294.6720
  23   2.0000     -10.826926      -294.6156
  24   2.0000     -10.826880      -294.6144
  25   2.0000     -10.825984      -294.5900
  26   2.0000     -10.824665      -294.5541
  27   2.0000     -10.824431      -294.5477
  28   2.0000     -10.819997      -294.4271
  29   2.0000     -10.819866      -294.4235
  30   2.0000     -10.818989      -294.3997
  31   2.0000     -10.818823      -294.3951
  32   2.0000     -10.817749      -294.3659
  33   2.0000      -1.359594       -36.9964
  34   2.0000      -1.261956       -34.3396
  35   2.0000      -1.102688       -30.0057
  36   2.0000      -1.079459       -29.3736
  37   2.0000      -1.067863       -29.0580
  38   2.0000      -1.058001       -28.7897
  39   2.0000      -1.040373       -28.3100
  40   2.0000      -1.000541       -27.2261
  41   2.0000      -0.982712       -26.7409
  42   2.0000      -0.965044       -26.2602
  43   2.0000      -0.950888       -25.8750
  44   2.0000      -0.940839       -25.6015
  45   2.0000      -0.932513       -25.3750
  46   2.0000      -0.928820       -25.2745
  47   2.0000      -0.924121       -25.1466
  48   2.0000      -0.909851       -24.7583
  49   2.0000      -0.888197       -24.1691
  50   2.0000      -0.839665       -22.8484
  51   2.0000      -0.815078       -22.1794
  52   2.0000      -0.799066       -21.7437
  53   2.0000      -0.779203       -21.2032
  54   2.0000      -0.769158       -20.9299
  55   2.0000      -0.762106       -20.7380
  56   2.0000      -0.759146       -20.6574
  57   2.0000      -0.752827       -20.4855
  58   2.0000      -0.728379       -19.8202
  59   2.0000      -0.717781       -19.5318
  60   2.0000      -0.701149       -19.0792
  61   2.0000      -0.671670       -18.2771
  62   2.0000      -0.660274       -17.9670
  63   2.0000      -0.656953       -17.8766
  64   2.0000      -0.634731       -17.2719
  65   2.0000      -0.622413       -16.9367
  66   2.0000      -0.615333       -16.7441
  67   2.0000      -0.610511       -16.6129
  68   2.0000      -0.603419       -16.4199
  69   2.0000      -0.594032       -16.1644
  70   2.0000      -0.586106       -15.9488
  71   2.0000      -0.582667       -15.8552
  72   2.0000      -0.580441       -15.7946
  73   2.0000      -0.574073       -15.6213
  74   2.0000      -0.573905       -15.6167
  75   2.0000      -0.555065       -15.1041
  76   2.0000      -0.551549       -15.0084
  77   2.0000      -0.549310       -14.9475
  78   2.0000      -0.542899       -14.7730
  79   2.0000      -0.536355       -14.5950
  80   2.0000      -0.531955       -14.4752
  81   2.0000      -0.528938       -14.3931
  82   2.0000      -0.519079       -14.1248
  83   2.0000      -0.511017       -13.9055
  84   2.0000      -0.508181       -13.8283
  85   2.0000      -0.507674       -13.8145
  86   2.0000      -0.490980       -13.3602
  87   2.0000      -0.487418       -13.2633
  88   2.0000      -0.471176       -12.8214
  89   2.0000      -0.464881       -12.6501
  90   2.0000      -0.462804       -12.5935
  91   2.0000      -0.462700       -12.5907
  92   2.0000      -0.456516       -12.4224
  93   2.0000      -0.451087       -12.2747
  94   2.0000      -0.449116       -12.2211
  95   2.0000      -0.445112       -12.1121
  96   2.0000      -0.441875       -12.0240
  97   2.0000      -0.427928       -11.6445
  98   2.0000      -0.406741       -11.0680
  99   2.0000      -0.406163       -11.0523
 100   2.0000      -0.376074       -10.2335
 101   2.0000      -0.366595        -9.9755
 102   2.0000      -0.355578        -9.6758
 103   2.0000      -0.328857        -8.9487
 104   2.0000      -0.324726        -8.8362
 105   2.0000      -0.320178        -8.7125
 106   2.0000      -0.317247        -8.6327
 107   2.0000      -0.311694        -8.4816
 108   2.0000      -0.294763        -8.0209
 109   2.0000      -0.262675        -7.1477
 110   0.0000      -0.019874        -0.5408
 111   0.0000      -0.009243        -0.2515
 112   0.0000       0.030456         0.8287
 113   0.0000       0.052531         1.4294
 114   0.0000       0.056648         1.5415

MULLIKEN ATOMIC CHARGES
-----------------------
   0 C :   -0.116569
   1 C :   -0.320762
   2 C :    0.187675
   3 C :    0.121653
   4 C :   -0.281672
   5 C :   -0.173790
   6 C :   -0.481988
   7 C :    0.356343
   8 C :   -0.124600
   9 C :    0.151273
  10 C :    0.179963
  11 C :    0.246060
  12 C :    0.390618
  13 H :    0.172355
  14 H :    0.177357
  15 H :    0.176238
  16 H :    0.190272
  17 H :    0.174059
  18 C :    0.082016
  19 C :   -0.255451
  20 C :   -0.255306
  21 C :   -0.204336
  22 H :    0.169863
  23 C :   -0.204441
  24 H :    0.169857
  25 C :   -0.149136
  26 H :    0.168141
  27 H :    0.168194
  28 H :    0.170641
  29 O :   -0.425958
  30 O :   -0.240116
  31 C :   -0.261049
  32 C :   -0.404510
  33 C :   -0.006372
  34 C :   -0.226131
  35 H :    0.178480
  36 H :    0.177063
  37 H :    0.172932
  38 C :    0.116881
  39 C :    0.221523
  40 C :   -0.101030
  41 C :   -0.215687
  42 C :   -0.215371
  43 C :   -0.209247
  44 H :    0.178234
  45 C :   -0.209219
  46 H :    0.177782
  47 C :   -0.113875
  48 H :    0.171860
  49 H :    0.173155
  50 H :    0.176130
Sum of atomic charges:   -0.0000000

LOEWDIN ATOMIC CHARGES
----------------------
   0 C :   -0.127235
   1 C :   -0.099245
   2 C :   -0.087161
   3 C :   -0.055613
   4 C :   -0.089729
   5 C :   -0.137427
   6 C :   -0.046348
   7 C :    0.011628
   8 C :   -0.051679
   9 C :   -0.065228
  10 C :   -0.083229
  11 C :   -0.176105
  12 C :   -0.348779
  13 H :    0.168336
  14 H :    0.158155
  15 H :    0.161783
  16 H :    0.165998
  17 H :    0.157260
  18 C :   -0.104926
  19 C :   -0.103371
  20 C :   -0.103371
  21 C :   -0.147822
  22 H :    0.159580
  23 C :   -0.147822
  24 H :    0.159581
  25 C :   -0.152034
  26 H :    0.154165
  27 H :    0.154166
  28 H :    0.152942
  29 O :    0.082632
  30 O :    0.320059
  31 C :   -0.078926
  32 C :   -0.055356
  33 C :   -0.144543
  34 C :   -0.093621
  35 H :    0.163730
  36 H :    0.165224
  37 H :    0.169424
  38 C :   -0.025035
  39 C :   -0.019254
  40 C :   -0.158175
  41 C :   -0.088577
  42 C :   -0.088653
  43 C :   -0.142115
  44 H :    0.161421
  45 C :   -0.142201
  46 H :    0.161391
  47 C :   -0.133902
  48 H :    0.156959
  49 H :    0.157020
  50 H :    0.156029

  Mayer bond orders larger than 0.100000
B(  0-C ,  1-C ) :   1.5468 B(  0-C ,  5-C ) :   1.2240 B(  0-C , 14-H ) :   0.9760
B(  1-C ,  2-C ) :   1.2149 B(  1-C , 15-H ) :   0.9935 B(  2-C ,  3-C ) :   1.2924
B(  2-C ,  6-C ) :   1.2384 B(  3-C ,  4-C ) :   1.1982 B(  3-C ,  7-C ) :   1.2085
B(  4-C ,  5-C ) :   1.6001 B(  4-C , 16-H ) :   0.9643 B(  5-C , 17-H ) :   0.9789
B(  6-C ,  9-C ) :   1.4655 B(  6-C , 13-H ) :   0.9922 B(  7-C ,  8-C ) :   1.3666
B(  7-C , 18-C ) :   0.6895 B(  8-C ,  9-C ) :   1.2505 B(  8-C , 12-C ) :   1.0121
B(  9-C , 10-C ) :   0.9711 B( 10-C , 11-C ) :   1.3731 B( 10-C , 31-C ) :   1.2984
B( 11-C , 30-O ) :   1.0105 B( 11-C , 32-C ) :   1.3673 B( 12-C , 29-O ) :   2.0520
B( 12-C , 30-O ) :   1.1653 B( 18-C , 19-C ) :   1.4242 B( 18-C , 20-C ) :   1.4245
B( 19-C , 21-C ) :   1.4487 B( 19-C , 22-H ) :   0.9796 B( 20-C , 23-C ) :   1.4488
B( 20-C , 24-H ) :   0.9796 B( 21-C , 25-C ) :   1.3978 B( 21-C , 26-H ) :   0.9799
B( 23-C , 25-C ) :   1.3977 B( 23-C , 27-H ) :   0.9799 B( 25-C , 28-H ) :   0.9759
B( 31-C , 34-C ) :   1.4819 B( 31-C , 36-H ) :   0.9669 B( 32-C , 33-C ) :   1.3314
B( 32-C , 37-H ) :   1.0257 B( 33-C , 34-C ) :   1.3025 B( 33-C , 38-C ) :   1.1451
B( 33-C , 39-C ) :  -0.2331 B( 34-C , 35-H ) :   0.9940 B( 38-C , 39-C ) :   2.7557
B( 38-C , 40-C ) :  -0.2441 B( 39-C , 40-C ) :   1.0565 B( 40-C , 41-C ) :   1.3670
B( 40-C , 42-C ) :   1.3668 B( 41-C , 43-C ) :   1.4619 B( 41-C , 44-H ) :   0.9794
B( 42-C , 45-C ) :   1.4637 B( 42-C , 46-H ) :   0.9797 B( 43-C , 47-C ) :   1.3969
B( 43-C , 48-H ) :   0.9777 B( 45-C , 47-C ) :   1.3986 B( 45-C , 49-H ) :   0.9755
B( 47-C , 50-H ) :   0.9705

MP2 TOTAL ENERGY:    -1341.282859868 Eh

-----------------------------------------------------------------------------
         ABSORPTION SPECTRUM VIA TRANSITION ELECTRIC DIPOLE MOMENTS
-----------------------------------------------------------------------------
State   Energy    Wavelength  fosc         T2        TX        TY        TZ
        (cm-1)      (nm)                 (au**2)    (au)      (au)      (au)
-----------------------------------------------------------------------------
   1   29696.7    336.7   1.352091525  14.98902  -3.72368   1.05982  -0.00001
   2   28202.5    354.6   0.355983824   4.15545  -1.99017  -0.44120   0.00000
   3   33752.1    296.3   0.530216818   5.17164   2.27407  -0.01575  -0.00003
   4   34148.0    292.8   0.030408842   0.29316  -0.17033   0.51396  -0.00002
   5   35121.2    284.7   0.000022340   0.00021   0.00007  -0.00001  -0.01447
   6   38193.5    261.8   0.409459109   3.52937   1.33321  -1.32360   0.00004
   7   42889.7    233.2   0.000000007   0.00000   0.00000  -0.00000   0.00023
   8   37381.0    267.5   0.004996362   0.04400  -0.03012  -0.20759   0.00000
   9   39336.9    254.2   0.201560384   1.68687   0.55849   1.17258   0.00001
  10   39563.4    252.8   0.001339096   0.01114   0.00005  -0.00003   0.10556
  11   42224.9    236.8   0.340927872   2.65809   1.57738  -0.41228   0.00002
  12   43423.1    230.3   0.266202109   2.01821   0.71092  -1.22996  -0.00002
  13   41068.2    243.5   0.062242099   0.49895   0.21159  -0.67393   0.00004
  14   43313.2    230.9   0.176134652   1.33875   0.53686  -1.02496   0.00004
  15   41678.8    239.9   0.001634861   0.01291   0.00017  -0.00009  -0.11364
  16   46070.9    217.1   0.020162312   0.14408  -0.31114  -0.21742  -0.00006
  17   45841.1    218.1   0.113107441   0.81229  -0.43220  -0.79088   0.00002
  18   51242.2    195.2   0.000002453   0.00002  -0.00112  -0.00211   0.00317
  19   43451.0    230.1   0.067940313   0.51476   0.54967  -0.46111  -0.00007
  20   42875.3    233.2   0.010983319   0.08433   0.00014   0.00021   0.29040
  21   44764.6    223.4   0.188305842   1.38486  -0.23770  -1.15254   0.00005
  22   47489.7    210.6   0.335872185   2.32836  -0.17074  -1.51631   0.00001
  23   50585.0    197.7   0.910125817   5.92318   2.43218   0.08756  -0.00002
  24   45973.9    217.5   0.177389746   1.27026  -0.68131  -0.89782   0.00004
  25   46421.2    215.4   0.042175828   0.29910  -0.23000  -0.49619   0.00004
  26   47901.4    208.8   0.002074534   0.01426  -0.00010  -0.00010  -0.11941
  27   46102.5    216.9   0.003988459   0.02848  -0.14141   0.09212  -0.00000
  28   51040.2    195.9   0.235278833   1.51756   0.55679   1.09888   0.00013
  29   47805.2    209.2   0.009412533   0.06482  -0.23703   0.09294   0.00003
  30   49096.5    203.7   0.003407454   0.02285   0.08608   0.12424   0.00146

FINAL SINGLE POINT ENERGY     -1339.200965395207

DIPOLE MOMENT
-------------
                                X             Y             Z
Electronic contribution:     -0.59070      -1.23398       0.00011
Nuclear contribution   :      0.62476       3.84855      -0.00016
                        -----------------------------------------
Total Dipole Moment    :      0.03407       2.61457      -0.00005
                        -----------------------------------------
Magnitude (a.u.)       :      2.61479
Magnitude (Debye)      :      6.64628

Rotational constants in cm-1:     0.010488     0.001567     0.001383
Rotational constants in MHz :   314.420507    46.965772    41.449328

                             ****ORCA TERMINATED NORMALLY****
TOTAL RUN TIME: 0 days 10 hours 17 minutes 9 seconds 539 msec
