                         Program Version 5.0.2 -  RELEASE  -
|  1> %maxcore 20000
|  2> %pal
|  3>  nprocs= 4
|  4> end
|  5> ! RI-DSD-BLYP D3BJ def2-TZVP def2/J def2-TZVP/C RIJCOSX CPCM TightSCF
|  6> %TDDFT
|  7>    NROOTS   30
|  8>    dcorr 4
|  9>    doscs true
| 10>    scspar 0.333, 1.2, 0.43, 1.24
| 11>    TDA      FALSE
| 12> END
| 13>
| 14>  %CPCM
| 15>    SMD          TRUE
| 16>    SMDsolvent   "ACETONITRILE"
| 17>  END
| 18>
| 19>
| 20> * xyz -1 1
| 21> C                   3.39156800   -3.24338000   -0.26933600
| 22> C                   3.11363300   -1.81773900   -0.27086200
| 23> C                   1.80176500   -1.39259100   -0.31928100
| 24> C                   0.68223000   -2.26384100   -0.40846600
| 25> C                   0.96685700   -3.65517300   -0.39231000
| 26> C                   2.24011000   -4.11815100   -0.32472800
| 27> C                  -0.60905000   -1.72267100   -0.46713900
| 28> C                  -0.78035100   -0.32947900   -0.41542600
| 29> C                   0.35488100    0.50301700   -0.25126700
| 30> C                   0.28281900    1.87358600   -0.13039700
| 31> C                  -1.00614100    2.53627400   -0.20079400
| 32> C                  -2.17900500    1.68062600   -0.40697400
| 33> C                  -2.03020700    0.32332300   -0.50143400
| 34> H                   0.13714700   -4.35076300   -0.42597600
| 35> H                   2.44041200   -5.18330200   -0.30888400
| 36> H                  -2.90910400   -0.28633700   -0.67370600
| 37> O                   1.59734000   -0.04937500   -0.23707400
| 38> O                  -1.11103100    3.77244700   -0.05900700
| 39> O                   4.55277900   -3.70509900   -0.22877700
| 40> C                  -1.78490400   -2.60781100   -0.63045900
| 41> C                  -1.90606600   -3.34742800   -1.80797100
| 42> C                  -2.81215000   -2.67700400    0.32332900
| 43> C                  -3.01017700   -4.15115900   -2.04036100
| 44> H                  -1.12284800   -3.27653000   -2.55354500
| 45> C                  -3.92583400   -3.47236200    0.06662400
| 46> C                  -4.02513400   -4.21689100   -1.09691300
| 47> H                  -3.07907800   -4.71833100   -2.96002600
| 48> H                  -4.71523300   -3.50319500    0.80748400
| 49> H                  -4.89231000   -4.84197700   -1.26966400
| 50> C                  -2.73945700   -1.93037600    1.62878900
| 51> O                  -3.80480700   -1.41156200    2.05968800
| 52> O                  -1.63042000   -1.88269400    2.22215700
| 53> C                   4.23056100   -0.85650000   -0.21361300
| 54> C                   5.22855700   -0.98061600    0.75753000
| 55> C                   4.33988500    0.19339000   -1.13133100
| 56> C                   6.28466600   -0.08368800    0.81718100
| 57> H                   5.16650400   -1.78901200    1.47430200
| 58> C                   5.39830600    1.08680200   -1.07727300
| 59> H                   3.58602700    0.30531100   -1.90136900
| 60> C                   6.37589600    0.95461500   -0.10004300
| 61> H                   7.04100200   -0.19677000    1.58469000
| 62> H                   5.45852900    1.89068700   -1.80140100
| 63> H                   7.20171800    1.65395700   -0.05458900
| 64> C                   1.49661800    2.68223500    0.09543800
| 65> C                   2.38323200    2.38196100    1.13406300
| 66> C                   1.78718000    3.78431400   -0.71336400
| 67> C                   3.51701300    3.14886200    1.35435800
| 68> H                   2.17500200    1.53826500    1.78126900
| 69> C                   2.92607500    4.54680100   -0.50097200
| 70> H                   1.11092700    4.03777900   -1.51956200
| 71> C                   3.79622100    4.23443100    0.53511800
| 72> H                   4.18565600    2.89629400    2.16873500
| 73> H                   3.13405400    5.39108000   -1.14732400
| 74> H                   4.68394300    4.83189600    0.70270800
| 75> C                  -3.52583300    2.26853000   -0.48652500
| 76> C                  -4.61912600    1.60031000    0.08064100
| 77> C                  -3.77293900    3.47914800   -1.14575400
| 78> C                  -5.90259900    2.11545500   -0.01103100
| 79> H                  -4.45184200    0.67035300    0.61521600
| 80> C                  -5.05801400    3.98997400   -1.24036700
| 81> H                  -2.94659700    4.01159700   -1.59407600
| 82> C                  -6.13010600    3.31490500   -0.67184600
| 83> H                  -6.72808700    1.58060700    0.44330700
| 84> H                  -5.22402800    4.92313500   -1.76547700
| 85> H                  -7.13181500    3.72048900   -0.74150900
| 86> Na                 -2.60334200   -0.55319700    3.78931800
| 87> *
| 88>
| 89>
| 90>
| 91>                          ****END OF INPUT****

CARTESIAN COORDINATES (ANGSTROEM)
---------------------------------
  C      3.391568   -3.243380   -0.269336
  C      3.113633   -1.817739   -0.270862
  C      1.801765   -1.392591   -0.319281
  C      0.682230   -2.263841   -0.408466
  C      0.966857   -3.655173   -0.392310
  C      2.240110   -4.118151   -0.324728
  C     -0.609050   -1.722671   -0.467139
  C     -0.780351   -0.329479   -0.415426
  C      0.354881    0.503017   -0.251267
  C      0.282819    1.873586   -0.130397
  C     -1.006141    2.536274   -0.200794
  C     -2.179005    1.680626   -0.406974
  C     -2.030207    0.323323   -0.501434
  H      0.137147   -4.350763   -0.425976
  H      2.440412   -5.183302   -0.308884
  H     -2.909104   -0.286337   -0.673706
  O      1.597340   -0.049375   -0.237074
  O     -1.111031    3.772447   -0.059007
  O      4.552779   -3.705099   -0.228777
  C     -1.784904   -2.607811   -0.630459
  C     -1.906066   -3.347428   -1.807971
  C     -2.812150   -2.677004    0.323329
  C     -3.010177   -4.151159   -2.040361
  H     -1.122848   -3.276530   -2.553545
  C     -3.925834   -3.472362    0.066624
  C     -4.025134   -4.216891   -1.096913
  H     -3.079078   -4.718331   -2.960026
  H     -4.715233   -3.503195    0.807484
  H     -4.892310   -4.841977   -1.269664
  C     -2.739457   -1.930376    1.628789
  O     -3.804807   -1.411562    2.059688
  O     -1.630420   -1.882694    2.222157
  C      4.230561   -0.856500   -0.213613
  C      5.228557   -0.980616    0.757530
  C      4.339885    0.193390   -1.131331
  C      6.284666   -0.083688    0.817181
  H      5.166504   -1.789012    1.474302
  C      5.398306    1.086802   -1.077273
  H      3.586027    0.305311   -1.901369
  C      6.375896    0.954615   -0.100043
  H      7.041002   -0.196770    1.584690
  H      5.458529    1.890687   -1.801401
  H      7.201718    1.653957   -0.054589
  C      1.496618    2.682235    0.095438
  C      2.383232    2.381961    1.134063
  C      1.787180    3.784314   -0.713364
  C      3.517013    3.148862    1.354358
  H      2.175002    1.538265    1.781269
  C      2.926075    4.546801   -0.500972
  H      1.110927    4.037779   -1.519562
  C      3.796221    4.234431    0.535118
  H      4.185656    2.896294    2.168735
  H      3.134054    5.391080   -1.147324
  H      4.683943    4.831896    0.702708
  C     -3.525833    2.268530   -0.486525
  C     -4.619126    1.600310    0.080641
  C     -3.772939    3.479148   -1.145754
  C     -5.902599    2.115455   -0.011031
  H     -4.451842    0.670353    0.615216
  C     -5.058014    3.989974   -1.240367
  H     -2.946597    4.011597   -1.594076
  C     -6.130106    3.314905   -0.671846
  H     -6.728087    1.580607    0.443307
  H     -5.224028    4.923135   -1.765477
  H     -7.131815    3.720489   -0.741509
  Na    -2.603342   -0.553197    3.789318

 Total Charge           Charge          ....   -1
 Multiplicity           Mult            ....    1
 Number of Electrons    NEL             ....  302
 Basis Dimension        Dim             .... 1497

ORBITAL ENERGIES
----------------

  NO   OCC          E(Eh)            E(eV)
   0   2.0000     -39.695088     -1080.1582
   1   2.0000     -20.067452      -546.0631
   2   2.0000     -19.955424      -543.0147
   3   2.0000     -19.954985      -543.0028
   4   2.0000     -19.938602      -542.5569
   5   2.0000     -19.938531      -542.5550
   6   2.0000     -10.931685      -297.4663
   7   2.0000     -10.907327      -296.8035
   8   2.0000     -10.905518      -296.7542
   9   2.0000     -10.887263      -296.2575
  10   2.0000     -10.884278      -296.1763
  11   2.0000     -10.877744      -295.9985
  12   2.0000     -10.847540      -295.1766
  13   2.0000     -10.837515      -294.9038
  14   2.0000     -10.832601      -294.7700
  15   2.0000     -10.831022      -294.7271
  16   2.0000     -10.830833      -294.7219
  17   2.0000     -10.830323      -294.7081
  18   2.0000     -10.829015      -294.6725
  19   2.0000     -10.828972      -294.6713
  20   2.0000     -10.828856      -294.6682
  21   2.0000     -10.828551      -294.6598
  22   2.0000     -10.827395      -294.6284
  23   2.0000     -10.826484      -294.6036
  24   2.0000     -10.825040      -294.5643
  25   2.0000     -10.819267      -294.4072
  26   2.0000     -10.818617      -294.3895
  27   2.0000     -10.817889      -294.3697
  28   2.0000     -10.817831      -294.3682
  29   2.0000     -10.817721      -294.3652
  30   2.0000     -10.817545      -294.3604
  31   2.0000     -10.817261      -294.3526
  32   2.0000     -10.817162      -294.3499
  33   2.0000     -10.816424      -294.3299
  34   2.0000     -10.816352      -294.3279
  35   2.0000     -10.816245      -294.3250
  36   2.0000     -10.815693      -294.3100
  37   2.0000     -10.815650      -294.3088
  38   2.0000     -10.815407      -294.3022
  39   2.0000     -10.815183      -294.2961
  40   2.0000     -10.814946      -294.2896
  41   2.0000     -10.810457      -294.1675
  42   2.0000     -10.810083      -294.1573
  43   2.0000     -10.805011      -294.0193
  44   2.0000      -2.557302       -69.5877
  45   2.0000      -1.362931       -37.0872
  46   2.0000      -1.362058       -37.0635
  47   2.0000      -1.361153       -37.0389
  48   2.0000      -1.322565       -35.9888
  49   2.0000      -1.253804       -34.1177
  50   2.0000      -1.197587       -32.5880
  51   2.0000      -1.194115       -32.4935
  52   2.0000      -1.150672       -31.3114
  53   2.0000      -1.067168       -29.0391
  54   2.0000      -1.048943       -28.5432
  55   2.0000      -1.041218       -28.3330
  56   2.0000      -1.038140       -28.2492
  57   2.0000      -1.030640       -28.0451
  58   2.0000      -1.023676       -27.8556
  59   2.0000      -0.973147       -26.4807
  60   2.0000      -0.959574       -26.1113
  61   2.0000      -0.939968       -25.5778
  62   2.0000      -0.926091       -25.2002
  63   2.0000      -0.923338       -25.1253
  64   2.0000      -0.907187       -24.6858
  65   2.0000      -0.905985       -24.6531
  66   2.0000      -0.905041       -24.6274
  67   2.0000      -0.904090       -24.6015
  68   2.0000      -0.890441       -24.2301
  69   2.0000      -0.869064       -23.6484
  70   2.0000      -0.862740       -23.4763
  71   2.0000      -0.800315       -21.7777
  72   2.0000      -0.787038       -21.4164
  73   2.0000      -0.773464       -21.0470
  74   2.0000      -0.764188       -20.7946
  75   2.0000      -0.751933       -20.4611
  76   2.0000      -0.737372       -20.0649
  77   2.0000      -0.735964       -20.0266
  78   2.0000      -0.733008       -19.9462
  79   2.0000      -0.730245       -19.8710
  80   2.0000      -0.725371       -19.7383
  81   2.0000      -0.704759       -19.1775
  82   2.0000      -0.693834       -18.8802
  83   2.0000      -0.670243       -18.2382
  84   2.0000      -0.659686       -17.9510
  85   2.0000      -0.650508       -17.7012
  86   2.0000      -0.637526       -17.3480
  87   2.0000      -0.627539       -17.0762
  88   2.0000      -0.616841       -16.7851
  89   2.0000      -0.612451       -16.6656
  90   2.0000      -0.607676       -16.5357
  91   2.0000      -0.587889       -15.9973
  92   2.0000      -0.585112       -15.9217
  93   2.0000      -0.578042       -15.7293
  94   2.0000      -0.575454       -15.6589
  95   2.0000      -0.572811       -15.5870
  96   2.0000      -0.564703       -15.3664
  97   2.0000      -0.556093       -15.1321
  98   2.0000      -0.555613       -15.1190
  99   2.0000      -0.553792       -15.0695
 100   2.0000      -0.548242       -14.9184
 101   2.0000      -0.546253       -14.8643
 102   2.0000      -0.544089       -14.8054
 103   2.0000      -0.540220       -14.7001
 104   2.0000      -0.536853       -14.6085
 105   2.0000      -0.532570       -14.4920
 106   2.0000      -0.528985       -14.3944
 107   2.0000      -0.515761       -14.0346
 108   2.0000      -0.514705       -14.0058
 109   2.0000      -0.513051       -13.9608
 110   2.0000      -0.512356       -13.9419
 111   2.0000      -0.511011       -13.9053
 112   2.0000      -0.505499       -13.7553
 113   2.0000      -0.501780       -13.6541
 114   2.0000      -0.495580       -13.4854
 115   2.0000      -0.481154       -13.0929
 116   2.0000      -0.475609       -12.9420
 117   2.0000      -0.474163       -12.9026
 118   2.0000      -0.467740       -12.7279
 119   2.0000      -0.465200       -12.6587
 120   2.0000      -0.455698       -12.4002
 121   2.0000      -0.454438       -12.3659
 122   2.0000      -0.449791       -12.2394
 123   2.0000      -0.447944       -12.1892
 124   2.0000      -0.440695       -11.9919
 125   2.0000      -0.439360       -11.9556
 126   2.0000      -0.433881       -11.8065
 127   2.0000      -0.428006       -11.6466
 128   2.0000      -0.426440       -11.6040
 129   2.0000      -0.425479       -11.5779
 130   2.0000      -0.424891       -11.5619
 131   2.0000      -0.420386       -11.4393
 132   2.0000      -0.409452       -11.1418
 133   2.0000      -0.398107       -10.8330
 134   2.0000      -0.367719       -10.0062
 135   2.0000      -0.365028        -9.9329
 136   2.0000      -0.354532        -9.6473
 137   2.0000      -0.343223        -9.3396
 138   2.0000      -0.331676        -9.0254
 139   2.0000      -0.328781        -8.9466
 140   2.0000      -0.324486        -8.8297
 141   2.0000      -0.317381        -8.6364
 142   2.0000      -0.308844        -8.4041
 143   2.0000      -0.307105        -8.3568
 144   2.0000      -0.304532        -8.2867
 145   2.0000      -0.302106        -8.2207
 146   2.0000      -0.297534        -8.0963
 147   2.0000      -0.293750        -7.9934
 148   2.0000      -0.273301        -7.4369
 149   2.0000      -0.253292        -6.8924
 150   2.0000      -0.213155        -5.8002
 151   0.0000      -0.004090        -0.1113
 152   0.0000       0.018709         0.5091
 153   0.0000       0.042482         1.1560
 154   0.0000       0.054915         1.4943
 155   0.0000       0.058782         1.5995

MULLIKEN ATOMIC CHARGES
-----------------------
   0 C :    0.341749
   1 C :   -0.132578
   2 C :    0.303949
   3 C :    0.071137
   4 C :   -0.225269
   5 C :   -0.366943
   6 C :    0.461839
   7 C :    0.132469
   8 C :    0.287106
   9 C :   -0.073421
  10 C :    0.264257
  11 C :    0.051367
  12 C :   -0.339900
  13 H :    0.176158
  14 H :    0.127684
  15 H :    0.196815
  16 O :   -0.291278
  17 O :   -0.577647
  18 O :   -0.587162
  19 C :   -0.026898
  20 C :   -0.357321
  21 C :   -0.027900
  22 C :   -0.122099
  23 H :    0.165885
  24 C :   -0.175731
  25 C :   -0.176574
  26 H :    0.164517
  27 H :    0.163853
  28 H :    0.163450
  29 C :    0.432215
  30 O :   -0.679145
  31 O :   -0.675395
  32 C :    0.103460
  33 C :   -0.243879
  34 C :   -0.243399
  35 C :   -0.173943
  36 H :    0.139127
  37 C :   -0.159722
  38 H :    0.144443
  39 C :   -0.168640
  40 H :    0.153515
  41 H :    0.152733
  42 H :    0.156061
  43 C :    0.036880
  44 C :   -0.251507
  45 C :   -0.248639
  46 C :   -0.167768
  47 H :    0.147576
  48 C :   -0.182245
  49 H :    0.141939
  50 C :   -0.162009
  51 H :    0.152290
  52 H :    0.153579
  53 H :    0.156278
  54 C :    0.066747
  55 C :   -0.286952
  56 C :   -0.240771
  57 C :   -0.181264
  58 H :    0.188946
  59 C :   -0.167307
  60 H :    0.144215
  61 C :   -0.166043
  62 H :    0.154714
  63 H :    0.154339
  64 H :    0.157792
  65 Na:    0.870264
Sum of atomic charges:   -1.0000000

LOEWDIN ATOMIC CHARGES
----------------------
   0 C :   -0.316228
   1 C :   -0.100658
   2 C :   -0.117454
   3 C :   -0.119288
   4 C :   -0.090810
   5 C :   -0.154749
   6 C :    0.035403
   7 C :   -0.115666
   8 C :   -0.120757
   9 C :   -0.097807
  10 C :   -0.271140
  11 C :   -0.100812
  12 C :   -0.042018
  13 H :    0.162390
  14 H :    0.144543
  15 H :    0.170895
  16 O :    0.361380
  17 O :   -0.061119
  18 O :   -0.084643
  19 C :   -0.056668
  20 C :   -0.091637
  21 C :   -0.070198
  22 C :   -0.133757
  23 H :    0.160753
  24 C :   -0.096097
  25 C :   -0.135682
  26 H :    0.153047
  27 H :    0.157763
  28 H :    0.152250
  29 C :   -0.490756
  30 O :   -0.027244
  31 O :   -0.012876
  32 C :   -0.109473
  33 C :   -0.105168
  34 C :   -0.106673
  35 C :   -0.157720
  36 H :    0.151728
  37 C :   -0.155093
  38 H :    0.152107
  39 C :   -0.159688
  40 H :    0.147803
  41 H :    0.148191
  42 H :    0.147047
  43 C :   -0.107748
  44 C :   -0.106700
  45 C :   -0.105245
  46 C :   -0.154831
  47 H :    0.152428
  48 C :   -0.157542
  49 H :    0.151625
  50 C :   -0.159694
  51 H :    0.148180
  52 H :    0.147846
  53 H :    0.147084
  54 C :   -0.108949
  55 C :   -0.112095
  56 C :   -0.107436
  57 C :   -0.156030
  58 H :    0.155465
  59 C :   -0.156076
  60 H :    0.151661
  61 C :   -0.159935
  62 H :    0.148632
  63 H :    0.148261
  64 H :    0.147110
  65 Na:    0.550568

  Mayer bond orders larger than 0.100000
B(  0-C ,  1-C ) :   1.0052 B(  0-C ,  5-C ) :   1.1805 B(  0-C , 18-O ) :   1.9112
B(  1-C ,  2-C ) :   1.3600 B(  1-C , 18-O ) :  -0.1389 B(  1-C , 32-C ) :   0.8221
B(  2-C ,  3-C ) :   1.2768 B(  2-C , 16-O ) :   1.0595 B(  3-C ,  4-C ) :   1.1477
B(  3-C ,  6-C ) :   1.2078 B(  4-C ,  5-C ) :   1.6402 B(  4-C , 13-H ) :   0.9626
B(  5-C , 14-H ) :   1.0088 B(  6-C ,  7-C ) :   1.1250 B(  6-C , 19-C ) :   0.6382
B(  6-C , 20-C ) :  -0.1315 B(  6-C , 21-C ) :  -0.1446 B(  7-C ,  8-C ) :   1.2853
B(  7-C , 12-C ) :   1.1275 B(  7-C , 19-C ) :  -0.1073 B(  8-C ,  9-C ) :   1.4438
B(  8-C , 16-O ) :   1.0766 B(  9-C , 10-C ) :   1.0771 B(  9-C , 17-O ) :  -0.1734
B(  9-C , 43-C ) :   0.8068 B( 10-C , 11-C ) :   1.1025 B( 10-C , 17-O ) :   1.9925
B( 11-C , 12-C ) :   1.5717 B( 11-C , 17-O ) :  -0.1573 B( 11-C , 54-C ) :   0.8153
B( 12-C , 15-H ) :   0.9495 B( 19-C , 20-C ) :   1.4232 B( 19-C , 21-C ) :   1.3543
B( 20-C , 22-C ) :   1.4341 B( 20-C , 23-H ) :   0.9923 B( 21-C , 24-C ) :   1.4103
B( 21-C , 29-C ) :   0.9032 B( 22-C , 25-C ) :   1.3885 B( 22-C , 26-H ) :   0.9821
B( 24-C , 25-C ) :   1.3990 B( 24-C , 27-H ) :   0.9808 B( 25-C , 28-H ) :   0.9831
B( 29-C , 30-O ) :   1.5846 B( 29-C , 31-O ) :   1.6130 B( 30-O , 65-Na) :   0.1108
B( 31-O , 65-Na) :   0.1155 B( 32-C , 33-C ) :   1.3851 B( 32-C , 34-C ) :   1.3533
B( 33-C , 35-C ) :   1.4485 B( 33-C , 36-H ) :   0.9827 B( 34-C , 37-C ) :   1.4544
B( 34-C , 38-H ) :   0.9838 B( 35-C , 39-C ) :   1.3944 B( 35-C , 40-H ) :   0.9871
B( 37-C , 39-C ) :   1.3908 B( 37-C , 41-H ) :   0.9878 B( 39-C , 42-H ) :   0.9827
B( 43-C , 44-C ) :   1.3607 B( 43-C , 45-C ) :   1.3873 B( 44-C , 46-C ) :   1.4533
B( 44-C , 47-H ) :   0.9831 B( 45-C , 48-C ) :   1.4554 B( 45-C , 49-H ) :   0.9822
B( 46-C , 50-C ) :   1.3919 B( 46-C , 51-H ) :   0.9892 B( 48-C , 50-C ) :   1.3910
B( 48-C , 52-H ) :   0.9886 B( 50-C , 53-H ) :   0.9836 B( 54-C , 55-C ) :   1.3766
B( 54-C , 56-C ) :   1.3623 B( 55-C , 57-C ) :   1.4662 B( 55-C , 58-H ) :   0.9396
B( 56-C , 59-C ) :   1.4470 B( 56-C , 60-H ) :   0.9793 B( 57-C , 61-C ) :   1.3984
B( 57-C , 62-H ) :   0.9858 B( 59-C , 61-C ) :   1.3900 B( 59-C , 63-H ) :   0.9867
B( 61-C , 64-H ) :   0.9821

MP2 TOTAL ENERGY:    -1998.204472595 Eh

-----------------------------------------------------------------------------
         ABSORPTION SPECTRUM VIA TRANSITION ELECTRIC DIPOLE MOMENTS
-----------------------------------------------------------------------------
State   Energy    Wavelength  fosc         T2        TX        TY        TZ
        (cm-1)      (nm)                 (au**2)    (au)      (au)      (au)
-----------------------------------------------------------------------------
   1    9674.6   1033.6   0.437653981  14.89269   2.55627  -2.89066  -0.04746
   2   15610.4    640.6   0.063447613   1.33807  -1.09315  -0.35547  -0.12931
   3   17398.3    574.8   0.051096842   0.96686  -0.97314   0.01811  -0.13978
   4   22442.8    445.6   0.052607518   0.77169   0.50814   0.71658  -0.00086
   5   29468.0    339.4   0.009406319   0.10509  -0.26121  -0.19177  -0.00894
   6   22526.9    443.9   0.360949645   5.27499   1.90338   1.27339   0.17499
   7   14484.3    690.4   0.000993962   0.02259   0.04588  -0.14005  -0.02955
   8   14278.4    700.4   0.005029515   0.11596   0.26078   0.21898   0.00076
   9   29046.2    344.3   0.125966992   1.42772   0.95201  -0.72176  -0.02129
  10   24880.3    401.9   0.162567654   2.15107   0.88438   1.16818   0.06562
  11   23682.3    422.3   0.004596876   0.06390  -0.24582  -0.05326   0.02529
  12   27603.6    362.3   0.008714650   0.10393   0.30928  -0.03265  -0.08492
  13   28195.9    354.7   0.023402535   0.27325  -0.42466   0.30198  -0.04138
  14   27663.9    361.5   0.003876486   0.04613   0.10854  -0.15471   0.10205
  15   27573.4    362.7   0.041704506   0.49793  -0.42379   0.49206   0.27606
  16   27589.0    362.5   0.059127391   0.70555  -0.78544   0.16920  -0.24495
  17   29306.9    341.2   0.030742359   0.34534   0.19647   0.52041   0.18951
  18   26572.2    376.3   0.054049578   0.66964  -0.39243   0.70190   0.15156
  19   30185.5    331.3   0.020305900   0.22146  -0.12160  -0.44956  -0.06759
  20   31498.6    317.5   0.112589491   1.17674  -1.03266   0.28946  -0.16300
  21   34242.2    292.0   0.012034820   0.11571  -0.33965   0.00364  -0.01808
  22   36091.3    277.1   0.001877858   0.01713   0.11747   0.03790   0.04352
  23   35269.4    283.5   0.007636683   0.07128  -0.22393   0.02885  -0.14250
  24   32497.6    307.7   0.085833364   0.86952  -0.62276  -0.65333  -0.23420
  25   35933.2    278.3   0.056156046   0.51449   0.15470  -0.47002  -0.51927
  26   29440.1    339.7   0.026824586   0.29996  -0.34112   0.09343  -0.41818
  27   30294.7    330.1   0.022904380   0.24890   0.24087  -0.43106  -0.07121
  28   29891.3    334.5   0.002858384   0.03148  -0.05795   0.14348  -0.08681
  29   30792.7    324.8   0.085968454   0.91911  -0.95290  -0.01609   0.10411
  30   30576.8    327.0   0.098928604   1.06514  -0.32221   0.82710  -0.52652

Dispersion correction           -0.073705575
FINAL SINGLE POINT ENERGY     -1994.669529735957

DIPOLE MOMENT
-------------
                                X             Y             Z
Electronic contribution:    -10.07404      -9.64424      14.77399
Nuclear contribution   :      5.49594       9.51929     -12.42031
                        -----------------------------------------
Total Dipole Moment    :     -4.57810      -0.12494       2.35368
                        -----------------------------------------
Magnitude (a.u.)       :      5.14922
Magnitude (Debye)      :     13.08827

Rotational constants in cm-1:     0.003424     0.002174     0.001529
Rotational constants in MHz :   102.652398    65.171305    45.832607

                             ****ORCA TERMINATED NORMALLY****
TOTAL RUN TIME: 1 days 4 hours 50 minutes 43 seconds 451 msec
