                         Program Version 5.0.2 -  RELEASE  -
|  1> %maxcore 20000
|  2> %pal
|  3>  nprocs= 4
|  4> end
|  5> ! RI-wPBEPP86   def2-TZVP def2/J def2-TZVP/C RIJCOSX CPCM TightSCF
|  6> %TDDFT
|  7>    NROOTS   30
|  8>    dcorr 1
|  9>    TDA      FALSE
| 10> END
| 11>
| 12>  %CPCM
| 13>    SMD          TRUE
| 14>    SMDsolvent   "ACETONITRILE"
| 15>  END
| 16>
| 17>
| 18> * xyz -1 1
| 19> C                   3.39156800   -3.24338000   -0.26933600
| 20> C                   3.11363300   -1.81773900   -0.27086200
| 21> C                   1.80176500   -1.39259100   -0.31928100
| 22> C                   0.68223000   -2.26384100   -0.40846600
| 23> C                   0.96685700   -3.65517300   -0.39231000
| 24> C                   2.24011000   -4.11815100   -0.32472800
| 25> C                  -0.60905000   -1.72267100   -0.46713900
| 26> C                  -0.78035100   -0.32947900   -0.41542600
| 27> C                   0.35488100    0.50301700   -0.25126700
| 28> C                   0.28281900    1.87358600   -0.13039700
| 29> C                  -1.00614100    2.53627400   -0.20079400
| 30> C                  -2.17900500    1.68062600   -0.40697400
| 31> C                  -2.03020700    0.32332300   -0.50143400
| 32> H                   0.13714700   -4.35076300   -0.42597600
| 33> H                   2.44041200   -5.18330200   -0.30888400
| 34> H                  -2.90910400   -0.28633700   -0.67370600
| 35> O                   1.59734000   -0.04937500   -0.23707400
| 36> O                  -1.11103100    3.77244700   -0.05900700
| 37> O                   4.55277900   -3.70509900   -0.22877700
| 38> C                  -1.78490400   -2.60781100   -0.63045900
| 39> C                  -1.90606600   -3.34742800   -1.80797100
| 40> C                  -2.81215000   -2.67700400    0.32332900
| 41> C                  -3.01017700   -4.15115900   -2.04036100
| 42> H                  -1.12284800   -3.27653000   -2.55354500
| 43> C                  -3.92583400   -3.47236200    0.06662400
| 44> C                  -4.02513400   -4.21689100   -1.09691300
| 45> H                  -3.07907800   -4.71833100   -2.96002600
| 46> H                  -4.71523300   -3.50319500    0.80748400
| 47> H                  -4.89231000   -4.84197700   -1.26966400
| 48> C                  -2.73945700   -1.93037600    1.62878900
| 49> O                  -3.80480700   -1.41156200    2.05968800
| 50> O                  -1.63042000   -1.88269400    2.22215700
| 51> C                   4.23056100   -0.85650000   -0.21361300
| 52> C                   5.22855700   -0.98061600    0.75753000
| 53> C                   4.33988500    0.19339000   -1.13133100
| 54> C                   6.28466600   -0.08368800    0.81718100
| 55> H                   5.16650400   -1.78901200    1.47430200
| 56> C                   5.39830600    1.08680200   -1.07727300
| 57> H                   3.58602700    0.30531100   -1.90136900
| 58> C                   6.37589600    0.95461500   -0.10004300
| 59> H                   7.04100200   -0.19677000    1.58469000
| 60> H                   5.45852900    1.89068700   -1.80140100
| 61> H                   7.20171800    1.65395700   -0.05458900
| 62> C                   1.49661800    2.68223500    0.09543800
| 63> C                   2.38323200    2.38196100    1.13406300
| 64> C                   1.78718000    3.78431400   -0.71336400
| 65> C                   3.51701300    3.14886200    1.35435800
| 66> H                   2.17500200    1.53826500    1.78126900
| 67> C                   2.92607500    4.54680100   -0.50097200
| 68> H                   1.11092700    4.03777900   -1.51956200
| 69> C                   3.79622100    4.23443100    0.53511800
| 70> H                   4.18565600    2.89629400    2.16873500
| 71> H                   3.13405400    5.39108000   -1.14732400
| 72> H                   4.68394300    4.83189600    0.70270800
| 73> C                  -3.52583300    2.26853000   -0.48652500
| 74> C                  -4.61912600    1.60031000    0.08064100
| 75> C                  -3.77293900    3.47914800   -1.14575400
| 76> C                  -5.90259900    2.11545500   -0.01103100
| 77> H                  -4.45184200    0.67035300    0.61521600
| 78> C                  -5.05801400    3.98997400   -1.24036700
| 79> H                  -2.94659700    4.01159700   -1.59407600
| 80> C                  -6.13010600    3.31490500   -0.67184600
| 81> H                  -6.72808700    1.58060700    0.44330700
| 82> H                  -5.22402800    4.92313500   -1.76547700
| 83> H                  -7.13181500    3.72048900   -0.74150900
| 84> Na                 -2.60334200   -0.55319700    3.78931800
| 85> *
| 86>
| 87>
| 88>
| 89>                          ****END OF INPUT****

CARTESIAN COORDINATES (ANGSTROEM)
---------------------------------
  C      3.391568   -3.243380   -0.269336
  C      3.113633   -1.817739   -0.270862
  C      1.801765   -1.392591   -0.319281
  C      0.682230   -2.263841   -0.408466
  C      0.966857   -3.655173   -0.392310
  C      2.240110   -4.118151   -0.324728
  C     -0.609050   -1.722671   -0.467139
  C     -0.780351   -0.329479   -0.415426
  C      0.354881    0.503017   -0.251267
  C      0.282819    1.873586   -0.130397
  C     -1.006141    2.536274   -0.200794
  C     -2.179005    1.680626   -0.406974
  C     -2.030207    0.323323   -0.501434
  H      0.137147   -4.350763   -0.425976
  H      2.440412   -5.183302   -0.308884
  H     -2.909104   -0.286337   -0.673706
  O      1.597340   -0.049375   -0.237074
  O     -1.111031    3.772447   -0.059007
  O      4.552779   -3.705099   -0.228777
  C     -1.784904   -2.607811   -0.630459
  C     -1.906066   -3.347428   -1.807971
  C     -2.812150   -2.677004    0.323329
  C     -3.010177   -4.151159   -2.040361
  H     -1.122848   -3.276530   -2.553545
  C     -3.925834   -3.472362    0.066624
  C     -4.025134   -4.216891   -1.096913
  H     -3.079078   -4.718331   -2.960026
  H     -4.715233   -3.503195    0.807484
  H     -4.892310   -4.841977   -1.269664
  C     -2.739457   -1.930376    1.628789
  O     -3.804807   -1.411562    2.059688
  O     -1.630420   -1.882694    2.222157
  C      4.230561   -0.856500   -0.213613
  C      5.228557   -0.980616    0.757530
  C      4.339885    0.193390   -1.131331
  C      6.284666   -0.083688    0.817181
  H      5.166504   -1.789012    1.474302
  C      5.398306    1.086802   -1.077273
  H      3.586027    0.305311   -1.901369
  C      6.375896    0.954615   -0.100043
  H      7.041002   -0.196770    1.584690
  H      5.458529    1.890687   -1.801401
  H      7.201718    1.653957   -0.054589
  C      1.496618    2.682235    0.095438
  C      2.383232    2.381961    1.134063
  C      1.787180    3.784314   -0.713364
  C      3.517013    3.148862    1.354358
  H      2.175002    1.538265    1.781269
  C      2.926075    4.546801   -0.500972
  H      1.110927    4.037779   -1.519562
  C      3.796221    4.234431    0.535118
  H      4.185656    2.896294    2.168735
  H      3.134054    5.391080   -1.147324
  H      4.683943    4.831896    0.702708
  C     -3.525833    2.268530   -0.486525
  C     -4.619126    1.600310    0.080641
  C     -3.772939    3.479148   -1.145754
  C     -5.902599    2.115455   -0.011031
  H     -4.451842    0.670353    0.615216
  C     -5.058014    3.989974   -1.240367
  H     -2.946597    4.011597   -1.594076
  C     -6.130106    3.314905   -0.671846
  H     -6.728087    1.580607    0.443307
  H     -5.224028    4.923135   -1.765477
  H     -7.131815    3.720489   -0.741509
  Na    -2.603342   -0.553197    3.789318

 Total Charge           Charge          ....   -1
 Multiplicity           Mult            ....    1
 Number of Electrons    NEL             ....  302
 Basis Dimension        Dim             .... 1497

ORBITAL ENERGIES
----------------

  NO   OCC          E(Eh)            E(eV)
   0   2.0000     -39.739610     -1081.3698
   1   2.0000     -20.121640      -547.5377
   2   2.0000     -20.005660      -544.3817
   3   2.0000     -20.005163      -544.3682
   4   2.0000     -19.989963      -543.9545
   5   2.0000     -19.989408      -543.9395
   6   2.0000     -10.970711      -298.5282
   7   2.0000     -10.950777      -297.9858
   8   2.0000     -10.949019      -297.9380
   9   2.0000     -10.929511      -297.4071
  10   2.0000     -10.926029      -297.3124
  11   2.0000     -10.923005      -297.2301
  12   2.0000     -10.890350      -296.3415
  13   2.0000     -10.879725      -296.0524
  14   2.0000     -10.874596      -295.9128
  15   2.0000     -10.873902      -295.8939
  16   2.0000     -10.872439      -295.8541
  17   2.0000     -10.872211      -295.8479
  18   2.0000     -10.871370      -295.8250
  19   2.0000     -10.871293      -295.8229
  20   2.0000     -10.869594      -295.7767
  21   2.0000     -10.869183      -295.7655
  22   2.0000     -10.868515      -295.7473
  23   2.0000     -10.867920      -295.7311
  24   2.0000     -10.867172      -295.7108
  25   2.0000     -10.860469      -295.5284
  26   2.0000     -10.859505      -295.5021
  27   2.0000     -10.858818      -295.4835
  28   2.0000     -10.858374      -295.4714
  29   2.0000     -10.858276      -295.4687
  30   2.0000     -10.857900      -295.4585
  31   2.0000     -10.857800      -295.4558
  32   2.0000     -10.857772      -295.4550
  33   2.0000     -10.857258      -295.4410
  34   2.0000     -10.857161      -295.4384
  35   2.0000     -10.857081      -295.4362
  36   2.0000     -10.856626      -295.4238
  37   2.0000     -10.856553      -295.4218
  38   2.0000     -10.856306      -295.4151
  39   2.0000     -10.856097      -295.4094
  40   2.0000     -10.855691      -295.3984
  41   2.0000     -10.852585      -295.3138
  42   2.0000     -10.852418      -295.3093
  43   2.0000     -10.845724      -295.1272
  44   2.0000      -2.607822       -70.9624
  45   2.0000      -1.406791       -38.2807
  46   2.0000      -1.405676       -38.2504
  47   2.0000      -1.404809       -38.2268
  48   2.0000      -1.376623       -37.4598
  49   2.0000      -1.305206       -35.5165
  50   2.0000      -1.249991       -34.0140
  51   2.0000      -1.246197       -33.9107
  52   2.0000      -1.200840       -32.6765
  53   2.0000      -1.119647       -30.4672
  54   2.0000      -1.101210       -29.9654
  55   2.0000      -1.092837       -29.7376
  56   2.0000      -1.089728       -29.6530
  57   2.0000      -1.082390       -29.4533
  58   2.0000      -1.075425       -29.2638
  59   2.0000      -1.024524       -27.8787
  60   2.0000      -1.010619       -27.5004
  61   2.0000      -0.990319       -26.9480
  62   2.0000      -0.975795       -26.5527
  63   2.0000      -0.973247       -26.4834
  64   2.0000      -0.956980       -26.0408
  65   2.0000      -0.954987       -25.9865
  66   2.0000      -0.954235       -25.9661
  67   2.0000      -0.953311       -25.9409
  68   2.0000      -0.940061       -25.5804
  69   2.0000      -0.918506       -24.9938
  70   2.0000      -0.912099       -24.8195
  71   2.0000      -0.848936       -23.1007
  72   2.0000      -0.836371       -22.7588
  73   2.0000      -0.822097       -22.3704
  74   2.0000      -0.812005       -22.0958
  75   2.0000      -0.799912       -21.7667
  76   2.0000      -0.784678       -21.3522
  77   2.0000      -0.783060       -21.3081
  78   2.0000      -0.779786       -21.2190
  79   2.0000      -0.777028       -21.1440
  80   2.0000      -0.772340       -21.0164
  81   2.0000      -0.751930       -20.4611
  82   2.0000      -0.740485       -20.1496
  83   2.0000      -0.717239       -19.5171
  84   2.0000      -0.706547       -19.2261
  85   2.0000      -0.698386       -19.0041
  86   2.0000      -0.684777       -18.6337
  87   2.0000      -0.673752       -18.3337
  88   2.0000      -0.662668       -18.0321
  89   2.0000      -0.658770       -17.9260
  90   2.0000      -0.653408       -17.7801
  91   2.0000      -0.635295       -17.2873
  92   2.0000      -0.631288       -17.1782
  93   2.0000      -0.623574       -16.9683
  94   2.0000      -0.621424       -16.9098
  95   2.0000      -0.618074       -16.8187
  96   2.0000      -0.609309       -16.5801
  97   2.0000      -0.599725       -16.3194
  98   2.0000      -0.599114       -16.3027
  99   2.0000      -0.598071       -16.2743
 100   2.0000      -0.592728       -16.1289
 101   2.0000      -0.590466       -16.0674
 102   2.0000      -0.588437       -16.0122
 103   2.0000      -0.584612       -15.9081
 104   2.0000      -0.581774       -15.8309
 105   2.0000      -0.576852       -15.6969
 106   2.0000      -0.571853       -15.5609
 107   2.0000      -0.558666       -15.2021
 108   2.0000      -0.558093       -15.1865
 109   2.0000      -0.555121       -15.1056
 110   2.0000      -0.554320       -15.0838
 111   2.0000      -0.553868       -15.0715
 112   2.0000      -0.550383       -14.9767
 113   2.0000      -0.546826       -14.8799
 114   2.0000      -0.539000       -14.6669
 115   2.0000      -0.527620       -14.3573
 116   2.0000      -0.521649       -14.1948
 117   2.0000      -0.517868       -14.0919
 118   2.0000      -0.510120       -13.8811
 119   2.0000      -0.509202       -13.8561
 120   2.0000      -0.501625       -13.6499
 121   2.0000      -0.499344       -13.5878
 122   2.0000      -0.495183       -13.4746
 123   2.0000      -0.491964       -13.3870
 124   2.0000      -0.485744       -13.2178
 125   2.0000      -0.480254       -13.0684
 126   2.0000      -0.474908       -12.9229
 127   2.0000      -0.469056       -12.7637
 128   2.0000      -0.467652       -12.7254
 129   2.0000      -0.466411       -12.6917
 130   2.0000      -0.464966       -12.6524
 131   2.0000      -0.462760       -12.5923
 132   2.0000      -0.450523       -12.2594
 133   2.0000      -0.443710       -12.0740
 134   2.0000      -0.410686       -11.1753
 135   2.0000      -0.408500       -11.1158
 136   2.0000      -0.397985       -10.8297
 137   2.0000      -0.387219       -10.5368
 138   2.0000      -0.374895       -10.2014
 139   2.0000      -0.371853       -10.1186
 140   2.0000      -0.367517       -10.0006
 141   2.0000      -0.360330        -9.8051
 142   2.0000      -0.350928        -9.5492
 143   2.0000      -0.349211        -9.5025
 144   2.0000      -0.346661        -9.4331
 145   2.0000      -0.344044        -9.3619
 146   2.0000      -0.339371        -9.2348
 147   2.0000      -0.335878        -9.1397
 148   2.0000      -0.314746        -8.5647
 149   2.0000      -0.294308        -8.0085
 150   2.0000      -0.251615        -6.8468
 151   0.0000       0.002221         0.0604
 152   0.0000       0.030620         0.8332
 153   0.0000       0.051442         1.3998
 154   0.0000       0.064366         1.7515
 155   0.0000       0.069013         1.8779

MULLIKEN ATOMIC CHARGES
-----------------------
   0 C :    0.345843
   1 C :   -0.150953
   2 C :    0.302646
   3 C :    0.051368
   4 C :   -0.233118
   5 C :   -0.389895
   6 C :    0.379969
   7 C :    0.112553
   8 C :    0.299223
   9 C :   -0.111123
  10 C :    0.284598
  11 C :    0.030163
  12 C :   -0.351041
  13 H :    0.206589
  14 H :    0.158205
  15 H :    0.241321
  16 O :   -0.250945
  17 O :   -0.567554
  18 O :   -0.578405
  19 C :   -0.071162
  20 C :   -0.362999
  21 C :   -0.041228
  22 C :   -0.141143
  23 H :    0.196669
  24 C :   -0.184531
  25 C :   -0.202096
  26 H :    0.188904
  27 H :    0.190027
  28 H :    0.187662
  29 C :    0.417257
  30 O :   -0.670041
  31 O :   -0.660141
  32 C :    0.085441
  33 C :   -0.261247
  34 C :   -0.261968
  35 C :   -0.198868
  36 H :    0.172181
  37 C :   -0.199269
  38 H :    0.177074
  39 C :   -0.188696
  40 H :    0.179191
  41 H :    0.181000
  42 H :    0.181784
  43 C :    0.021731
  44 C :   -0.269145
  45 C :   -0.263159
  46 C :   -0.207398
  47 H :    0.180281
  48 C :   -0.206168
  49 H :    0.174723
  50 C :   -0.181728
  51 H :    0.180503
  52 H :    0.179211
  53 H :    0.182029
  54 C :    0.080194
  55 C :   -0.297219
  56 C :   -0.264680
  57 C :   -0.208087
  58 H :    0.193325
  59 C :   -0.195040
  60 H :    0.175406
  61 C :   -0.187626
  62 H :    0.179395
  63 H :    0.179632
  64 H :    0.182738
  65 Na:    0.877839
Sum of atomic charges:   -1.0000000

LOEWDIN ATOMIC CHARGES
----------------------
   0 C :   -0.322010
   1 C :   -0.105133
   2 C :   -0.120147
   3 C :   -0.124662
   4 C :   -0.093849
   5 C :   -0.157594
   6 C :    0.033618
   7 C :   -0.120934
   8 C :   -0.123603
   9 C :   -0.102209
  10 C :   -0.276485
  11 C :   -0.105170
  12 C :   -0.044007
  13 H :    0.168728
  14 H :    0.151890
  15 H :    0.176910
  16 O :    0.368180
  17 O :   -0.054313
  18 O :   -0.077246
  19 C :   -0.062972
  20 C :   -0.095847
  21 C :   -0.074918
  22 C :   -0.137271
  23 H :    0.167620
  24 C :   -0.099350
  25 C :   -0.138989
  26 H :    0.159643
  27 H :    0.164250
  28 H :    0.158826
  29 C :   -0.502620
  30 O :   -0.022788
  31 O :   -0.007648
  32 C :   -0.116623
  33 C :   -0.109546
  34 C :   -0.112267
  35 C :   -0.161828
  36 H :    0.158343
  37 C :   -0.161683
  38 H :    0.158888
  39 C :   -0.164340
  40 H :    0.154499
  41 H :    0.155050
  42 H :    0.153812
  43 C :   -0.114963
  44 C :   -0.112249
  45 C :   -0.109460
  46 C :   -0.161374
  47 H :    0.159188
  48 C :   -0.161598
  49 H :    0.158313
  50 C :   -0.164270
  51 H :    0.155033
  52 H :    0.154535
  53 H :    0.153850
  54 C :   -0.114918
  55 C :   -0.116203
  56 C :   -0.112142
  57 C :   -0.160267
  58 H :    0.159488
  59 C :   -0.160454
  60 H :    0.157733
  61 C :   -0.163991
  62 H :    0.155206
  63 H :    0.154816
  64 H :    0.153622
  65 Na:    0.555901

  Mayer bond orders larger than 0.100000
B(  0-C ,  1-C ) :   1.0189 B(  0-C ,  5-C ) :   1.1724 B(  0-C , 18-O ) :   1.8923
B(  1-C ,  2-C ) :   1.3726 B(  1-C , 18-O ) :  -0.1256 B(  1-C , 32-C ) :   0.8381
B(  2-C ,  3-C ) :   1.2801 B(  2-C , 16-O ) :   1.0803 B(  3-C ,  4-C ) :   1.1459
B(  3-C ,  6-C ) :   1.2329 B(  4-C ,  5-C ) :   1.6546 B(  4-C , 13-H ) :   0.9446
B(  5-C , 14-H ) :   0.9910 B(  6-C ,  7-C ) :   1.1418 B(  6-C , 19-C ) :   0.6742
B(  6-C , 20-C ) :  -0.1325 B(  6-C , 21-C ) :  -0.1313 B(  7-C ,  8-C ) :   1.2928
B(  7-C , 12-C ) :   1.1430 B(  7-C , 19-C ) :  -0.1055 B(  8-C ,  9-C ) :   1.4443
B(  8-C , 16-O ) :   1.0952 B(  9-C , 10-C ) :   1.0838 B(  9-C , 17-O ) :  -0.1582
B(  9-C , 43-C ) :   0.8284 B( 10-C , 11-C ) :   1.1060 B( 10-C , 17-O ) :   1.9738
B( 11-C , 12-C ) :   1.5762 B( 11-C , 17-O ) :  -0.1422 B( 11-C , 54-C ) :   0.8231
B( 12-C , 15-H ) :   0.9117 B( 19-C , 20-C ) :   1.4401 B( 19-C , 21-C ) :   1.3435
B( 20-C , 22-C ) :   1.4294 B( 20-C , 23-H ) :   0.9750 B( 21-C , 24-C ) :   1.4168
B( 21-C , 29-C ) :   0.9059 B( 22-C , 25-C ) :   1.3864 B( 22-C , 26-H ) :   0.9745
B( 24-C , 25-C ) :   1.4006 B( 24-C , 27-H ) :   0.9660 B( 25-C , 28-H ) :   0.9761
B( 29-C , 30-O ) :   1.5854 B( 29-C , 31-O ) :   1.6125 B( 30-O , 65-Na) :   0.1065
B( 31-O , 65-Na) :   0.1116 B( 32-C , 33-C ) :   1.3812 B( 32-C , 34-C ) :   1.3441
B( 33-C , 35-C ) :   1.4474 B( 33-C , 36-H ) :   0.9726 B( 34-C , 37-C ) :   1.4480
B( 34-C , 38-H ) :   0.9758 B( 35-C , 39-C ) :   1.3887 B( 35-C , 40-H ) :   0.9801
B( 37-C , 39-C ) :   1.3813 B( 37-C , 41-H ) :   0.9834 B( 39-C , 42-H ) :   0.9792
B( 43-C , 44-C ) :   1.3513 B( 43-C , 45-C ) :   1.3856 B( 44-C , 46-C ) :   1.4469
B( 44-C , 47-H ) :   0.9745 B( 45-C , 48-C ) :   1.4524 B( 45-C , 49-H ) :   0.9713
B( 46-C , 50-C ) :   1.3819 B( 46-C , 51-H ) :   0.9848 B( 48-C , 50-C ) :   1.3847
B( 48-C , 52-H ) :   0.9816 B( 50-C , 53-H ) :   0.9801 B( 54-C , 55-C ) :   1.3698
B( 54-C , 56-C ) :   1.3541 B( 55-C , 57-C ) :   1.4713 B( 55-C , 58-H ) :   0.9425
B( 56-C , 59-C ) :   1.4472 B( 56-C , 60-H ) :   0.9693 B( 57-C , 61-C ) :   1.3947
B( 57-C , 62-H ) :   0.9786 B( 59-C , 61-C ) :   1.3873 B( 59-C , 63-H ) :   0.9789
B( 61-C , 64-H ) :   0.9758

MP2 TOTAL ENERGY:    -1999.120027815 Eh

-----------------------------------------------------------------------------
         ABSORPTION SPECTRUM VIA TRANSITION ELECTRIC DIPOLE MOMENTS
-----------------------------------------------------------------------------
State   Energy    Wavelength  fosc         T2        TX        TY        TZ
        (cm-1)      (nm)                 (au**2)    (au)      (au)      (au)
-----------------------------------------------------------------------------
   1   19696.5    507.7   0.900384759  15.04923   2.57398  -2.90200  -0.04735
   2   27918.2    358.2   0.135660511   1.59971  -1.20190  -0.36642  -0.14451
   3   29578.1    338.1   0.054585414   0.60755  -0.76112   0.11048  -0.12663
   4   32697.8    305.8   0.074516368   0.75026   0.56680   0.65497   0.00374
   5   34087.5    293.4   0.611268685   5.90354  -2.00438  -1.36089  -0.18437
   6   31953.1    313.0   0.056749355   0.58469   0.53300   0.54189   0.08336
   7   31500.4    317.5   0.007518880   0.07858   0.22564   0.16629  -0.00382
   8   38010.0    263.1   0.143506943   1.24294  -1.05965   0.34651  -0.00294
   9   38638.3    258.8   0.071183359   0.60651   0.17940  -0.75672  -0.04130
  10   37763.6    264.8   0.170901936   1.48987  -0.72968  -0.97840  -0.01320
  11   38456.5    260.0   0.015757837   0.13490  -0.25326   0.25841  -0.06311
  12   39027.6    256.2   0.005833356   0.04921  -0.10686  -0.03771   0.19070
  13   39593.9    252.6   0.007510950   0.06245  -0.15857   0.15901  -0.10964
  14   39030.9    256.2   0.076382613   0.64426   0.49053  -0.59300  -0.22802
  15   39929.1    250.4   0.010100372   0.08328  -0.26362   0.07577  -0.08967
  16   40470.9    247.1   0.129727486   1.05527   0.97471  -0.29582   0.13304
  17   41828.8    239.1   0.153863254   1.21098   0.50615   0.89860   0.38380
  18   43428.2    230.3   0.065501264   0.49654   0.69268  -0.00141   0.12932
  19   40450.7    247.2   0.108820314   0.88565   0.68756  -0.63942  -0.06364
  20   41971.1    238.3   0.041982908   0.32930  -0.48205   0.31045  -0.02359
  21   43595.1    229.4   0.109515546   0.82702  -0.03920   0.74658   0.51778
  22   42484.9    235.4   0.003221178   0.02496  -0.05445   0.14752   0.01531
  23   45118.2    221.6   0.091237616   0.66573   0.01262   0.70269  -0.41448
  24   44836.3    223.0   0.025321479   0.18592  -0.23529   0.24533  -0.26528
  25   45726.6    218.7   0.083503036   0.60119   0.39097  -0.59866  -0.29988
  26   44161.7    226.4   0.045335589   0.33796   0.35605  -0.02772  -0.45872
  27   46065.7    217.1   0.164170614   1.17326  -0.92847   0.43154  -0.35351
  28   45789.7    218.4   0.110954219   0.79772  -0.79946  -0.39387  -0.05872
  29   46187.2    216.5   0.031569265   0.22502  -0.36678  -0.30054   0.01309
  30   43878.7    227.9   0.066504971   0.49897  -0.20752  -0.64616   0.19593

FINAL SINGLE POINT ENERGY     -1995.281653207952

DIPOLE MOMENT
-------------
                                X             Y             Z
Electronic contribution:    -10.09055      -9.66676      14.77342
Nuclear contribution   :      5.49594       9.51929     -12.42031
                        -----------------------------------------
Total Dipole Moment    :     -4.59461      -0.14746       2.35310
                        -----------------------------------------
Magnitude (a.u.)       :      5.16423
Magnitude (Debye)      :     13.12643

Rotational constants in cm-1:     0.003424     0.002174     0.001529
Rotational constants in MHz :   102.652398    65.171305    45.832607

                             ****ORCA TERMINATED NORMALLY****
TOTAL RUN TIME: 1 days 9 hours 15 minutes 47 seconds 259 msec
