                         Program Version 5.0.2 -  RELEASE  -
|  1> %maxcore 20000
|  2> %pal
|  3>  nprocs= 4
|  4> end
|  5> ! RI-B2GP-PLYP   def2-TZVP def2/J def2-TZVP/C RIJCOSX CPCM TightSCF
|  6> %TDDFT
|  7>    NROOTS   30
|  8>    dcorr 4
|  9>    TDA      FALSE
| 10> END
| 11>
| 12>  %CPCM
| 13>    SMD          TRUE
| 14>    SMDsolvent   "ACETONITRILE"
| 15>  END
| 16>
| 17>
| 18> * xyz -1 1
| 19> C                   3.39156800   -3.24338000   -0.26933600
| 20> C                   3.11363300   -1.81773900   -0.27086200
| 21> C                   1.80176500   -1.39259100   -0.31928100
| 22> C                   0.68223000   -2.26384100   -0.40846600
| 23> C                   0.96685700   -3.65517300   -0.39231000
| 24> C                   2.24011000   -4.11815100   -0.32472800
| 25> C                  -0.60905000   -1.72267100   -0.46713900
| 26> C                  -0.78035100   -0.32947900   -0.41542600
| 27> C                   0.35488100    0.50301700   -0.25126700
| 28> C                   0.28281900    1.87358600   -0.13039700
| 29> C                  -1.00614100    2.53627400   -0.20079400
| 30> C                  -2.17900500    1.68062600   -0.40697400
| 31> C                  -2.03020700    0.32332300   -0.50143400
| 32> H                   0.13714700   -4.35076300   -0.42597600
| 33> H                   2.44041200   -5.18330200   -0.30888400
| 34> H                  -2.90910400   -0.28633700   -0.67370600
| 35> O                   1.59734000   -0.04937500   -0.23707400
| 36> O                  -1.11103100    3.77244700   -0.05900700
| 37> O                   4.55277900   -3.70509900   -0.22877700
| 38> C                  -1.78490400   -2.60781100   -0.63045900
| 39> C                  -1.90606600   -3.34742800   -1.80797100
| 40> C                  -2.81215000   -2.67700400    0.32332900
| 41> C                  -3.01017700   -4.15115900   -2.04036100
| 42> H                  -1.12284800   -3.27653000   -2.55354500
| 43> C                  -3.92583400   -3.47236200    0.06662400
| 44> C                  -4.02513400   -4.21689100   -1.09691300
| 45> H                  -3.07907800   -4.71833100   -2.96002600
| 46> H                  -4.71523300   -3.50319500    0.80748400
| 47> H                  -4.89231000   -4.84197700   -1.26966400
| 48> C                  -2.73945700   -1.93037600    1.62878900
| 49> O                  -3.80480700   -1.41156200    2.05968800
| 50> O                  -1.63042000   -1.88269400    2.22215700
| 51> C                   4.23056100   -0.85650000   -0.21361300
| 52> C                   5.22855700   -0.98061600    0.75753000
| 53> C                   4.33988500    0.19339000   -1.13133100
| 54> C                   6.28466600   -0.08368800    0.81718100
| 55> H                   5.16650400   -1.78901200    1.47430200
| 56> C                   5.39830600    1.08680200   -1.07727300
| 57> H                   3.58602700    0.30531100   -1.90136900
| 58> C                   6.37589600    0.95461500   -0.10004300
| 59> H                   7.04100200   -0.19677000    1.58469000
| 60> H                   5.45852900    1.89068700   -1.80140100
| 61> H                   7.20171800    1.65395700   -0.05458900
| 62> C                   1.49661800    2.68223500    0.09543800
| 63> C                   2.38323200    2.38196100    1.13406300
| 64> C                   1.78718000    3.78431400   -0.71336400
| 65> C                   3.51701300    3.14886200    1.35435800
| 66> H                   2.17500200    1.53826500    1.78126900
| 67> C                   2.92607500    4.54680100   -0.50097200
| 68> H                   1.11092700    4.03777900   -1.51956200
| 69> C                   3.79622100    4.23443100    0.53511800
| 70> H                   4.18565600    2.89629400    2.16873500
| 71> H                   3.13405400    5.39108000   -1.14732400
| 72> H                   4.68394300    4.83189600    0.70270800
| 73> C                  -3.52583300    2.26853000   -0.48652500
| 74> C                  -4.61912600    1.60031000    0.08064100
| 75> C                  -3.77293900    3.47914800   -1.14575400
| 76> C                  -5.90259900    2.11545500   -0.01103100
| 77> H                  -4.45184200    0.67035300    0.61521600
| 78> C                  -5.05801400    3.98997400   -1.24036700
| 79> H                  -2.94659700    4.01159700   -1.59407600
| 80> C                  -6.13010600    3.31490500   -0.67184600
| 81> H                  -6.72808700    1.58060700    0.44330700
| 82> H                  -5.22402800    4.92313500   -1.76547700
| 83> H                  -7.13181500    3.72048900   -0.74150900
| 84> Na                 -2.60334200   -0.55319700    3.78931800
| 85> *
| 86>
| 87>
| 88>
| 89>                          ****END OF INPUT****

CARTESIAN COORDINATES (ANGSTROEM)
---------------------------------
  C      3.391568   -3.243380   -0.269336
  C      3.113633   -1.817739   -0.270862
  C      1.801765   -1.392591   -0.319281
  C      0.682230   -2.263841   -0.408466
  C      0.966857   -3.655173   -0.392310
  C      2.240110   -4.118151   -0.324728
  C     -0.609050   -1.722671   -0.467139
  C     -0.780351   -0.329479   -0.415426
  C      0.354881    0.503017   -0.251267
  C      0.282819    1.873586   -0.130397
  C     -1.006141    2.536274   -0.200794
  C     -2.179005    1.680626   -0.406974
  C     -2.030207    0.323323   -0.501434
  H      0.137147   -4.350763   -0.425976
  H      2.440412   -5.183302   -0.308884
  H     -2.909104   -0.286337   -0.673706
  O      1.597340   -0.049375   -0.237074
  O     -1.111031    3.772447   -0.059007
  O      4.552779   -3.705099   -0.228777
  C     -1.784904   -2.607811   -0.630459
  C     -1.906066   -3.347428   -1.807971
  C     -2.812150   -2.677004    0.323329
  C     -3.010177   -4.151159   -2.040361
  H     -1.122848   -3.276530   -2.553545
  C     -3.925834   -3.472362    0.066624
  C     -4.025134   -4.216891   -1.096913
  H     -3.079078   -4.718331   -2.960026
  H     -4.715233   -3.503195    0.807484
  H     -4.892310   -4.841977   -1.269664
  C     -2.739457   -1.930376    1.628789
  O     -3.804807   -1.411562    2.059688
  O     -1.630420   -1.882694    2.222157
  C      4.230561   -0.856500   -0.213613
  C      5.228557   -0.980616    0.757530
  C      4.339885    0.193390   -1.131331
  C      6.284666   -0.083688    0.817181
  H      5.166504   -1.789012    1.474302
  C      5.398306    1.086802   -1.077273
  H      3.586027    0.305311   -1.901369
  C      6.375896    0.954615   -0.100043
  H      7.041002   -0.196770    1.584690
  H      5.458529    1.890687   -1.801401
  H      7.201718    1.653957   -0.054589
  C      1.496618    2.682235    0.095438
  C      2.383232    2.381961    1.134063
  C      1.787180    3.784314   -0.713364
  C      3.517013    3.148862    1.354358
  H      2.175002    1.538265    1.781269
  C      2.926075    4.546801   -0.500972
  H      1.110927    4.037779   -1.519562
  C      3.796221    4.234431    0.535118
  H      4.185656    2.896294    2.168735
  H      3.134054    5.391080   -1.147324
  H      4.683943    4.831896    0.702708
  C     -3.525833    2.268530   -0.486525
  C     -4.619126    1.600310    0.080641
  C     -3.772939    3.479148   -1.145754
  C     -5.902599    2.115455   -0.011031
  H     -4.451842    0.670353    0.615216
  C     -5.058014    3.989974   -1.240367
  H     -2.946597    4.011597   -1.594076
  C     -6.130106    3.314905   -0.671846
  H     -6.728087    1.580607    0.443307
  H     -5.224028    4.923135   -1.765477
  H     -7.131815    3.720489   -0.741509
  Na    -2.603342   -0.553197    3.789318

 Total Charge           Charge          ....   -1
 Multiplicity           Mult            ....    1
 Number of Electrons    NEL             ....  302
 Basis Dimension        Dim             .... 1497

ORBITAL ENERGIES
----------------

  NO   OCC          E(Eh)            E(eV)
   0   2.0000     -39.598909     -1077.5411
   1   2.0000     -19.997980      -544.1727
   2   2.0000     -19.886424      -541.1371
   3   2.0000     -19.885966      -541.1246
   4   2.0000     -19.869569      -540.6785
   5   2.0000     -19.869560      -540.6782
   6   2.0000     -10.879885      -296.0567
   7   2.0000     -10.855498      -295.3931
   8   2.0000     -10.853739      -295.3453
   9   2.0000     -10.835576      -294.8510
  10   2.0000     -10.832569      -294.7692
  11   2.0000     -10.825649      -294.5809
  12   2.0000     -10.796394      -293.7848
  13   2.0000     -10.786484      -293.5152
  14   2.0000     -10.781127      -293.3694
  15   2.0000     -10.779916      -293.3364
  16   2.0000     -10.779435      -293.3233
  17   2.0000     -10.779363      -293.3214
  18   2.0000     -10.778149      -293.2883
  19   2.0000     -10.778042      -293.2854
  20   2.0000     -10.777919      -293.2821
  21   2.0000     -10.777464      -293.2697
  22   2.0000     -10.776346      -293.2393
  23   2.0000     -10.776123      -293.2332
  24   2.0000     -10.774710      -293.1948
  25   2.0000     -10.768310      -293.0206
  26   2.0000     -10.767668      -293.0032
  27   2.0000     -10.767353      -292.9946
  28   2.0000     -10.766907      -292.9824
  29   2.0000     -10.766794      -292.9794
  30   2.0000     -10.766644      -292.9753
  31   2.0000     -10.766358      -292.9675
  32   2.0000     -10.766255      -292.9647
  33   2.0000     -10.765551      -292.9455
  34   2.0000     -10.765475      -292.9435
  35   2.0000     -10.765389      -292.9411
  36   2.0000     -10.764854      -292.9266
  37   2.0000     -10.764805      -292.9252
  38   2.0000     -10.764562      -292.9186
  39   2.0000     -10.764330      -292.9123
  40   2.0000     -10.764088      -292.9057
  41   2.0000     -10.760026      -292.7952
  42   2.0000     -10.759667      -292.7854
  43   2.0000     -10.754397      -292.6420
  44   2.0000      -2.530930       -68.8701
  45   2.0000      -1.346942       -36.6521
  46   2.0000      -1.346153       -36.6307
  47   2.0000      -1.345207       -36.6050
  48   2.0000      -1.306365       -35.5480
  49   2.0000      -1.237962       -33.6867
  50   2.0000      -1.182168       -32.1684
  51   2.0000      -1.178685       -32.0737
  52   2.0000      -1.135594       -30.9011
  53   2.0000      -1.053342       -28.6629
  54   2.0000      -1.035469       -28.1765
  55   2.0000      -1.027773       -27.9671
  56   2.0000      -1.024750       -27.8849
  57   2.0000      -1.017284       -27.6817
  58   2.0000      -1.010483       -27.4966
  59   2.0000      -0.960455       -26.1353
  60   2.0000      -0.947119       -25.7724
  61   2.0000      -0.927648       -25.2426
  62   2.0000      -0.913837       -24.8668
  63   2.0000      -0.911180       -24.7945
  64   2.0000      -0.895247       -24.3609
  65   2.0000      -0.894012       -24.3273
  66   2.0000      -0.893092       -24.3023
  67   2.0000      -0.892147       -24.2766
  68   2.0000      -0.878768       -23.9125
  69   2.0000      -0.857481       -23.3333
  70   2.0000      -0.851233       -23.1632
  71   2.0000      -0.789704       -21.4889
  72   2.0000      -0.777139       -21.1470
  73   2.0000      -0.763340       -20.7715
  74   2.0000      -0.754174       -20.5221
  75   2.0000      -0.742179       -20.1957
  76   2.0000      -0.727812       -19.8048
  77   2.0000      -0.726394       -19.7662
  78   2.0000      -0.723449       -19.6861
  79   2.0000      -0.720732       -19.6121
  80   2.0000      -0.715821       -19.4785
  81   2.0000      -0.695562       -18.9272
  82   2.0000      -0.684708       -18.6319
  83   2.0000      -0.661342       -17.9960
  84   2.0000      -0.651072       -17.7166
  85   2.0000      -0.642313       -17.4782
  86   2.0000      -0.629349       -17.1255
  87   2.0000      -0.619685       -16.8625
  88   2.0000      -0.609064       -16.5735
  89   2.0000      -0.604399       -16.4465
  90   2.0000      -0.599559       -16.3148
  91   2.0000      -0.580208       -15.7883
  92   2.0000      -0.577284       -15.7087
  93   2.0000      -0.570488       -15.5238
  94   2.0000      -0.567530       -15.4433
  95   2.0000      -0.564960       -15.3733
  96   2.0000      -0.556967       -15.1558
  97   2.0000      -0.548596       -14.9280
  98   2.0000      -0.548007       -14.9120
  99   2.0000      -0.546618       -14.8742
 100   2.0000      -0.540929       -14.7194
 101   2.0000      -0.538807       -14.6617
 102   2.0000      -0.536797       -14.6070
 103   2.0000      -0.533098       -14.5063
 104   2.0000      -0.529244       -14.4015
 105   2.0000      -0.525132       -14.2896
 106   2.0000      -0.521856       -14.2004
 107   2.0000      -0.508917       -13.8483
 108   2.0000      -0.507835       -13.8189
 109   2.0000      -0.506249       -13.7757
 110   2.0000      -0.505568       -13.7572
 111   2.0000      -0.504132       -13.7181
 112   2.0000      -0.498679       -13.5697
 113   2.0000      -0.494530       -13.4568
 114   2.0000      -0.488880       -13.3031
 115   2.0000      -0.474968       -12.9245
 116   2.0000      -0.469231       -12.7684
 117   2.0000      -0.467776       -12.7288
 118   2.0000      -0.461193       -12.5497
 119   2.0000      -0.458964       -12.4890
 120   2.0000      -0.449784       -12.2392
 121   2.0000      -0.448793       -12.2123
 122   2.0000      -0.443868       -12.0783
 123   2.0000      -0.442457       -12.0399
 124   2.0000      -0.435060       -11.8386
 125   2.0000      -0.433461       -11.7951
 126   2.0000      -0.427878       -11.6432
 127   2.0000      -0.421981       -11.4827
 128   2.0000      -0.420467       -11.4415
 129   2.0000      -0.419533       -11.4161
 130   2.0000      -0.419027       -11.4023
 131   2.0000      -0.414940       -11.2911
 132   2.0000      -0.403413       -10.9774
 133   2.0000      -0.393096       -10.6967
 134   2.0000      -0.361287        -9.8311
 135   2.0000      -0.358277        -9.7492
 136   2.0000      -0.348823        -9.4920
 137   2.0000      -0.339494        -9.2381
 138   2.0000      -0.325373        -8.8538
 139   2.0000      -0.323401        -8.8002
 140   2.0000      -0.320227        -8.7138
 141   2.0000      -0.314062        -8.5461
 142   2.0000      -0.305863        -8.3230
 143   2.0000      -0.304085        -8.2746
 144   2.0000      -0.301755        -8.2112
 145   2.0000      -0.299058        -8.1378
 146   2.0000      -0.294713        -8.0195
 147   2.0000      -0.290962        -7.9175
 148   2.0000      -0.270895        -7.3714
 149   2.0000      -0.250670        -6.8211
 150   2.0000      -0.211400        -5.7525
 151   0.0000      -0.011629        -0.3164
 152   0.0000       0.015905         0.4328
 153   0.0000       0.034819         0.9475
 154   0.0000       0.047272         1.2863
 155   0.0000       0.051845         1.4108

MULLIKEN ATOMIC CHARGES
-----------------------
   0 C :    0.330382
   1 C :   -0.128949
   2 C :    0.295500
   3 C :    0.069576
   4 C :   -0.224782
   5 C :   -0.360836
   6 C :    0.448917
   7 C :    0.130140
   8 C :    0.280024
   9 C :   -0.071245
  10 C :    0.253945
  11 C :    0.049586
  12 C :   -0.338103
  13 H :    0.176314
  14 H :    0.127404
  15 H :    0.197907
  16 O :   -0.288246
  17 O :   -0.568445
  18 O :   -0.577980
  19 C :   -0.030828
  20 C :   -0.351732
  21 C :   -0.029491
  22 C :   -0.122917
  23 H :    0.165782
  24 C :   -0.176046
  25 C :   -0.176148
  26 H :    0.164511
  27 H :    0.163239
  28 H :    0.163430
  29 C :    0.422855
  30 O :   -0.670157
  31 O :   -0.666457
  32 C :    0.101432
  33 C :   -0.241421
  34 C :   -0.240337
  35 C :   -0.174202
  36 H :    0.139563
  37 C :   -0.161499
  38 H :    0.145120
  39 C :   -0.168374
  40 H :    0.153670
  41 H :    0.153049
  42 H :    0.156170
  43 C :    0.036134
  44 C :   -0.248419
  45 C :   -0.245948
  46 C :   -0.169039
  47 H :    0.148300
  48 C :   -0.182066
  49 H :    0.142453
  50 C :   -0.162124
  51 H :    0.152607
  52 H :    0.153722
  53 H :    0.156367
  54 C :    0.066339
  55 C :   -0.284092
  56 C :   -0.239133
  57 C :   -0.181578
  58 H :    0.189643
  59 C :   -0.167224
  60 H :    0.144242
  61 C :   -0.166453
  62 H :    0.154722
  63 H :    0.154518
  64 H :    0.157850
  65 Na:    0.868854
Sum of atomic charges:   -1.0000000

LOEWDIN ATOMIC CHARGES
----------------------
   0 C :   -0.319200
   1 C :   -0.099814
   2 C :   -0.119756
   3 C :   -0.118072
   4 C :   -0.092482
   5 C :   -0.153942
   6 C :    0.032978
   7 C :   -0.114421
   8 C :   -0.122969
   9 C :   -0.096967
  10 C :   -0.273893
  11 C :   -0.100134
  12 C :   -0.043558
  13 H :    0.162586
  14 H :    0.144954
  15 H :    0.171097
  16 O :    0.363955
  17 O :   -0.057368
  18 O :   -0.080967
  19 C :   -0.057180
  20 C :   -0.092159
  21 C :   -0.070695
  22 C :   -0.134332
  23 H :    0.161066
  24 C :   -0.096666
  25 C :   -0.136227
  26 H :    0.153374
  27 H :    0.158011
  28 H :    0.152581
  29 C :   -0.494977
  30 O :   -0.023753
  31 O :   -0.009269
  32 C :   -0.109742
  33 C :   -0.105556
  34 C :   -0.107012
  35 C :   -0.157993
  36 H :    0.152092
  37 C :   -0.155491
  38 H :    0.152514
  39 C :   -0.159958
  40 H :    0.148201
  41 H :    0.148600
  42 H :    0.147446
  43 C :   -0.108036
  44 C :   -0.107027
  45 C :   -0.105628
  46 C :   -0.155228
  47 H :    0.152844
  48 C :   -0.157809
  49 H :    0.152002
  50 C :   -0.159953
  51 H :    0.148590
  52 H :    0.148243
  53 H :    0.147486
  54 C :   -0.109190
  55 C :   -0.112294
  56 C :   -0.107792
  57 C :   -0.156345
  58 H :    0.155731
  59 C :   -0.156409
  60 H :    0.151947
  61 C :   -0.160110
  62 H :    0.149016
  63 H :    0.148646
  64 H :    0.147501
  65 Na:    0.548915

  Mayer bond orders larger than 0.100000
B(  0-C ,  1-C ) :   1.0050 B(  0-C ,  5-C ) :   1.1809 B(  0-C , 18-O ) :   1.9169
B(  1-C ,  2-C ) :   1.3594 B(  1-C , 18-O ) :  -0.1392 B(  1-C , 32-C ) :   0.8301
B(  2-C ,  3-C ) :   1.2734 B(  2-C , 16-O ) :   1.0593 B(  3-C ,  4-C ) :   1.1492
B(  3-C ,  6-C ) :   1.2071 B(  4-C ,  5-C ) :   1.6369 B(  4-C , 13-H ) :   0.9607
B(  5-C , 14-H ) :   1.0073 B(  6-C ,  7-C ) :   1.1268 B(  6-C , 19-C ) :   0.6493
B(  6-C , 20-C ) :  -0.1256 B(  6-C , 21-C ) :  -0.1385 B(  7-C ,  8-C ) :   1.2816
B(  7-C , 12-C ) :   1.1318 B(  7-C , 19-C ) :  -0.1027 B(  8-C ,  9-C ) :   1.4432
B(  8-C , 16-O ) :   1.0768 B(  9-C , 10-C ) :   1.0789 B(  9-C , 17-O ) :  -0.1746
B(  9-C , 43-C ) :   0.8148 B( 10-C , 11-C ) :   1.1004 B( 10-C , 17-O ) :   1.9988
B( 11-C , 12-C ) :   1.5685 B( 11-C , 17-O ) :  -0.1579 B( 11-C , 54-C ) :   0.8240
B( 12-C , 15-H ) :   0.9469 B( 19-C , 20-C ) :   1.4189 B( 19-C , 21-C ) :   1.3527
B( 20-C , 22-C ) :   1.4323 B( 20-C , 23-H ) :   0.9916 B( 21-C , 24-C ) :   1.4074
B( 21-C , 29-C ) :   0.8976 B( 22-C , 25-C ) :   1.3876 B( 22-C , 26-H ) :   0.9811
B( 24-C , 25-C ) :   1.3995 B( 24-C , 27-H ) :   0.9800 B( 25-C , 28-H ) :   0.9821
B( 29-C , 30-O ) :   1.5903 B( 29-C , 31-O ) :   1.6199 B( 30-O , 65-Na) :   0.1123
B( 31-O , 65-Na) :   0.1169 B( 32-C , 33-C ) :   1.3824 B( 32-C , 34-C ) :   1.3507
B( 33-C , 35-C ) :   1.4468 B( 33-C , 36-H ) :   0.9815 B( 34-C , 37-C ) :   1.4521
B( 34-C , 38-H ) :   0.9829 B( 35-C , 39-C ) :   1.3933 B( 35-C , 40-H ) :   0.9861
B( 37-C , 39-C ) :   1.3894 B( 37-C , 41-H ) :   0.9870 B( 39-C , 42-H ) :   0.9817
B( 43-C , 44-C ) :   1.3577 B( 43-C , 45-C ) :   1.3844 B( 44-C , 46-C ) :   1.4508
B( 44-C , 47-H ) :   0.9821 B( 45-C , 48-C ) :   1.4535 B( 45-C , 49-H ) :   0.9810
B( 46-C , 50-C ) :   1.3904 B( 46-C , 51-H ) :   0.9884 B( 48-C , 50-C ) :   1.3899
B( 48-C , 52-H ) :   0.9875 B( 50-C , 53-H ) :   0.9827 B( 54-C , 55-C ) :   1.3755
B( 54-C , 56-C ) :   1.3609 B( 55-C , 57-C ) :   1.4650 B( 55-C , 58-H ) :   0.9373
B( 56-C , 59-C ) :   1.4456 B( 56-C , 60-H ) :   0.9780 B( 57-C , 61-C ) :   1.3973
B( 57-C , 62-H ) :   0.9848 B( 59-C , 61-C ) :   1.3893 B( 59-C , 63-H ) :   0.9855
B( 61-C , 64-H ) :   0.9811

MP2 TOTAL ENERGY:    -1998.707362797 Eh

-----------------------------------------------------------------------------
         ABSORPTION SPECTRUM VIA TRANSITION ELECTRIC DIPOLE MOMENTS
-----------------------------------------------------------------------------
State   Energy    Wavelength  fosc         T2        TX        TY        TZ
        (cm-1)      (nm)                 (au**2)    (au)      (au)      (au)
-----------------------------------------------------------------------------
   1   19579.5    510.7   0.878327447  14.76830  -2.54696   2.87735   0.04680
   2   25949.2    385.4   0.089450985   1.13485  -1.00233  -0.34093  -0.11808
   3   28322.2    353.1   0.105634313   1.22787   1.09671   0.05106   0.15000
   4   31542.1    317.0   0.076997483   0.80364  -0.48992  -0.75074   0.00276
   5   34163.7    292.7   0.015084886   0.14536  -0.31708  -0.21114  -0.01553
   6   32226.3    310.3   0.447694608   4.57349   1.77254   1.18555   0.16141
   7   29248.8    341.9   0.001530238   0.01722  -0.04736  -0.11938  -0.02702
   8   29586.1    338.0   0.011056191   0.12303   0.29617   0.18786   0.00415
   9   36096.1    277.0   0.160421021   1.46311   1.01070  -0.66431  -0.01720
  10   33950.7    294.5   0.163812544   1.58845   0.73076   1.02274   0.09184
  11   35116.5    284.8   0.086114943   0.80731  -0.56727  -0.69673  -0.00872
  12   37592.1    266.0   0.015737959   0.13782   0.35522  -0.06015  -0.08958
  13   37729.3    265.0   0.082365230   0.71869  -0.73209   0.42544  -0.04166
  14   37681.3    265.4   0.051368455   0.44879  -0.53756   0.39918   0.02192
  15   38091.6    262.5   0.003674624   0.03176  -0.10750  -0.00117   0.14213
  16   37590.0    266.0   0.029905610   0.26191   0.27303   0.23808   0.36150
  17   38066.1    262.7   0.013457288   0.11638  -0.24171  -0.22573  -0.08371
  18   37158.0    269.1   0.107807056   0.95515  -0.44103   0.85925   0.14943
  19   38423.0    260.3   0.018003415   0.15426  -0.09515  -0.38104  -0.00344
  20   41478.6    241.1   0.137955364   1.09494  -1.00609   0.25116  -0.14015
  21   42015.7    238.0   0.032574643   0.25524   0.50132  -0.04453   0.04399
  22   42347.6    236.1   0.004898555   0.03808  -0.18941  -0.03035  -0.03585
  23   42102.4    237.5   0.017488048   0.13674  -0.31323   0.09647  -0.17124
  24   41464.0    241.2   0.168319493   1.33641  -0.86662  -0.72402  -0.24732
  25   43297.4    231.0   0.079968084   0.60804   0.14362  -0.50091  -0.58008
  26   41217.9    242.6   0.017575379   0.14038  -0.11424   0.15335  -0.32219
  27   41244.5    242.5   0.017133597   0.13676   0.05403   0.36538  -0.01833
  28   41017.0    243.8   0.020614617   0.16546   0.38004  -0.09395   0.11047
  29   41671.9    240.0   0.086468273   0.68311   0.82329  -0.07272   0.00218
  30   41953.0    238.4   0.096461905   0.75695  -0.12037   0.75288  -0.41909

FINAL SINGLE POINT ENERGY     -1995.618816492794

DIPOLE MOMENT
-------------
                                X             Y             Z
Electronic contribution:    -10.04672      -9.62022      14.78042
Nuclear contribution   :      5.49594       9.51929     -12.42031
                        -----------------------------------------
Total Dipole Moment    :     -4.55078      -0.10093       2.36011
                        -----------------------------------------
Magnitude (a.u.)       :      5.12736
Magnitude (Debye)      :     13.03272

Rotational constants in cm-1:     0.003424     0.002174     0.001529
Rotational constants in MHz :   102.652398    65.171305    45.832607

                             ****ORCA TERMINATED NORMALLY****
TOTAL RUN TIME: 4 days 1 hours 6 minutes 52 seconds 14 msec
