                         Program Version 5.0.2 -  RELEASE  -
|  1> %maxcore 3200
|  2> %pal
|  3>  nprocs= 8
|  4> end
|  5> ! RI-wB2PLYP def2-TZVP def2/J def2-TZVP/C RIJCOSX CPCM TightSCF
|  6> %TDDFT DCORR 1
|  7>    NROOTS   30
|  8>   TDA      FALSE
|  9> END
| 10>
| 11>  %CPCM
| 12>    SMD          TRUE
| 13>    SMDsolvent   "ACETONITRILE"
| 14>  END
| 15>
| 16>
| 17> * xyz -2 1
| 18> C                   3.32326300   -3.23324600   -0.17326700
| 19> C                   3.03025600   -1.81111700   -0.18529000
| 20> C                   1.71207400   -1.39966900   -0.19258500
| 21> C                   0.59921200   -2.28228800   -0.23371000
| 22> C                   0.89971800   -3.66975400   -0.20821700
| 23> C                   2.17976100   -4.11921900   -0.17671200
| 24> C                  -0.70130600   -1.75557900   -0.25858900
| 25> C                  -0.88164200   -0.36292700   -0.21676800
| 26> C                   0.25004100    0.48266400   -0.10361600
| 27> C                   0.16866100    1.85479100   -0.01017000
| 28> C                  -1.12784700    2.50509800   -0.05306200
| 29> C                  -2.29838800    1.63524200   -0.20250900
| 30> C                  -2.13867100    0.27803500   -0.27732100
| 31> H                   0.07678900   -4.37408300   -0.20354800
| 32> H                   2.39093100   -5.18213900   -0.15135800
| 33> H                  -3.01617000   -0.34336500   -0.40556500
| 34> O                   1.49806200   -0.05756600   -0.12089400
| 35> O                  -1.23750100    3.74407400    0.06252800
| 36> O                   4.49057400   -3.68334700   -0.16699900
| 37> C                  -1.87150600   -2.65261100   -0.39111200
| 38> C                  -1.99654400   -3.41886200   -1.55243400
| 39> C                  -2.88125900   -2.71142800    0.58278900
| 40> C                  -3.08714600   -4.25038900   -1.75023700
| 41> H                  -1.22620200   -3.34982800   -2.31219600
| 42> C                  -3.98085000   -3.53635100    0.35642800
| 43> C                  -4.08337000   -4.31378900   -0.78602300
| 44> H                  -3.15969900   -4.83964200   -2.65579000
| 45> H                  -4.76278700   -3.56049400    1.10643100
| 46> H                  -4.93971500   -4.96198800   -0.92834900
| 47> C                  -2.79921100   -1.92824100    1.88440600
| 48> O                  -3.85114400   -1.34416000    2.23638700
| 49> O                  -1.70114100   -1.96731600    2.48261100
| 50> C                   4.13832100   -0.83799500   -0.18644800
| 51> C                   5.18057400   -0.94058100    0.73998500
| 52> C                   4.19629000    0.20247200   -1.11986400
| 53> C                   6.22954900   -0.03322800    0.74114800
| 54> H                   5.15882100   -1.74036200    1.46851300
| 55> C                   5.24736200    1.10600400   -1.12442000
| 56> H                   3.40752700    0.29840100   -1.85630200
| 57> C                   6.26981600    0.99443700   -0.19167300
| 58> H                   7.02054100   -0.12983700    1.47527400
| 59> H                   5.26572900    1.90262600   -1.85888800
| 60> H                   7.08987800    1.70199000   -0.19157100
| 61> C                   1.38091600    2.68027900    0.15367700
| 62> C                   2.30508800    2.41968000    1.16991300
| 63> C                   1.63144600    3.76221800   -0.69487800
| 64> C                   3.43561800    3.20621100    1.33041900
| 65> H                   2.12921500    1.59233000    1.84707200
| 66> C                   2.76688800    4.54381400   -0.54247000
| 67> H                   0.92549800    3.98530900   -1.48448800
| 68> C                   3.67419900    4.27145100    0.47277200
| 69> H                   4.13269600    2.98572700    2.13016800
| 70> H                   2.94244900    5.37208200   -1.21854300
| 71> H                   4.55884800    4.88436700    0.59489800
| 72> C                  -3.65485200    2.20480200   -0.24246600
| 73> C                  -4.71904800    1.52197300    0.36315700
| 74> C                  -3.94012600    3.40987700   -0.89685700
| 75> C                  -6.01143000    2.02052400    0.31074400
| 76> H                  -4.51889300    0.59669200    0.89734700
| 77> C                  -5.23453400    3.90299400   -0.95072300
| 78> H                  -3.13572900    3.95294300   -1.37164500
| 79> C                  -6.27777000    3.21476700   -0.34565000
| 80> H                  -6.81441300    1.47646900    0.79398800
| 81> H                  -5.43057600    4.83260000   -1.47192200
| 82> H                  -7.28685400    3.60637500   -0.38279000
| 83> *
| 84>
| 85>
| 86>                          ****END OF INPUT****

CARTESIAN COORDINATES (ANGSTROEM)
---------------------------------
  C      3.323263   -3.233246   -0.173267
  C      3.030256   -1.811117   -0.185290
  C      1.712074   -1.399669   -0.192585
  C      0.599212   -2.282288   -0.233710
  C      0.899718   -3.669754   -0.208217
  C      2.179761   -4.119219   -0.176712
  C     -0.701306   -1.755579   -0.258589
  C     -0.881642   -0.362927   -0.216768
  C      0.250041    0.482664   -0.103616
  C      0.168661    1.854791   -0.010170
  C     -1.127847    2.505098   -0.053062
  C     -2.298388    1.635242   -0.202509
  C     -2.138671    0.278035   -0.277321
  H      0.076789   -4.374083   -0.203548
  H      2.390931   -5.182139   -0.151358
  H     -3.016170   -0.343365   -0.405565
  O      1.498062   -0.057566   -0.120894
  O     -1.237501    3.744074    0.062528
  O      4.490574   -3.683347   -0.166999
  C     -1.871506   -2.652611   -0.391112
  C     -1.996544   -3.418862   -1.552434
  C     -2.881259   -2.711428    0.582789
  C     -3.087146   -4.250389   -1.750237
  H     -1.226202   -3.349828   -2.312196
  C     -3.980850   -3.536351    0.356428
  C     -4.083370   -4.313789   -0.786023
  H     -3.159699   -4.839642   -2.655790
  H     -4.762787   -3.560494    1.106431
  H     -4.939715   -4.961988   -0.928349
  C     -2.799211   -1.928241    1.884406
  O     -3.851144   -1.344160    2.236387
  O     -1.701141   -1.967316    2.482611
  C      4.138321   -0.837995   -0.186448
  C      5.180574   -0.940581    0.739985
  C      4.196290    0.202472   -1.119864
  C      6.229549   -0.033228    0.741148
  H      5.158821   -1.740362    1.468513
  C      5.247362    1.106004   -1.124420
  H      3.407527    0.298401   -1.856302
  C      6.269816    0.994437   -0.191673
  H      7.020541   -0.129837    1.475274
  H      5.265729    1.902626   -1.858888
  H      7.089878    1.701990   -0.191571
  C      1.380916    2.680279    0.153677
  C      2.305088    2.419680    1.169913
  C      1.631446    3.762218   -0.694878
  C      3.435618    3.206211    1.330419
  H      2.129215    1.592330    1.847072
  C      2.766888    4.543814   -0.542470
  H      0.925498    3.985309   -1.484488
  C      3.674199    4.271451    0.472772
  H      4.132696    2.985727    2.130168
  H      2.942449    5.372082   -1.218543
  H      4.558848    4.884367    0.594898
  C     -3.654852    2.204802   -0.242466
  C     -4.719048    1.521973    0.363157
  C     -3.940126    3.409877   -0.896857
  C     -6.011430    2.020524    0.310744
  H     -4.518893    0.596692    0.897347
  C     -5.234534    3.902994   -0.950723
  H     -3.135729    3.952943   -1.371645
  C     -6.277770    3.214767   -0.345650
  H     -6.814413    1.476469    0.793988
  H     -5.430576    4.832600   -1.471922
  H     -7.286854    3.606375   -0.382790

 Total Charge           Charge          ....   -2
 Multiplicity           Mult            ....    1
 Number of Electrons    NEL             ....  292
 Basis Dimension        Dim             .... 1465

ORBITAL ENERGIES
----------------

  NO   OCC          E(Eh)            E(eV)
   0   2.0000     -19.854243      -540.2614
   1   2.0000     -19.724794      -536.7389
   2   2.0000     -19.724726      -536.7371
   3   2.0000     -19.708828      -536.3045
   4   2.0000     -19.708473      -536.2948
   5   2.0000     -10.765599      -292.9468
   6   2.0000     -10.763357      -292.8858
   7   2.0000     -10.757544      -292.7276
   8   2.0000     -10.744899      -292.3836
   9   2.0000     -10.742161      -292.3091
  10   2.0000     -10.736135      -292.1451
  11   2.0000     -10.698518      -291.1215
  12   2.0000     -10.690466      -290.9024
  13   2.0000     -10.688058      -290.8368
  14   2.0000     -10.687785      -290.8294
  15   2.0000     -10.687645      -290.8256
  16   2.0000     -10.687603      -290.8245
  17   2.0000     -10.685992      -290.7806
  18   2.0000     -10.685603      -290.7700
  19   2.0000     -10.683319      -290.7079
  20   2.0000     -10.682363      -290.6819
  21   2.0000     -10.681434      -290.6566
  22   2.0000     -10.680949      -290.6434
  23   2.0000     -10.678619      -290.5800
  24   2.0000     -10.676180      -290.5136
  25   2.0000     -10.676164      -290.5132
  26   2.0000     -10.676130      -290.5123
  27   2.0000     -10.675747      -290.5018
  28   2.0000     -10.675698      -290.5005
  29   2.0000     -10.675617      -290.4983
  30   2.0000     -10.674956      -290.4803
  31   2.0000     -10.674854      -290.4775
  32   2.0000     -10.674835      -290.4770
  33   2.0000     -10.674691      -290.4731
  34   2.0000     -10.674287      -290.4621
  35   2.0000     -10.674111      -290.4573
  36   2.0000     -10.673785      -290.4484
  37   2.0000     -10.673725      -290.4468
  38   2.0000     -10.672155      -290.4041
  39   2.0000     -10.671826      -290.3952
  40   2.0000     -10.668337      -290.3002
  41   2.0000     -10.667420      -290.2752
  42   2.0000     -10.662554      -290.1429
  43   2.0000      -1.332210       -36.2513
  44   2.0000      -1.228874       -33.4394
  45   2.0000      -1.207714       -32.8636
  46   2.0000      -1.204228       -32.7687
  47   2.0000      -1.131551       -30.7911
  48   2.0000      -1.083669       -29.4881
  49   2.0000      -1.069737       -29.1090
  50   2.0000      -1.061023       -28.8719
  51   2.0000      -1.059695       -28.8358
  52   2.0000      -1.049137       -28.5485
  53   2.0000      -1.045277       -28.4434
  54   2.0000      -0.994644       -27.0656
  55   2.0000      -0.982407       -26.7327
  56   2.0000      -0.962821       -26.1997
  57   2.0000      -0.944771       -25.7085
  58   2.0000      -0.939664       -25.5696
  59   2.0000      -0.930060       -25.3082
  60   2.0000      -0.929127       -25.2828
  61   2.0000      -0.928422       -25.2637
  62   2.0000      -0.927498       -25.2385
  63   2.0000      -0.913791       -24.8655
  64   2.0000      -0.892732       -24.2925
  65   2.0000      -0.886555       -24.1244
  66   2.0000      -0.822489       -22.3811
  67   2.0000      -0.814983       -22.1768
  68   2.0000      -0.800046       -21.7704
  69   2.0000      -0.783425       -21.3181
  70   2.0000      -0.778187       -21.1755
  71   2.0000      -0.765274       -20.8242
  72   2.0000      -0.763612       -20.7789
  73   2.0000      -0.760739       -20.7008
  74   2.0000      -0.757770       -20.6200
  75   2.0000      -0.750875       -20.4324
  76   2.0000      -0.731307       -19.8999
  77   2.0000      -0.722271       -19.6540
  78   2.0000      -0.693104       -18.8603
  79   2.0000      -0.685696       -18.6587
  80   2.0000      -0.680736       -18.5238
  81   2.0000      -0.666417       -18.1341
  82   2.0000      -0.659750       -17.9527
  83   2.0000      -0.649279       -17.6678
  84   2.0000      -0.643371       -17.5070
  85   2.0000      -0.628132       -17.0923
  86   2.0000      -0.620556       -16.8862
  87   2.0000      -0.616363       -16.7721
  88   2.0000      -0.608845       -16.5675
  89   2.0000      -0.600071       -16.3288
  90   2.0000      -0.596537       -16.2326
  91   2.0000      -0.588257       -16.0073
  92   2.0000      -0.585965       -15.9449
  93   2.0000      -0.584749       -15.9118
  94   2.0000      -0.582878       -15.8609
  95   2.0000      -0.579363       -15.7653
  96   2.0000      -0.574397       -15.6301
  97   2.0000      -0.571749       -15.5581
  98   2.0000      -0.565504       -15.3882
  99   2.0000      -0.562738       -15.3129
 100   2.0000      -0.555820       -15.1246
 101   2.0000      -0.546930       -14.8827
 102   2.0000      -0.545369       -14.8402
 103   2.0000      -0.545172       -14.8349
 104   2.0000      -0.543909       -14.8005
 105   2.0000      -0.543716       -14.7953
 106   2.0000      -0.536873       -14.6091
 107   2.0000      -0.532640       -14.4939
 108   2.0000      -0.527945       -14.3661
 109   2.0000      -0.518042       -14.0967
 110   2.0000      -0.515487       -14.0271
 111   2.0000      -0.512303       -13.9405
 112   2.0000      -0.504897       -13.7390
 113   2.0000      -0.499418       -13.5899
 114   2.0000      -0.494472       -13.4553
 115   2.0000      -0.490881       -13.3576
 116   2.0000      -0.488084       -13.2814
 117   2.0000      -0.487462       -13.2645
 118   2.0000      -0.480160       -13.0658
 119   2.0000      -0.477306       -12.9882
 120   2.0000      -0.466835       -12.7032
 121   2.0000      -0.464377       -12.6363
 122   2.0000      -0.459372       -12.5001
 123   2.0000      -0.457771       -12.4566
 124   2.0000      -0.456678       -12.4268
 125   2.0000      -0.455460       -12.3937
 126   2.0000      -0.452308       -12.3079
 127   2.0000      -0.438980       -11.9452
 128   2.0000      -0.434285       -11.8175
 129   2.0000      -0.382974       -10.4212
 130   2.0000      -0.370053       -10.0696
 131   2.0000      -0.366951        -9.9852
 132   2.0000      -0.362852        -9.8737
 133   2.0000      -0.358829        -9.7642
 134   2.0000      -0.356090        -9.6897
 135   2.0000      -0.352890        -9.6026
 136   2.0000      -0.350370        -9.5341
 137   2.0000      -0.342061        -9.3080
 138   2.0000      -0.341350        -9.2886
 139   2.0000      -0.338210        -9.2031
 140   2.0000      -0.334228        -9.0948
 141   2.0000      -0.329793        -8.9741
 142   2.0000      -0.327194        -8.9034
 143   2.0000      -0.307020        -8.3544
 144   2.0000      -0.287673        -7.8280
 145   2.0000      -0.244315        -6.6481
 146   0.0000       0.013573         0.3693
 147   0.0000       0.066089         1.7984
 148   0.0000       0.076694         2.0869
 149   0.0000       0.088225         2.4007
 150   0.0000       0.089821         2.4442

MULLIKEN ATOMIC CHARGES
-----------------------
   0 C :    0.274036
   1 C :   -0.127705
   2 C :    0.276967
   3 C :    0.026879
   4 C :   -0.220753
   5 C :   -0.359198
   6 C :    0.364220
   7 C :    0.066826
   8 C :    0.273897
   9 C :   -0.096740
  10 C :    0.228780
  11 C :    0.010649
  12 C :   -0.310272
  13 H :    0.197646
  14 H :    0.143796
  15 H :    0.224138
  16 O :   -0.264033
  17 O :   -0.524773
  18 O :   -0.536684
  19 C :   -0.035033
  20 C :   -0.336918
  21 C :   -0.112738
  22 C :   -0.157002
  23 H :    0.183014
  24 C :   -0.195707
  25 C :   -0.194451
  26 H :    0.178639
  27 H :    0.169367
  28 H :    0.177415
  29 C :    0.279514
  30 O :   -0.565341
  31 O :   -0.560181
  32 C :    0.082106
  33 C :   -0.236947
  34 C :   -0.240200
  35 C :   -0.194217
  36 H :    0.161756
  37 C :   -0.194202
  38 H :    0.168516
  39 C :   -0.183117
  40 H :    0.171440
  41 H :    0.172484
  42 H :    0.173739
  43 C :    0.023206
  44 C :   -0.249026
  45 C :   -0.239942
  46 C :   -0.197987
  47 H :    0.170436
  48 C :   -0.200426
  49 H :    0.164389
  50 C :   -0.179117
  51 H :    0.172378
  52 H :    0.171442
  53 H :    0.174142
  54 C :    0.061030
  55 C :   -0.272404
  56 C :   -0.241030
  57 C :   -0.203191
  58 H :    0.182187
  59 C :   -0.190534
  60 H :    0.163220
  61 C :   -0.186182
  62 H :    0.171944
  63 H :    0.171653
  64 H :    0.174201
Sum of atomic charges:   -2.0000000

LOEWDIN ATOMIC CHARGES
----------------------
   0 C :   -0.326874
   1 C :   -0.105299
   2 C :   -0.123407
   3 C :   -0.124069
   4 C :   -0.094773
   5 C :   -0.160294
   6 C :    0.036097
   7 C :   -0.120082
   8 C :   -0.126991
   9 C :   -0.102887
  10 C :   -0.280427
  11 C :   -0.106394
  12 C :   -0.043575
  13 H :    0.166611
  14 H :    0.148452
  15 H :    0.174044
  16 O :    0.373019
  17 O :   -0.051063
  18 O :   -0.075616
  19 C :   -0.071417
  20 C :   -0.101745
  21 C :   -0.080619
  22 C :   -0.151742
  23 H :    0.163279
  24 C :   -0.116318
  25 C :   -0.146196
  26 H :    0.154805
  27 H :    0.157153
  28 H :    0.154531
  29 C :   -0.617156
  30 O :   -0.121482
  31 O :   -0.109983
  32 C :   -0.112776
  33 C :   -0.109435
  34 C :   -0.111179
  35 C :   -0.161572
  36 H :    0.155781
  37 C :   -0.160104
  38 H :    0.156368
  39 C :   -0.164160
  40 H :    0.152082
  41 H :    0.152521
  42 H :    0.151290
  43 C :   -0.111313
  44 C :   -0.111027
  45 C :   -0.109516
  46 C :   -0.159724
  47 H :    0.156708
  48 C :   -0.161545
  49 H :    0.155757
  50 C :   -0.164241
  51 H :    0.152560
  52 H :    0.152075
  53 H :    0.151313
  54 C :   -0.112976
  55 C :   -0.119718
  56 C :   -0.113995
  57 C :   -0.161751
  58 H :    0.155996
  59 C :   -0.161879
  60 H :    0.154750
  61 C :   -0.165225
  62 H :    0.152392
  63 H :    0.152062
  64 H :    0.150897

  Mayer bond orders larger than 0.100000
B(  0-C ,  1-C ) :   1.0067 B(  0-C ,  5-C ) :   1.1839 B(  0-C , 18-O ) :   1.9773
B(  1-C ,  2-C ) :   1.3677 B(  1-C , 18-O ) :  -0.1423 B(  1-C , 32-C ) :   0.8496
B(  2-C ,  3-C ) :   1.2591 B(  2-C , 16-O ) :   1.0637 B(  3-C ,  4-C ) :   1.1448
B(  3-C ,  6-C ) :   1.2220 B(  4-C ,  5-C ) :   1.6482 B(  4-C , 13-H ) :   0.9451
B(  5-C , 14-H ) :   0.9956 B(  6-C ,  7-C ) :   1.1668 B(  6-C , 19-C ) :   0.7129
B(  6-C , 21-C ) :  -0.1058 B(  7-C ,  8-C ) :   1.2591 B(  7-C , 12-C ) :   1.1520
B(  8-C ,  9-C ) :   1.4499 B(  8-C , 16-O ) :   1.0822 B(  9-C , 10-C ) :   1.0883
B(  9-C , 17-O ) :  -0.1835 B(  9-C , 43-C ) :   0.8369 B( 10-C , 11-C ) :   1.0871
B( 10-C , 17-O ) :   2.0598 B( 11-C , 12-C ) :   1.5827 B( 11-C , 17-O ) :  -0.1609
B( 11-C , 54-C ) :   0.8539 B( 12-C , 15-H ) :   0.9252 B( 19-C , 20-C ) :   1.3914
B( 19-C , 21-C ) :   1.3409 B( 20-C , 22-C ) :   1.4405 B( 20-C , 23-H ) :   0.9803
B( 21-C , 24-C ) :   1.4137 B( 21-C , 29-C ) :   0.8691 B( 21-C , 30-O ) :  -0.1429
B( 22-C , 25-C ) :   1.3896 B( 22-C , 26-H ) :   0.9768 B( 24-C , 25-C ) :   1.4119
B( 24-C , 27-H ) :   0.9706 B( 25-C , 28-H ) :   0.9770 B( 29-C , 30-O ) :   1.8225
B( 29-C , 31-O ) :   1.8996 B( 30-O , 58-H ) :   0.1007 B( 32-C , 33-C ) :   1.3757
B( 32-C , 34-C ) :   1.3381 B( 33-C , 35-C ) :   1.4469 B( 33-C , 36-H ) :   0.9698
B( 34-C , 37-C ) :   1.4430 B( 34-C , 38-H ) :   0.9771 B( 35-C , 39-C ) :   1.3914
B( 35-C , 40-H ) :   0.9801 B( 37-C , 39-C ) :   1.3843 B( 37-C , 41-H ) :   0.9846
B( 39-C , 42-H ) :   0.9778 B( 43-C , 44-C ) :   1.3432 B( 43-C , 45-C ) :   1.3753
B( 44-C , 46-C ) :   1.4408 B( 44-C , 47-H ) :   0.9795 B( 45-C , 48-C ) :   1.4517
B( 45-C , 49-H ) :   0.9701 B( 46-C , 50-C ) :   1.3864 B( 46-C , 51-H ) :   0.9856
B( 48-C , 50-C ) :   1.3873 B( 48-C , 52-H ) :   0.9815 B( 50-C , 53-H ) :   0.9781
B( 54-C , 55-C ) :   1.3795 B( 54-C , 56-C ) :   1.3610 B( 55-C , 57-C ) :   1.4696
B( 55-C , 58-H ) :   0.9127 B( 56-C , 59-C ) :   1.4439 B( 56-C , 60-H ) :   0.9666
B( 57-C , 61-C ) :   1.3995 B( 57-C , 62-H ) :   0.9774 B( 59-C , 61-C ) :   1.3917
B( 59-C , 63-H ) :   0.9796 B( 61-C , 64-H ) :   0.9763

MP2 TOTAL ENERGY:    -1834.917046993 Eh

-----------------------------------------------------------------------------
         ABSORPTION SPECTRUM VIA TRANSITION ELECTRIC DIPOLE MOMENTS
-----------------------------------------------------------------------------
State   Energy    Wavelength  fosc         T2        TX        TY        TZ
        (cm-1)      (nm)                 (au**2)    (au)      (au)      (au)
-----------------------------------------------------------------------------
   1   21507.7    464.9   0.970106577  14.84911   2.56264  -2.87644  -0.09007
   2   30374.7    329.2   0.151086686   1.63753  -1.21307  -0.39603  -0.09573
   3   32437.0    308.3   0.041269376   0.41885   0.62865  -0.11936   0.09701
   4   34480.3    290.0   0.070968833   0.67760  -0.52938  -0.62940   0.03471
   5   36082.2    277.1   0.646629385   5.89981   2.03350   1.32590   0.08178
   6   35428.7    282.3   0.149952183   1.39339  -0.93987  -0.71060  -0.07137
   7   35182.8    284.2   0.016353124   0.15302   0.32952   0.21040  -0.01289
   8   39504.9    253.1   0.161843504   1.34871   0.76783  -0.86858  -0.06864
   9   38997.1    256.4   0.038439410   0.32450   0.21463   0.48578  -0.20606
  10   39517.6    253.1   0.115629881   0.96328   0.63976   0.68391   0.29369
  11   40565.7    246.5   0.008731375   0.07086   0.23203   0.12947  -0.01609
  12   40976.5    244.0   0.004272274   0.03432  -0.11990   0.08685  -0.11138
  13   41065.7    243.5   0.009583632   0.07683  -0.22408   0.15430  -0.05298
  14   41488.4    241.0   0.184124398   1.46103   1.20853  -0.00301   0.02173
  15   41265.0    242.3   0.186014753   1.48403   0.21870  -1.18843  -0.15437
  16   43955.2    227.5   0.062348324   0.46697   0.64271   0.17505   0.15246
  17   43596.4    229.4   0.036016300   0.27197  -0.41718  -0.07833  -0.30298
  18   43231.8    231.3   0.092834917   0.70694   0.32601  -0.74168  -0.22487
  19   44191.7    226.3   0.145890557   1.08683   0.92484  -0.46470  -0.12474
  20   43870.1    227.9   0.042469379   0.31870  -0.31901   0.38815   0.25744
  21   45068.1    221.9   0.000538018   0.00393   0.03034  -0.01609   0.05245
  22   44937.3    222.5   0.047457454   0.34767  -0.04553   0.53720   0.23879
  23   45111.3    221.7   0.035380392   0.25820   0.06569   0.02279   0.50335
  24   45970.0    217.5   0.012943686   0.09270  -0.05820   0.29821  -0.01941
  25   47253.3    211.6   0.149060888   1.03850   0.10033   0.77554  -0.65343
  26   48294.4    207.1   0.315436967   2.15026   0.82856  -1.13202   0.42695
  27   47500.8    210.5   0.031802531   0.22041  -0.43998   0.03347  -0.16035
  28   47568.4    210.2   0.062444726   0.43217   0.62232  -0.07198   0.19927
  29   43186.3    231.6   0.052927574   0.40347   0.52288   0.35830   0.04112
  30   46894.2    213.2   0.119586821   0.83954   0.80757   0.42701   0.07090

FINAL SINGLE POINT ENERGY     -1832.720923531048

DIPOLE MOMENT
-------------
                                X             Y             Z
Electronic contribution:     -0.23895      -7.24503       1.43576
Nuclear contribution   :      0.77540       8.43793      -5.95590
                        -----------------------------------------
Total Dipole Moment    :      0.53645       1.19290      -4.52014
                        -----------------------------------------
Magnitude (a.u.)       :      4.70558
Magnitude (Debye)      :     11.96063

Rotational constants in cm-1:     0.003689     0.002324     0.001549
Rotational constants in MHz :   110.604063    69.659728    46.447533

                             ****ORCA TERMINATED NORMALLY****
TOTAL RUN TIME: 0 days 7 hours 15 minutes 20 seconds 72 msec
