                         Program Version 5.0.2 -  RELEASE  -
|  1> %maxcore 3200
|  2> %pal
|  3>  nprocs= 8
|  4> end
|  5> ! RI-DSD-BLYP D3BJ def2-TZVP def2/J def2-TZVP/C RIJCOSX CPCM TightSCF
|  6> %TDDFT DCORR 4
|  7>    NROOTS   30
|  8>   TDA      FALSE
|  9> END
| 10>
| 11>  %CPCM
| 12>    SMD          TRUE
| 13>    SMDsolvent   "ACETONITRILE"
| 14>  END
| 15>
| 16>
| 17> * xyz -2 1
| 18> C                   3.32326300   -3.23324600   -0.17326700
| 19> C                   3.03025600   -1.81111700   -0.18529000
| 20> C                   1.71207400   -1.39966900   -0.19258500
| 21> C                   0.59921200   -2.28228800   -0.23371000
| 22> C                   0.89971800   -3.66975400   -0.20821700
| 23> C                   2.17976100   -4.11921900   -0.17671200
| 24> C                  -0.70130600   -1.75557900   -0.25858900
| 25> C                  -0.88164200   -0.36292700   -0.21676800
| 26> C                   0.25004100    0.48266400   -0.10361600
| 27> C                   0.16866100    1.85479100   -0.01017000
| 28> C                  -1.12784700    2.50509800   -0.05306200
| 29> C                  -2.29838800    1.63524200   -0.20250900
| 30> C                  -2.13867100    0.27803500   -0.27732100
| 31> H                   0.07678900   -4.37408300   -0.20354800
| 32> H                   2.39093100   -5.18213900   -0.15135800
| 33> H                  -3.01617000   -0.34336500   -0.40556500
| 34> O                   1.49806200   -0.05756600   -0.12089400
| 35> O                  -1.23750100    3.74407400    0.06252800
| 36> O                   4.49057400   -3.68334700   -0.16699900
| 37> C                  -1.87150600   -2.65261100   -0.39111200
| 38> C                  -1.99654400   -3.41886200   -1.55243400
| 39> C                  -2.88125900   -2.71142800    0.58278900
| 40> C                  -3.08714600   -4.25038900   -1.75023700
| 41> H                  -1.22620200   -3.34982800   -2.31219600
| 42> C                  -3.98085000   -3.53635100    0.35642800
| 43> C                  -4.08337000   -4.31378900   -0.78602300
| 44> H                  -3.15969900   -4.83964200   -2.65579000
| 45> H                  -4.76278700   -3.56049400    1.10643100
| 46> H                  -4.93971500   -4.96198800   -0.92834900
| 47> C                  -2.79921100   -1.92824100    1.88440600
| 48> O                  -3.85114400   -1.34416000    2.23638700
| 49> O                  -1.70114100   -1.96731600    2.48261100
| 50> C                   4.13832100   -0.83799500   -0.18644800
| 51> C                   5.18057400   -0.94058100    0.73998500
| 52> C                   4.19629000    0.20247200   -1.11986400
| 53> C                   6.22954900   -0.03322800    0.74114800
| 54> H                   5.15882100   -1.74036200    1.46851300
| 55> C                   5.24736200    1.10600400   -1.12442000
| 56> H                   3.40752700    0.29840100   -1.85630200
| 57> C                   6.26981600    0.99443700   -0.19167300
| 58> H                   7.02054100   -0.12983700    1.47527400
| 59> H                   5.26572900    1.90262600   -1.85888800
| 60> H                   7.08987800    1.70199000   -0.19157100
| 61> C                   1.38091600    2.68027900    0.15367700
| 62> C                   2.30508800    2.41968000    1.16991300
| 63> C                   1.63144600    3.76221800   -0.69487800
| 64> C                   3.43561800    3.20621100    1.33041900
| 65> H                   2.12921500    1.59233000    1.84707200
| 66> C                   2.76688800    4.54381400   -0.54247000
| 67> H                   0.92549800    3.98530900   -1.48448800
| 68> C                   3.67419900    4.27145100    0.47277200
| 69> H                   4.13269600    2.98572700    2.13016800
| 70> H                   2.94244900    5.37208200   -1.21854300
| 71> H                   4.55884800    4.88436700    0.59489800
| 72> C                  -3.65485200    2.20480200   -0.24246600
| 73> C                  -4.71904800    1.52197300    0.36315700
| 74> C                  -3.94012600    3.40987700   -0.89685700
| 75> C                  -6.01143000    2.02052400    0.31074400
| 76> H                  -4.51889300    0.59669200    0.89734700
| 77> C                  -5.23453400    3.90299400   -0.95072300
| 78> H                  -3.13572900    3.95294300   -1.37164500
| 79> C                  -6.27777000    3.21476700   -0.34565000
| 80> H                  -6.81441300    1.47646900    0.79398800
| 81> H                  -5.43057600    4.83260000   -1.47192200
| 82> H                  -7.28685400    3.60637500   -0.38279000
| 83> *
| 84>
| 85>
| 86>                          ****END OF INPUT****

CARTESIAN COORDINATES (ANGSTROEM)
---------------------------------
  C      3.323263   -3.233246   -0.173267
  C      3.030256   -1.811117   -0.185290
  C      1.712074   -1.399669   -0.192585
  C      0.599212   -2.282288   -0.233710
  C      0.899718   -3.669754   -0.208217
  C      2.179761   -4.119219   -0.176712
  C     -0.701306   -1.755579   -0.258589
  C     -0.881642   -0.362927   -0.216768
  C      0.250041    0.482664   -0.103616
  C      0.168661    1.854791   -0.010170
  C     -1.127847    2.505098   -0.053062
  C     -2.298388    1.635242   -0.202509
  C     -2.138671    0.278035   -0.277321
  H      0.076789   -4.374083   -0.203548
  H      2.390931   -5.182139   -0.151358
  H     -3.016170   -0.343365   -0.405565
  O      1.498062   -0.057566   -0.120894
  O     -1.237501    3.744074    0.062528
  O      4.490574   -3.683347   -0.166999
  C     -1.871506   -2.652611   -0.391112
  C     -1.996544   -3.418862   -1.552434
  C     -2.881259   -2.711428    0.582789
  C     -3.087146   -4.250389   -1.750237
  H     -1.226202   -3.349828   -2.312196
  C     -3.980850   -3.536351    0.356428
  C     -4.083370   -4.313789   -0.786023
  H     -3.159699   -4.839642   -2.655790
  H     -4.762787   -3.560494    1.106431
  H     -4.939715   -4.961988   -0.928349
  C     -2.799211   -1.928241    1.884406
  O     -3.851144   -1.344160    2.236387
  O     -1.701141   -1.967316    2.482611
  C      4.138321   -0.837995   -0.186448
  C      5.180574   -0.940581    0.739985
  C      4.196290    0.202472   -1.119864
  C      6.229549   -0.033228    0.741148
  H      5.158821   -1.740362    1.468513
  C      5.247362    1.106004   -1.124420
  H      3.407527    0.298401   -1.856302
  C      6.269816    0.994437   -0.191673
  H      7.020541   -0.129837    1.475274
  H      5.265729    1.902626   -1.858888
  H      7.089878    1.701990   -0.191571
  C      1.380916    2.680279    0.153677
  C      2.305088    2.419680    1.169913
  C      1.631446    3.762218   -0.694878
  C      3.435618    3.206211    1.330419
  H      2.129215    1.592330    1.847072
  C      2.766888    4.543814   -0.542470
  H      0.925498    3.985309   -1.484488
  C      3.674199    4.271451    0.472772
  H      4.132696    2.985727    2.130168
  H      2.942449    5.372082   -1.218543
  H      4.558848    4.884367    0.594898
  C     -3.654852    2.204802   -0.242466
  C     -4.719048    1.521973    0.363157
  C     -3.940126    3.409877   -0.896857
  C     -6.011430    2.020524    0.310744
  H     -4.518893    0.596692    0.897347
  C     -5.234534    3.902994   -0.950723
  H     -3.135729    3.952943   -1.371645
  C     -6.277770    3.214767   -0.345650
  H     -6.814413    1.476469    0.793988
  H     -5.430576    4.832600   -1.471922
  H     -7.286854    3.606375   -0.382790

 Total Charge           Charge          ....   -2
 Multiplicity           Mult            ....    1
 Number of Electrons    NEL             ....  292
 Basis Dimension        Dim             .... 1465

ORBITAL ENERGIES
----------------

  NO   OCC          E(Eh)            E(eV)
   0   2.0000     -20.064340      -545.9784
   1   2.0000     -19.935270      -542.4663
   2   2.0000     -19.935152      -542.4631
   3   2.0000     -19.919058      -542.0251
   4   2.0000     -19.918792      -542.0179
   5   2.0000     -10.904282      -296.7206
   6   2.0000     -10.902070      -296.6604
   7   2.0000     -10.897757      -296.5430
   8   2.0000     -10.883834      -296.1642
   9   2.0000     -10.881156      -296.0913
  10   2.0000     -10.873477      -295.8824
  11   2.0000     -10.837146      -294.8937
  12   2.0000     -10.829457      -294.6845
  13   2.0000     -10.826934      -294.6158
  14   2.0000     -10.826620      -294.6073
  15   2.0000     -10.826473      -294.6033
  16   2.0000     -10.826357      -294.6002
  17   2.0000     -10.824947      -294.5618
  18   2.0000     -10.824502      -294.5497
  19   2.0000     -10.822565      -294.4970
  20   2.0000     -10.822055      -294.4831
  21   2.0000     -10.820659      -294.4451
  22   2.0000     -10.820528      -294.4415
  23   2.0000     -10.818091      -294.3752
  24   2.0000     -10.815990      -294.3181
  25   2.0000     -10.815874      -294.3149
  26   2.0000     -10.815822      -294.3135
  27   2.0000     -10.815495      -294.3046
  28   2.0000     -10.815291      -294.2990
  29   2.0000     -10.815210      -294.2968
  30   2.0000     -10.814498      -294.2774
  31   2.0000     -10.814473      -294.2768
  32   2.0000     -10.814366      -294.2739
  33   2.0000     -10.813653      -294.2545
  34   2.0000     -10.813466      -294.2494
  35   2.0000     -10.813383      -294.2471
  36   2.0000     -10.813199      -294.2421
  37   2.0000     -10.813155      -294.2409
  38   2.0000     -10.811649      -294.1999
  39   2.0000     -10.811148      -294.1863
  40   2.0000     -10.807534      -294.0880
  41   2.0000     -10.806536      -294.0608
  42   2.0000     -10.801842      -293.9331
  43   2.0000      -1.319437       -35.9037
  44   2.0000      -1.216096       -33.0916
  45   2.0000      -1.194066       -32.4922
  46   2.0000      -1.190632       -32.3987
  47   2.0000      -1.118328       -30.4313
  48   2.0000      -1.059796       -28.8385
  49   2.0000      -1.045822       -28.4583
  50   2.0000      -1.037250       -28.2250
  51   2.0000      -1.035785       -28.1851
  52   2.0000      -1.024843       -27.8874
  53   2.0000      -1.020684       -27.7742
  54   2.0000      -0.968758       -26.3612
  55   2.0000      -0.956256       -26.0211
  56   2.0000      -0.936876       -25.4937
  57   2.0000      -0.918486       -24.9933
  58   2.0000      -0.913554       -24.8591
  59   2.0000      -0.903689       -24.5906
  60   2.0000      -0.902998       -24.5718
  61   2.0000      -0.902358       -24.5544
  62   2.0000      -0.901239       -24.5240
  63   2.0000      -0.886756       -24.1299
  64   2.0000      -0.865767       -23.5587
  65   2.0000      -0.859458       -23.3870
  66   2.0000      -0.793402       -21.5896
  67   2.0000      -0.783671       -21.3248
  68   2.0000      -0.769131       -20.9291
  69   2.0000      -0.752279       -20.4705
  70   2.0000      -0.747550       -20.3419
  71   2.0000      -0.734237       -19.9796
  72   2.0000      -0.732711       -19.9381
  73   2.0000      -0.730025       -19.8650
  74   2.0000      -0.726969       -19.7818
  75   2.0000      -0.720448       -19.6044
  76   2.0000      -0.699418       -19.0321
  77   2.0000      -0.690592       -18.7920
  78   2.0000      -0.660098       -17.9622
  79   2.0000      -0.651618       -17.7314
  80   2.0000      -0.646108       -17.5815
  81   2.0000      -0.631950       -17.1962
  82   2.0000      -0.624707       -16.9991
  83   2.0000      -0.613925       -16.7058
  84   2.0000      -0.608829       -16.5671
  85   2.0000      -0.594972       -16.1900
  86   2.0000      -0.583648       -15.8819
  87   2.0000      -0.581232       -15.8161
  88   2.0000      -0.574067       -15.6212
  89   2.0000      -0.564689       -15.3660
  90   2.0000      -0.563124       -15.3234
  91   2.0000      -0.554763       -15.0959
  92   2.0000      -0.552560       -15.0359
  93   2.0000      -0.551674       -15.0118
  94   2.0000      -0.549603       -14.9555
  95   2.0000      -0.544576       -14.8187
  96   2.0000      -0.540188       -14.6993
  97   2.0000      -0.537044       -14.6137
  98   2.0000      -0.531528       -14.4636
  99   2.0000      -0.528954       -14.3936
 100   2.0000      -0.521735       -14.1971
 101   2.0000      -0.512798       -13.9539
 102   2.0000      -0.511005       -13.9052
 103   2.0000      -0.510803       -13.8997
 104   2.0000      -0.509988       -13.8775
 105   2.0000      -0.509473       -13.8635
 106   2.0000      -0.502339       -13.6693
 107   2.0000      -0.498032       -13.5521
 108   2.0000      -0.492906       -13.4127
 109   2.0000      -0.479602       -13.0506
 110   2.0000      -0.476212       -12.9584
 111   2.0000      -0.471930       -12.8419
 112   2.0000      -0.469649       -12.7798
 113   2.0000      -0.461204       -12.5500
 114   2.0000      -0.457831       -12.4582
 115   2.0000      -0.451474       -12.2852
 116   2.0000      -0.448249       -12.1975
 117   2.0000      -0.444868       -12.1055
 118   2.0000      -0.443962       -12.0808
 119   2.0000      -0.437670       -11.9096
 120   2.0000      -0.432722       -11.7750
 121   2.0000      -0.430586       -11.7168
 122   2.0000      -0.425481       -11.5779
 123   2.0000      -0.424187       -11.5427
 124   2.0000      -0.422784       -11.5045
 125   2.0000      -0.420844       -11.4518
 126   2.0000      -0.414434       -11.2773
 127   2.0000      -0.405264       -11.0278
 128   2.0000      -0.394328       -10.7302
 129   2.0000      -0.342462        -9.3189
 130   2.0000      -0.333300        -9.0696
 131   2.0000      -0.329078        -8.9547
 132   2.0000      -0.328152        -8.9295
 133   2.0000      -0.324074        -8.8185
 134   2.0000      -0.319185        -8.6855
 135   2.0000      -0.315295        -8.5796
 136   2.0000      -0.312607        -8.5065
 137   2.0000      -0.302660        -8.2358
 138   2.0000      -0.302075        -8.2199
 139   2.0000      -0.299246        -8.1429
 140   2.0000      -0.295272        -8.0348
 141   2.0000      -0.291569        -7.9340
 142   2.0000      -0.289305        -7.8724
 143   2.0000      -0.268782        -7.3139
 144   2.0000      -0.250287        -6.8107
 145   2.0000      -0.210152        -5.7185
 146   0.0000       0.000326         0.0089
 147   0.0000       0.050678         1.3790
 148   0.0000       0.060491         1.6460
 149   0.0000       0.071626         1.9490
 150   0.0000       0.073312         1.9949

MULLIKEN ATOMIC CHARGES
-----------------------
   0 C :    0.339613
   1 C :   -0.129707
   2 C :    0.308631
   3 C :    0.063659
   4 C :   -0.229067
   5 C :   -0.369512
   6 C :    0.462263
   7 C :    0.112146
   8 C :    0.287376
   9 C :   -0.070301
  10 C :    0.265980
  11 C :    0.048264
  12 C :   -0.329112
  13 H :    0.175598
  14 H :    0.126181
  15 H :    0.187439
  16 O :   -0.292148
  17 O :   -0.579711
  18 O :   -0.591634
  19 C :    0.003067
  20 C :   -0.368226
  21 C :   -0.111821
  22 C :   -0.136842
  23 H :    0.160987
  24 C :   -0.192562
  25 C :   -0.178561
  26 H :    0.160400
  27 H :    0.153713
  28 H :    0.159271
  29 C :    0.360598
  30 O :   -0.617280
  31 O :   -0.615121
  32 C :    0.103205
  33 C :   -0.241367
  34 C :   -0.241978
  35 C :   -0.174917
  36 H :    0.139086
  37 C :   -0.160826
  38 H :    0.144131
  39 C :   -0.168562
  40 H :    0.152985
  41 H :    0.152057
  42 H :    0.155483
  43 C :    0.038759
  44 C :   -0.255178
  45 C :   -0.249062
  46 C :   -0.165869
  47 H :    0.146046
  48 C :   -0.181516
  49 H :    0.141151
  50 C :   -0.163805
  51 H :    0.152018
  52 H :    0.152989
  53 H :    0.155899
  54 C :    0.060041
  55 C :   -0.283374
  56 C :   -0.236202
  57 C :   -0.183011
  58 H :    0.178857
  59 C :   -0.171228
  60 H :    0.143496
  61 C :   -0.166462
  62 H :    0.153831
  63 H :    0.153147
  64 H :    0.156597
Sum of atomic charges:   -2.0000000

LOEWDIN ATOMIC CHARGES
----------------------
   0 C :   -0.317711
   1 C :   -0.101872
   2 C :   -0.118311
   3 C :   -0.121012
   4 C :   -0.091719
   5 C :   -0.157270
   6 C :    0.037504
   7 C :   -0.117029
   8 C :   -0.121724
   9 C :   -0.099531
  10 C :   -0.272004
  11 C :   -0.104242
  12 C :   -0.040942
  13 H :    0.162097
  14 H :    0.143884
  15 H :    0.169647
  16 O :    0.360340
  17 O :   -0.063820
  18 O :   -0.088717
  19 C :   -0.068206
  20 C :   -0.098327
  21 C :   -0.076552
  22 C :   -0.148618
  23 H :    0.158601
  24 C :   -0.113013
  25 C :   -0.143044
  26 H :    0.150343
  27 H :    0.152970
  28 H :    0.150051
  29 C :   -0.596327
  30 O :   -0.134562
  31 O :   -0.123880
  32 C :   -0.109346
  33 C :   -0.105305
  34 C :   -0.106847
  35 C :   -0.158318
  36 H :    0.151597
  37 C :   -0.155693
  38 H :    0.151992
  39 C :   -0.160579
  40 H :    0.147596
  41 H :    0.148007
  42 H :    0.146801
  43 C :   -0.107694
  44 C :   -0.106769
  45 C :   -0.105447
  46 C :   -0.155369
  47 H :    0.152298
  48 C :   -0.158296
  49 H :    0.151500
  50 C :   -0.160681
  51 H :    0.148043
  52 H :    0.147587
  53 H :    0.146820
  54 C :   -0.110584
  55 C :   -0.116223
  56 C :   -0.109713
  57 C :   -0.158470
  58 H :    0.153562
  59 C :   -0.158510
  60 H :    0.151040
  61 C :   -0.162105
  62 H :    0.147963
  63 H :    0.147640
  64 H :    0.146501

  Mayer bond orders larger than 0.100000
B(  0-C ,  1-C ) :   1.0060 B(  0-C ,  5-C ) :   1.1842 B(  0-C , 18-O ) :   1.9069
B(  1-C ,  2-C ) :   1.3553 B(  1-C , 18-O ) :  -0.1386 B(  1-C , 32-C ) :   0.8210
B(  2-C ,  3-C ) :   1.2784 B(  2-C , 16-O ) :   1.0586 B(  3-C ,  4-C ) :   1.1538
B(  3-C ,  6-C ) :   1.1918 B(  4-C ,  5-C ) :   1.6370 B(  4-C , 13-H ) :   0.9631
B(  5-C , 14-H ) :   1.0095 B(  6-C ,  7-C ) :   1.1326 B(  6-C , 19-C ) :   0.6418
B(  6-C , 20-C ) :  -0.1112 B(  6-C , 21-C ) :  -0.1454 B(  7-C ,  8-C ) :   1.2767
B(  7-C , 12-C ) :   1.1398 B(  7-C , 19-C ) :  -0.1092 B(  8-C ,  9-C ) :   1.4439
B(  8-C , 16-O ) :   1.0757 B(  9-C , 10-C ) :   1.0789 B(  9-C , 17-O ) :  -0.1737
B(  9-C , 43-C ) :   0.8020 B( 10-C , 11-C ) :   1.1012 B( 10-C , 17-O ) :   1.9882
B( 11-C , 12-C ) :   1.5681 B( 11-C , 17-O ) :  -0.1557 B( 11-C , 54-C ) :   0.8226
B( 12-C , 15-H ) :   0.9517 B( 19-C , 20-C ) :   1.3956 B( 19-C , 21-C ) :   1.3459
B( 20-C , 22-C ) :   1.4434 B( 20-C , 23-H ) :   0.9950 B( 21-C , 24-C ) :   1.4159
B( 21-C , 29-C ) :   0.8840 B( 21-C , 30-O ) :  -0.1459 B( 22-C , 25-C ) :   1.3864
B( 22-C , 26-H ) :   0.9848 B( 24-C , 25-C ) :   1.4044 B( 24-C , 27-H ) :   0.9820
B( 25-C , 28-H ) :   0.9849 B( 29-C , 30-O ) :   1.7808 B( 29-C , 31-O ) :   1.8439
B( 32-C , 33-C ) :   1.3853 B( 32-C , 34-C ) :   1.3547 B( 33-C , 35-C ) :   1.4488
B( 33-C , 36-H ) :   0.9815 B( 34-C , 37-C ) :   1.4558 B( 34-C , 38-H ) :   0.9824
B( 35-C , 39-C ) :   1.3949 B( 35-C , 40-H ) :   0.9873 B( 37-C , 39-C ) :   1.3905
B( 37-C , 41-H ) :   0.9878 B( 39-C , 42-H ) :   0.9827 B( 43-C , 44-C ) :   1.3628
B( 43-C , 45-C ) :   1.3863 B( 44-C , 46-C ) :   1.4537 B( 44-C , 47-H ) :   0.9860
B( 45-C , 48-C ) :   1.4550 B( 45-C , 49-H ) :   0.9824 B( 46-C , 50-C ) :   1.3927
B( 46-C , 51-H ) :   0.9892 B( 48-C , 50-C ) :   1.3910 B( 48-C , 52-H ) :   0.9887
B( 50-C , 53-H ) :   0.9829 B( 54-C , 55-C ) :   1.3853 B( 54-C , 56-C ) :   1.3662
B( 55-C , 57-C ) :   1.4689 B( 55-C , 58-H ) :   0.9237 B( 56-C , 59-C ) :   1.4451
B( 56-C , 60-H ) :   0.9780 B( 57-C , 61-C ) :   1.3973 B( 57-C , 62-H ) :   0.9858
B( 59-C , 61-C ) :   1.3914 B( 59-C , 63-H ) :   0.9877 B( 61-C , 64-H ) :   0.9829

MP2 TOTAL ENERGY:    -1836.077233913 Eh

-----------------------------------------------------------------------------
         ABSORPTION SPECTRUM VIA TRANSITION ELECTRIC DIPOLE MOMENTS
-----------------------------------------------------------------------------
State   Energy    Wavelength  fosc         T2        TX        TY        TZ
        (cm-1)      (nm)                 (au**2)    (au)      (au)      (au)
-----------------------------------------------------------------------------
   1   12713.1    786.6   0.568992996  14.73434  -2.55629   2.86213   0.08895
   2   17555.9    569.6   0.071409506   1.33909   1.09043   0.37780   0.08557
   3   18627.0    536.9   0.042939758   0.75892   0.86496  -0.02294   0.10113
   4   24090.8    415.1   0.056596654   0.77342   0.48621   0.73167  -0.04106
   5   23454.6    426.4   0.447282499   6.27811  -2.09516  -1.37039  -0.10212
   6   16504.5    605.9   0.004306206   0.08590   0.11023  -0.26410  -0.06323
   7   15272.4    654.8   0.003013554   0.06496   0.17594   0.18002  -0.03995
   8   28830.6    346.9   0.109975290   1.25579  -0.85310   0.72486   0.05087
   9   24903.0    401.6   0.061199491   0.80904  -0.40964  -0.79662   0.08145
  10   23353.2    428.2   0.067282579   0.94849   0.76571   0.52224   0.29907
  11   30273.0    330.3   0.007627112   0.08294   0.27080   0.04028  -0.08939
  12   29252.1    341.9   0.050094700   0.56378   0.49473  -0.54443  -0.15040
  13   30004.1    333.3   0.050509395   0.55420   0.52941  -0.52251   0.03016
  14   30141.7    331.8   0.005366987   0.05862  -0.06167   0.17155   0.15933
  15   26961.3    370.9   0.057305946   0.69974   0.65394   0.52101   0.02556
  16   30216.6    330.9   0.037351245   0.40695  -0.52283   0.35568  -0.08418
  17   24929.4    401.1   0.064524644   0.85210   0.42023  -0.81216  -0.12608
  18   26015.2    384.4   0.023247396   0.29419   0.51997  -0.15060   0.03375
  19   34399.0    290.7   0.078956449   0.75564   0.85922  -0.09377   0.09269
  20   34454.1    290.2   0.059670665   0.57016   0.07465   0.63166   0.40693
  21   31848.4    314.0   0.043922061   0.45402   0.66428   0.11149   0.01791
  22   25054.9    399.1   0.019348600   0.25423  -0.24353  -0.38733  -0.21191
  23   26799.8    373.1   0.021417721   0.26310  -0.24837  -0.42958  -0.12990
  24   27422.6    364.7   0.013031044   0.15644  -0.09249  -0.16183   0.34885
  25   29533.5    338.6   0.069222190   0.77162  -0.17486  -0.73786   0.44341
  26   30690.3    325.8   0.011995741   0.12868  -0.12346   0.33668   0.00890
  27   30579.1    327.0   0.111164074   1.19678  -1.00022   0.35764  -0.26160
  28   14679.4    681.2   0.007033966   0.15775  -0.21024  -0.32239   0.09803
  29   34736.7    287.9   0.095245600   0.90268  -0.03320  -0.93774  -0.14907
  30   34237.1    292.1   0.007130391   0.06856  -0.05927   0.25210  -0.03870

Dispersion correction           -0.071615854
FINAL SINGLE POINT ENERGY     -1832.601354326950

DIPOLE MOMENT
-------------
                                X             Y             Z
Electronic contribution:     -0.23056      -7.23243       1.44103
Nuclear contribution   :      0.77540       8.43793      -5.95590
                        -----------------------------------------
Total Dipole Moment    :      0.54483       1.20550      -4.51488
                        -----------------------------------------
Magnitude (a.u.)       :      4.70470
Magnitude (Debye)      :     11.95839

Rotational constants in cm-1:     0.003689     0.002324     0.001549
Rotational constants in MHz :   110.604063    69.659728    46.447533

                             ****ORCA TERMINATED NORMALLY****
TOTAL RUN TIME: 0 days 7 hours 17 minutes 3 seconds 354 msec
