                         Program Version 5.0.2 -  RELEASE  -
|  1> %maxcore 38400
|  2> %pal
|  3>  nprocs= 4
|  4> end
|  5> !STEOM-DLPNO-CCSD DEF2-TZVP DEF2-TZVP/C def2/J TightSCF TightPNO CPCM
|  6> %MDCI
|  7>    Dorootwise true
|  8>    OTHRESH 0.005
|  9>    VTHRESH 0.005
| 10>    TCutPNOSingles 1e-11
| 11>    DTol 1e-5
| 12>    NROOTS  25
| 13>    DOSOLV  TRUE
| 14>    MAXITER 500
| 15> END
| 16> %CPCM
| 17>    SMD          TRUE
| 18>    SMDsolvent   "ACETONITRILE"
| 19> END
| 20>
| 21>
| 22> * xyz -2 1
| 23> C                   3.32326300   -3.23324600   -0.17326700
| 24> C                   3.03025600   -1.81111700   -0.18529000
| 25> C                   1.71207400   -1.39966900   -0.19258500
| 26> C                   0.59921200   -2.28228800   -0.23371000
| 27> C                   0.89971800   -3.66975400   -0.20821700
| 28> C                   2.17976100   -4.11921900   -0.17671200
| 29> C                  -0.70130600   -1.75557900   -0.25858900
| 30> C                  -0.88164200   -0.36292700   -0.21676800
| 31> C                   0.25004100    0.48266400   -0.10361600
| 32> C                   0.16866100    1.85479100   -0.01017000
| 33> C                  -1.12784700    2.50509800   -0.05306200
| 34> C                  -2.29838800    1.63524200   -0.20250900
| 35> C                  -2.13867100    0.27803500   -0.27732100
| 36> H                   0.07678900   -4.37408300   -0.20354800
| 37> H                   2.39093100   -5.18213900   -0.15135800
| 38> H                  -3.01617000   -0.34336500   -0.40556500
| 39> O                   1.49806200   -0.05756600   -0.12089400
| 40> O                  -1.23750100    3.74407400    0.06252800
| 41> O                   4.49057400   -3.68334700   -0.16699900
| 42> C                  -1.87150600   -2.65261100   -0.39111200
| 43> C                  -1.99654400   -3.41886200   -1.55243400
| 44> C                  -2.88125900   -2.71142800    0.58278900
| 45> C                  -3.08714600   -4.25038900   -1.75023700
| 46> H                  -1.22620200   -3.34982800   -2.31219600
| 47> C                  -3.98085000   -3.53635100    0.35642800
| 48> C                  -4.08337000   -4.31378900   -0.78602300
| 49> H                  -3.15969900   -4.83964200   -2.65579000
| 50> H                  -4.76278700   -3.56049400    1.10643100
| 51> H                  -4.93971500   -4.96198800   -0.92834900
| 52> C                  -2.79921100   -1.92824100    1.88440600
| 53> O                  -3.85114400   -1.34416000    2.23638700
| 54> O                  -1.70114100   -1.96731600    2.48261100
| 55> C                   4.13832100   -0.83799500   -0.18644800
| 56> C                   5.18057400   -0.94058100    0.73998500
| 57> C                   4.19629000    0.20247200   -1.11986400
| 58> C                   6.22954900   -0.03322800    0.74114800
| 59> H                   5.15882100   -1.74036200    1.46851300
| 60> C                   5.24736200    1.10600400   -1.12442000
| 61> H                   3.40752700    0.29840100   -1.85630200
| 62> C                   6.26981600    0.99443700   -0.19167300
| 63> H                   7.02054100   -0.12983700    1.47527400
| 64> H                   5.26572900    1.90262600   -1.85888800
| 65> H                   7.08987800    1.70199000   -0.19157100
| 66> C                   1.38091600    2.68027900    0.15367700
| 67> C                   2.30508800    2.41968000    1.16991300
| 68> C                   1.63144600    3.76221800   -0.69487800
| 69> C                   3.43561800    3.20621100    1.33041900
| 70> H                   2.12921500    1.59233000    1.84707200
| 71> C                   2.76688800    4.54381400   -0.54247000
| 72> H                   0.92549800    3.98530900   -1.48448800
| 73> C                   3.67419900    4.27145100    0.47277200
| 74> H                   4.13269600    2.98572700    2.13016800
| 75> H                   2.94244900    5.37208200   -1.21854300
| 76> H                   4.55884800    4.88436700    0.59489800
| 77> C                  -3.65485200    2.20480200   -0.24246600
| 78> C                  -4.71904800    1.52197300    0.36315700
| 79> C                  -3.94012600    3.40987700   -0.89685700
| 80> C                  -6.01143000    2.02052400    0.31074400
| 81> H                  -4.51889300    0.59669200    0.89734700
| 82> C                  -5.23453400    3.90299400   -0.95072300
| 83> H                  -3.13572900    3.95294300   -1.37164500
| 84> C                  -6.27777000    3.21476700   -0.34565000
| 85> H                  -6.81441300    1.47646900    0.79398800
| 86> H                  -5.43057600    4.83260000   -1.47192200
| 87> H                  -7.28685400    3.60637500   -0.38279000
| 88> *
| 89>
| 90>
| 91>                          ****END OF INPUT****

CARTESIAN COORDINATES (ANGSTROEM)
---------------------------------
  C      3.323263   -3.233246   -0.173267
  C      3.030256   -1.811117   -0.185290
  C      1.712074   -1.399669   -0.192585
  C      0.599212   -2.282288   -0.233710
  C      0.899718   -3.669754   -0.208217
  C      2.179761   -4.119219   -0.176712
  C     -0.701306   -1.755579   -0.258589
  C     -0.881642   -0.362927   -0.216768
  C      0.250041    0.482664   -0.103616
  C      0.168661    1.854791   -0.010170
  C     -1.127847    2.505098   -0.053062
  C     -2.298388    1.635242   -0.202509
  C     -2.138671    0.278035   -0.277321
  H      0.076789   -4.374083   -0.203548
  H      2.390931   -5.182139   -0.151358
  H     -3.016170   -0.343365   -0.405565
  O      1.498062   -0.057566   -0.120894
  O     -1.237501    3.744074    0.062528
  O      4.490574   -3.683347   -0.166999
  C     -1.871506   -2.652611   -0.391112
  C     -1.996544   -3.418862   -1.552434
  C     -2.881259   -2.711428    0.582789
  C     -3.087146   -4.250389   -1.750237
  H     -1.226202   -3.349828   -2.312196
  C     -3.980850   -3.536351    0.356428
  C     -4.083370   -4.313789   -0.786023
  H     -3.159699   -4.839642   -2.655790
  H     -4.762787   -3.560494    1.106431
  H     -4.939715   -4.961988   -0.928349
  C     -2.799211   -1.928241    1.884406
  O     -3.851144   -1.344160    2.236387
  O     -1.701141   -1.967316    2.482611
  C      4.138321   -0.837995   -0.186448
  C      5.180574   -0.940581    0.739985
  C      4.196290    0.202472   -1.119864
  C      6.229549   -0.033228    0.741148
  H      5.158821   -1.740362    1.468513
  C      5.247362    1.106004   -1.124420
  H      3.407527    0.298401   -1.856302
  C      6.269816    0.994437   -0.191673
  H      7.020541   -0.129837    1.475274
  H      5.265729    1.902626   -1.858888
  H      7.089878    1.701990   -0.191571
  C      1.380916    2.680279    0.153677
  C      2.305088    2.419680    1.169913
  C      1.631446    3.762218   -0.694878
  C      3.435618    3.206211    1.330419
  H      2.129215    1.592330    1.847072
  C      2.766888    4.543814   -0.542470
  H      0.925498    3.985309   -1.484488
  C      3.674199    4.271451    0.472772
  H      4.132696    2.985727    2.130168
  H      2.942449    5.372082   -1.218543
  H      4.558848    4.884367    0.594898
  C     -3.654852    2.204802   -0.242466
  C     -4.719048    1.521973    0.363157
  C     -3.940126    3.409877   -0.896857
  C     -6.011430    2.020524    0.310744
  H     -4.518893    0.596692    0.897347
  C     -5.234534    3.902994   -0.950723
  H     -3.135729    3.952943   -1.371645
  C     -6.277770    3.214767   -0.345650
  H     -6.814413    1.476469    0.793988
  H     -5.430576    4.832600   -1.471922
  H     -7.286854    3.606375   -0.382790

 Total Charge           Charge          ....   -2
 Multiplicity           Mult            ....    1
 Number of Electrons    NEL             ....  292
 Basis Dimension        Dim             .... 1465

ORBITAL ENERGIES
----------------

  NO   OCC          E(Eh)            E(eV)
   0   2.0000     -20.612318      -560.8897
   1   2.0000     -20.479182      -557.2669
   2   2.0000     -20.478665      -557.2528
   3   2.0000     -20.463543      -556.8413
   4   2.0000     -20.463485      -556.8397
   5   2.0000     -11.315364      -307.9067
   6   2.0000     -11.312863      -307.8386
   7   2.0000     -11.308463      -307.7189
   8   2.0000     -11.293461      -307.3107
   9   2.0000     -11.290782      -307.2378
  10   2.0000     -11.286325      -307.1165
  11   2.0000     -11.242303      -305.9186
  12   2.0000     -11.237474      -305.7872
  13   2.0000     -11.234701      -305.7117
  14   2.0000     -11.230178      -305.5887
  15   2.0000     -11.229838      -305.5794
  16   2.0000     -11.229766      -305.5775
  17   2.0000     -11.229681      -305.5751
  18   2.0000     -11.229154      -305.5608
  19   2.0000     -11.226971      -305.5014
  20   2.0000     -11.224873      -305.4443
  21   2.0000     -11.222543      -305.3809
  22   2.0000     -11.221515      -305.3530
  23   2.0000     -11.219471      -305.2973
  24   2.0000     -11.219358      -305.2942
  25   2.0000     -11.219060      -305.2862
  26   2.0000     -11.218995      -305.2844
  27   2.0000     -11.218828      -305.2798
  28   2.0000     -11.218335      -305.2664
  29   2.0000     -11.218252      -305.2641
  30   2.0000     -11.217397      -305.2409
  31   2.0000     -11.217287      -305.2379
  32   2.0000     -11.217156      -305.2343
  33   2.0000     -11.216262      -305.2100
  34   2.0000     -11.216063      -305.2046
  35   2.0000     -11.215864      -305.1992
  36   2.0000     -11.215828      -305.1982
  37   2.0000     -11.214302      -305.1567
  38   2.0000     -11.213841      -305.1441
  39   2.0000     -11.213614      -305.1380
  40   2.0000     -11.207237      -304.9644
  41   2.0000     -11.206185      -304.9358
  42   2.0000     -11.202403      -304.8329
  43   2.0000      -1.454192       -39.5706
  44   2.0000      -1.348133       -36.6846
  45   2.0000      -1.322543       -35.9882
  46   2.0000      -1.319057       -35.8934
  47   2.0000      -1.244814       -33.8731
  48   2.0000      -1.174973       -31.9726
  49   2.0000      -1.158274       -31.5182
  50   2.0000      -1.149246       -31.2726
  51   2.0000      -1.147343       -31.2208
  52   2.0000      -1.136377       -30.9224
  53   2.0000      -1.130899       -30.7733
  54   2.0000      -1.075152       -29.2564
  55   2.0000      -1.060873       -28.8678
  56   2.0000      -1.040313       -28.3083
  57   2.0000      -1.020673       -27.7739
  58   2.0000      -1.016537       -27.6614
  59   2.0000      -1.004169       -27.3248
  60   2.0000      -1.003392       -27.3037
  61   2.0000      -1.002913       -27.2906
  62   2.0000      -1.001733       -27.2585
  63   2.0000      -0.985330       -26.8122
  64   2.0000      -0.963692       -26.2234
  65   2.0000      -0.956793       -26.0357
  66   2.0000      -0.883742       -24.0478
  67   2.0000      -0.868832       -23.6421
  68   2.0000      -0.855430       -23.2774
  69   2.0000      -0.837376       -22.7862
  70   2.0000      -0.831905       -22.6373
  71   2.0000      -0.816281       -22.2121
  72   2.0000      -0.814838       -22.1729
  73   2.0000      -0.811980       -22.0951
  74   2.0000      -0.808572       -22.0024
  75   2.0000      -0.802639       -21.8409
  76   2.0000      -0.779177       -21.2025
  77   2.0000      -0.769431       -20.9373
  78   2.0000      -0.736211       -20.0333
  79   2.0000      -0.726675       -19.7738
  80   2.0000      -0.718114       -19.5409
  81   2.0000      -0.704169       -19.1614
  82   2.0000      -0.693544       -18.8723
  83   2.0000      -0.682065       -18.5599
  84   2.0000      -0.678479       -18.4623
  85   2.0000      -0.666499       -18.1364
  86   2.0000      -0.651992       -17.7416
  87   2.0000      -0.650614       -17.7041
  88   2.0000      -0.641205       -17.4481
  89   2.0000      -0.632451       -17.2099
  90   2.0000      -0.630115       -17.1463
  91   2.0000      -0.623621       -16.9696
  92   2.0000      -0.619881       -16.8678
  93   2.0000      -0.618988       -16.8435
  94   2.0000      -0.614311       -16.7162
  95   2.0000      -0.608775       -16.5656
  96   2.0000      -0.604943       -16.4613
  97   2.0000      -0.601976       -16.3806
  98   2.0000      -0.598082       -16.2746
  99   2.0000      -0.595071       -16.1927
 100   2.0000      -0.585168       -15.9232
 101   2.0000      -0.576731       -15.6936
 102   2.0000      -0.573837       -15.6149
 103   2.0000      -0.572059       -15.5665
 104   2.0000      -0.571317       -15.5463
 105   2.0000      -0.570658       -15.5284
 106   2.0000      -0.567173       -15.4336
 107   2.0000      -0.563537       -15.3346
 108   2.0000      -0.553522       -15.0621
 109   2.0000      -0.538695       -14.6586
 110   2.0000      -0.532942       -14.5021
 111   2.0000      -0.530840       -14.4449
 112   2.0000      -0.526828       -14.3357
 113   2.0000      -0.518572       -14.1111
 114   2.0000      -0.517011       -14.0686
 115   2.0000      -0.505017       -13.7422
 116   2.0000      -0.501273       -13.6403
 117   2.0000      -0.497269       -13.5314
 118   2.0000      -0.494409       -13.4535
 119   2.0000      -0.489865       -13.3299
 120   2.0000      -0.486971       -13.2511
 121   2.0000      -0.485229       -13.2037
 122   2.0000      -0.480444       -13.0735
 123   2.0000      -0.478799       -13.0288
 124   2.0000      -0.476781       -12.9739
 125   2.0000      -0.475070       -12.9273
 126   2.0000      -0.464270       -12.6334
 127   2.0000      -0.460964       -12.5435
 128   2.0000      -0.441809       -12.0222
 129   2.0000      -0.394480       -10.7343
 130   2.0000      -0.387990       -10.5577
 131   2.0000      -0.385276       -10.4839
 132   2.0000      -0.382928       -10.4200
 133   2.0000      -0.375962       -10.2304
 134   2.0000      -0.371360       -10.1052
 135   2.0000      -0.353785        -9.6270
 136   2.0000      -0.348312        -9.4780
 137   2.0000      -0.332542        -9.0489
 138   2.0000      -0.331231        -9.0133
 139   2.0000      -0.328286        -8.9331
 140   2.0000      -0.325778        -8.8649
 141   2.0000      -0.323655        -8.8071
 142   2.0000      -0.319249        -8.6872
 143   2.0000      -0.295522        -8.0416
 144   2.0000      -0.278741        -7.5849
 145   2.0000      -0.233594        -6.3564
 146   0.0000       0.052664         1.4331
 147   0.0000       0.104441         2.8420
 148   0.0000       0.114586         3.1181
 149   0.0000       0.126404         3.4396
 150   0.0000       0.127915         3.4807

E(0)                                       ...  -1827.042106382
E(0)                                       ...  -1827.042106382
E(CORR)(strong-pairs)                      ...     -7.050371635
E(CORR)(weak-pairs)                        ...     -0.019317443
E(CORR)(corrected)                         ...     -7.069689078
E(TOT)                                     ...  -1834.111795459

MULLIKEN ATOMIC CHARGES
-----------------------
   0 C :    0.215855
   1 C :   -0.033290
   2 C :    0.192649
   3 C :    0.088534
   4 C :   -0.256496
   5 C :   -0.331235
   6 C :    0.362486
   7 C :    0.171331
   8 C :    0.166875
   9 C :    0.044448
  10 C :    0.103863
  11 C :    0.122498
  12 C :   -0.390295
  13 H :    0.180462
  14 H :    0.128847
  15 H :    0.186510
  16 O :   -0.200749
  17 O :   -0.465857
  18 O :   -0.480667
  19 C :    0.003282
  20 C :   -0.380642
  21 C :   -0.109337
  22 C :   -0.135381
  23 H :    0.164373
  24 C :   -0.211333
  25 C :   -0.185098
  26 H :    0.169583
  27 H :    0.156904
  28 H :    0.167093
  29 C :    0.200204
  30 O :   -0.515928
  31 O :   -0.515274
  32 C :    0.081190
  33 C :   -0.248925
  34 C :   -0.262175
  35 C :   -0.176514
  36 H :    0.144213
  37 C :   -0.165250
  38 H :    0.150404
  39 C :   -0.174982
  40 H :    0.162643
  41 H :    0.161246
  42 H :    0.164570
  43 C :    0.020084
  44 C :   -0.254070
  45 C :   -0.269983
  46 C :   -0.174786
  47 H :    0.152348
  48 C :   -0.179681
  49 H :    0.146488
  50 C :   -0.169618
  51 H :    0.160179
  52 H :    0.162796
  53 H :    0.164704
  54 C :    0.048660
  55 C :   -0.264401
  56 C :   -0.257449
  57 C :   -0.182697
  58 H :    0.159061
  59 C :   -0.175345
  60 H :    0.145320
  61 C :   -0.174287
  62 H :    0.164033
  63 H :    0.162928
  64 H :    0.165080
Sum of atomic charges:   -2.0000000

LOEWDIN ATOMIC CHARGES
----------------------
   0 C :   -0.351718
   1 C :   -0.103241
   2 C :   -0.144335
   3 C :   -0.116890
   4 C :   -0.107527
   5 C :   -0.156843
   6 C :    0.011471
   7 C :   -0.112605
   8 C :   -0.147494
   9 C :   -0.100649
  10 C :   -0.306690
  11 C :   -0.104199
  12 C :   -0.056570
  13 H :    0.167065
  14 H :    0.148744
  15 H :    0.174286
  16 O :    0.398783
  17 O :   -0.000904
  18 O :   -0.026386
  19 C :   -0.075789
  20 C :   -0.106569
  21 C :   -0.092089
  22 C :   -0.153259
  23 H :    0.163215
  24 C :   -0.120675
  25 C :   -0.149812
  26 H :    0.155968
  27 H :    0.157265
  28 H :    0.155316
  29 C :   -0.665231
  30 O :   -0.085365
  31 O :   -0.074573
  32 C :   -0.114333
  33 C :   -0.112387
  34 C :   -0.112953
  35 C :   -0.161842
  36 H :    0.156296
  37 C :   -0.160383
  38 H :    0.157364
  39 C :   -0.163473
  40 H :    0.153183
  41 H :    0.153659
  42 H :    0.152458
  43 C :   -0.113094
  44 C :   -0.112481
  45 C :   -0.112767
  46 C :   -0.159951
  47 H :    0.157770
  48 C :   -0.161894
  49 H :    0.156256
  50 C :   -0.163447
  51 H :    0.153658
  52 H :    0.153218
  53 H :    0.152449
  54 C :   -0.114718
  55 C :   -0.120169
  56 C :   -0.117588
  57 C :   -0.162032
  58 H :    0.157861
  59 C :   -0.162847
  60 H :    0.154862
  61 C :   -0.164327
  62 H :    0.153576
  63 H :    0.153258
  64 H :    0.152118

  Mayer bond orders larger than 0.100000
B(  0-C ,  1-C ) :   0.9039 B(  0-C ,  5-C ) :   1.0791 B(  0-C , 18-O ) :   1.9078
B(  1-C ,  2-C ) :   1.2714 B(  1-C , 18-O ) :  -0.1569 B(  1-C , 32-C ) :   0.7719
B(  2-C ,  3-C ) :   1.2005 B(  2-C , 16-O ) :   1.0513 B(  3-C ,  4-C ) :   1.0850
B(  3-C ,  6-C ) :   1.1585 B(  4-C ,  5-C ) :   1.4932 B(  4-C , 13-H ) :   0.9135
B(  5-C , 14-H ) :   0.9498 B(  6-C ,  7-C ) :   1.0956 B(  6-C , 19-C ) :   0.6169
B(  6-C , 21-C ) :  -0.1341 B(  7-C ,  8-C ) :   1.1956 B(  7-C , 12-C ) :   1.0797
B(  8-C ,  9-C ) :   1.3670 B(  8-C , 16-O ) :   1.0669 B(  9-C , 10-C ) :   0.9796
B(  9-C , 17-O ) :  -0.2051 B(  9-C , 43-C ) :   0.7420 B( 10-C , 11-C ) :   0.9875
B( 10-C , 17-O ) :   2.0022 B( 11-C , 12-C ) :   1.4379 B( 11-C , 17-O ) :  -0.1795
B( 11-C , 54-C ) :   0.7779 B( 12-C , 15-H ) :   0.9083 B( 19-C , 20-C ) :   1.2933
B( 19-C , 21-C ) :   1.2714 B( 20-C , 22-C ) :   1.3221 B( 20-C , 23-H ) :   0.9464
B( 21-C , 24-C ) :   1.3238 B( 21-C , 29-C ) :   0.7963 B( 21-C , 30-O ) :  -0.1415
B( 22-C , 25-C ) :   1.2696 B( 22-C , 26-H ) :   0.9339 B( 24-C , 25-C ) :   1.2839
B( 24-C , 27-H ) :   0.9328 B( 25-C , 28-H ) :   0.9368 B( 29-C , 30-O ) :   1.7356
B( 29-C , 31-O ) :   1.8114 B( 32-C , 33-C ) :   1.2916 B( 32-C , 34-C ) :   1.2681
B( 33-C , 35-C ) :   1.3373 B( 33-C , 36-H ) :   0.9345 B( 34-C , 37-C ) :   1.3347
B( 34-C , 38-H ) :   0.9368 B( 35-C , 39-C ) :   1.2841 B( 35-C , 40-H ) :   0.9358
B( 37-C , 39-C ) :   1.2782 B( 37-C , 41-H ) :   0.9383 B( 39-C , 42-H ) :   0.9342
B( 43-C , 44-C ) :   1.2738 B( 43-C , 45-C ) :   1.2933 B( 44-C , 46-C ) :   1.3367
B( 44-C , 47-H ) :   0.9383 B( 45-C , 48-C ) :   1.3397 B( 45-C , 49-H ) :   0.9373
B( 46-C , 50-C ) :   1.2805 B( 46-C , 51-H ) :   0.9398 B( 48-C , 50-C ) :   1.2803
B( 48-C , 52-H ) :   0.9369 B( 50-C , 53-H ) :   0.9344 B( 54-C , 55-C ) :   1.2958
B( 54-C , 56-C ) :   1.2739 B( 55-C , 57-C ) :   1.3514 B( 55-C , 58-H ) :   0.8862
B( 56-C , 59-C ) :   1.3323 B( 56-C , 60-H ) :   0.9335 B( 57-C , 61-C ) :   1.2879
B( 57-C , 62-H ) :   0.9323 B( 59-C , 61-C ) :   1.2824 B( 59-C , 63-H ) :   0.9364
B( 61-C , 64-H ) :   0.9327

-----------------------------------------------------------------------------
         ABSORPTION SPECTRUM VIA TRANSITION ELECTRIC DIPOLE MOMENTS
-----------------------------------------------------------------------------
State   Energy  Wavelength   fosc         T2         TX        TY        TZ
        (cm-1)    (nm)                  (au**2)     (au)      (au)      (au)
-----------------------------------------------------------------------------
   1   16802.5    595.2   0.635255476  12.44662   2.34980   2.62920   0.10961
   2   25188.6    397.0   0.058409913   0.76341   0.77217   0.31065   0.14068
   3   28499.3    350.9   0.056621063   0.65406   0.80118   0.02647   0.08798
   4   29837.5    335.1   0.056372050   0.62198   0.34702   0.63079   0.00986
   5   28675.3    348.7   0.295431984   3.39176   1.60400   0.90212   0.03006
   6   34988.9    285.8   0.029417731   0.27679   0.51719   0.07172   0.03980
   7   35675.8    280.3   0.045777038   0.42242   0.08713   0.62496   0.00452
   8   37524.5    266.5   0.136104924   1.19408   0.97291   0.48004   0.02550
   9   37788.9    264.6   0.066913878   0.58295   0.62979   0.42908   0.03859
  10   36569.1    273.5   0.007141990   0.06430   0.16118   0.08416   0.17275
  11   35184.0    284.2   0.004460109   0.04173   0.15120   0.12471   0.05074
  12   37781.2    264.7   0.065233944   0.56843   0.67995   0.29352   0.11012
  13   38913.2    257.0   0.065674111   0.55561   0.25702   0.50815   0.05218
  14   38349.5    260.8   0.013439715   0.11537   0.21417   0.22826   0.02714
  15   39750.6    251.6   0.056856477   0.47088   0.62045   0.26626   0.02789
  16   42969.7    232.7   0.142714611   1.09341   0.77917   0.67609   0.03117

FINAL SINGLE POINT ENERGY     -1834.035237840935

DIPOLE MOMENT
-------------
                                X             Y             Z
Electronic contribution:      0.07576      -6.94657       1.58231
Nuclear contribution   :      0.77540       8.43793      -5.95590
                        -----------------------------------------
Total Dipole Moment    :      0.85116       1.49136      -4.37359
                        -----------------------------------------
Magnitude (a.u.)       :      4.69861
Magnitude (Debye)      :     11.94292

Rotational constants in cm-1:     0.003689     0.002324     0.001549
Rotational constants in MHz :   110.604063    69.659728    46.447533

                             ****ORCA TERMINATED NORMALLY****
TOTAL RUN TIME: 14 days 8 hours 42 minutes 0 seconds 729 msec
