                         Program Version 5.0.2 -  RELEASE  -
|  1> %maxcore 3200
|  2> %pal
|  3>  nprocs= 8
|  4> end
|  5> ! RI-B2PLYP D3BJ def2-TZVP def2/J def2-TZVP/C RIJCOSX CPCM TightSCF
|  6> %TDDFT DCORR 4
|  7>    NROOTS   30
|  8>   TDA      FALSE
|  9> END
| 10>
| 11>  %CPCM
| 12>    SMD          TRUE
| 13>    SMDsolvent   "ACETONITRILE"
| 14>  END
| 15>
| 16>
| 17> * xyz -2 1
| 18> C                   3.32326300   -3.23324600   -0.17326700
| 19> C                   3.03025600   -1.81111700   -0.18529000
| 20> C                   1.71207400   -1.39966900   -0.19258500
| 21> C                   0.59921200   -2.28228800   -0.23371000
| 22> C                   0.89971800   -3.66975400   -0.20821700
| 23> C                   2.17976100   -4.11921900   -0.17671200
| 24> C                  -0.70130600   -1.75557900   -0.25858900
| 25> C                  -0.88164200   -0.36292700   -0.21676800
| 26> C                   0.25004100    0.48266400   -0.10361600
| 27> C                   0.16866100    1.85479100   -0.01017000
| 28> C                  -1.12784700    2.50509800   -0.05306200
| 29> C                  -2.29838800    1.63524200   -0.20250900
| 30> C                  -2.13867100    0.27803500   -0.27732100
| 31> H                   0.07678900   -4.37408300   -0.20354800
| 32> H                   2.39093100   -5.18213900   -0.15135800
| 33> H                  -3.01617000   -0.34336500   -0.40556500
| 34> O                   1.49806200   -0.05756600   -0.12089400
| 35> O                  -1.23750100    3.74407400    0.06252800
| 36> O                   4.49057400   -3.68334700   -0.16699900
| 37> C                  -1.87150600   -2.65261100   -0.39111200
| 38> C                  -1.99654400   -3.41886200   -1.55243400
| 39> C                  -2.88125900   -2.71142800    0.58278900
| 40> C                  -3.08714600   -4.25038900   -1.75023700
| 41> H                  -1.22620200   -3.34982800   -2.31219600
| 42> C                  -3.98085000   -3.53635100    0.35642800
| 43> C                  -4.08337000   -4.31378900   -0.78602300
| 44> H                  -3.15969900   -4.83964200   -2.65579000
| 45> H                  -4.76278700   -3.56049400    1.10643100
| 46> H                  -4.93971500   -4.96198800   -0.92834900
| 47> C                  -2.79921100   -1.92824100    1.88440600
| 48> O                  -3.85114400   -1.34416000    2.23638700
| 49> O                  -1.70114100   -1.96731600    2.48261100
| 50> C                   4.13832100   -0.83799500   -0.18644800
| 51> C                   5.18057400   -0.94058100    0.73998500
| 52> C                   4.19629000    0.20247200   -1.11986400
| 53> C                   6.22954900   -0.03322800    0.74114800
| 54> H                   5.15882100   -1.74036200    1.46851300
| 55> C                   5.24736200    1.10600400   -1.12442000
| 56> H                   3.40752700    0.29840100   -1.85630200
| 57> C                   6.26981600    0.99443700   -0.19167300
| 58> H                   7.02054100   -0.12983700    1.47527400
| 59> H                   5.26572900    1.90262600   -1.85888800
| 60> H                   7.08987800    1.70199000   -0.19157100
| 61> C                   1.38091600    2.68027900    0.15367700
| 62> C                   2.30508800    2.41968000    1.16991300
| 63> C                   1.63144600    3.76221800   -0.69487800
| 64> C                   3.43561800    3.20621100    1.33041900
| 65> H                   2.12921500    1.59233000    1.84707200
| 66> C                   2.76688800    4.54381400   -0.54247000
| 67> H                   0.92549800    3.98530900   -1.48448800
| 68> C                   3.67419900    4.27145100    0.47277200
| 69> H                   4.13269600    2.98572700    2.13016800
| 70> H                   2.94244900    5.37208200   -1.21854300
| 71> H                   4.55884800    4.88436700    0.59489800
| 72> C                  -3.65485200    2.20480200   -0.24246600
| 73> C                  -4.71904800    1.52197300    0.36315700
| 74> C                  -3.94012600    3.40987700   -0.89685700
| 75> C                  -6.01143000    2.02052400    0.31074400
| 76> H                  -4.51889300    0.59669200    0.89734700
| 77> C                  -5.23453400    3.90299400   -0.95072300
| 78> H                  -3.13572900    3.95294300   -1.37164500
| 79> C                  -6.27777000    3.21476700   -0.34565000
| 80> H                  -6.81441300    1.47646900    0.79398800
| 81> H                  -5.43057600    4.83260000   -1.47192200
| 82> H                  -7.28685400    3.60637500   -0.38279000
| 83> *
| 84>
| 85>
| 86>                          ****END OF INPUT****

CARTESIAN COORDINATES (ANGSTROEM)
---------------------------------
  C      3.323263   -3.233246   -0.173267
  C      3.030256   -1.811117   -0.185290
  C      1.712074   -1.399669   -0.192585
  C      0.599212   -2.282288   -0.233710
  C      0.899718   -3.669754   -0.208217
  C      2.179761   -4.119219   -0.176712
  C     -0.701306   -1.755579   -0.258589
  C     -0.881642   -0.362927   -0.216768
  C      0.250041    0.482664   -0.103616
  C      0.168661    1.854791   -0.010170
  C     -1.127847    2.505098   -0.053062
  C     -2.298388    1.635242   -0.202509
  C     -2.138671    0.278035   -0.277321
  H      0.076789   -4.374083   -0.203548
  H      2.390931   -5.182139   -0.151358
  H     -3.016170   -0.343365   -0.405565
  O      1.498062   -0.057566   -0.120894
  O     -1.237501    3.744074    0.062528
  O      4.490574   -3.683347   -0.166999
  C     -1.871506   -2.652611   -0.391112
  C     -1.996544   -3.418862   -1.552434
  C     -2.881259   -2.711428    0.582789
  C     -3.087146   -4.250389   -1.750237
  H     -1.226202   -3.349828   -2.312196
  C     -3.980850   -3.536351    0.356428
  C     -4.083370   -4.313789   -0.786023
  H     -3.159699   -4.839642   -2.655790
  H     -4.762787   -3.560494    1.106431
  H     -4.939715   -4.961988   -0.928349
  C     -2.799211   -1.928241    1.884406
  O     -3.851144   -1.344160    2.236387
  O     -1.701141   -1.967316    2.482611
  C      4.138321   -0.837995   -0.186448
  C      5.180574   -0.940581    0.739985
  C      4.196290    0.202472   -1.119864
  C      6.229549   -0.033228    0.741148
  H      5.158821   -1.740362    1.468513
  C      5.247362    1.106004   -1.124420
  H      3.407527    0.298401   -1.856302
  C      6.269816    0.994437   -0.191673
  H      7.020541   -0.129837    1.475274
  H      5.265729    1.902626   -1.858888
  H      7.089878    1.701990   -0.191571
  C      1.380916    2.680279    0.153677
  C      2.305088    2.419680    1.169913
  C      1.631446    3.762218   -0.694878
  C      3.435618    3.206211    1.330419
  H      2.129215    1.592330    1.847072
  C      2.766888    4.543814   -0.542470
  H      0.925498    3.985309   -1.484488
  C      3.674199    4.271451    0.472772
  H      4.132696    2.985727    2.130168
  H      2.942449    5.372082   -1.218543
  H      4.558848    4.884367    0.594898
  C     -3.654852    2.204802   -0.242466
  C     -4.719048    1.521973    0.363157
  C     -3.940126    3.409877   -0.896857
  C     -6.011430    2.020524    0.310744
  H     -4.518893    0.596692    0.897347
  C     -5.234534    3.902994   -0.950723
  H     -3.135729    3.952943   -1.371645
  C     -6.277770    3.214767   -0.345650
  H     -6.814413    1.476469    0.793988
  H     -5.430576    4.832600   -1.471922
  H     -7.286854    3.606375   -0.382790

 Total Charge           Charge          ....   -2
 Multiplicity           Mult            ....    1
 Number of Electrons    NEL             ....  292
 Basis Dimension        Dim             .... 1465

ORBITAL ENERGIES
----------------

  NO   OCC          E(Eh)            E(eV)
   0   2.0000     -19.778280      -538.1944
   1   2.0000     -19.651632      -534.7481
   2   2.0000     -19.651575      -534.7465
   3   2.0000     -19.635083      -534.2978
   4   2.0000     -19.634784      -534.2896
   5   2.0000     -10.688740      -290.8554
   6   2.0000     -10.686696      -290.7998
   7   2.0000     -10.682150      -290.6761
   8   2.0000     -10.668820      -290.3134
   9   2.0000     -10.666154      -290.2408
  10   2.0000     -10.656782      -289.9858
  11   2.0000     -10.624484      -289.1069
  12   2.0000     -10.615725      -288.8686
  13   2.0000     -10.615649      -288.8665
  14   2.0000     -10.615222      -288.8549
  15   2.0000     -10.615106      -288.8517
  16   2.0000     -10.612745      -288.7875
  17   2.0000     -10.612520      -288.7813
  18   2.0000     -10.612515      -288.7812
  19   2.0000     -10.611899      -288.7644
  20   2.0000     -10.610894      -288.7371
  21   2.0000     -10.609825      -288.7080
  22   2.0000     -10.608542      -288.6731
  23   2.0000     -10.605997      -288.6038
  24   2.0000     -10.604612      -288.5662
  25   2.0000     -10.604566      -288.5649
  26   2.0000     -10.604527      -288.5639
  27   2.0000     -10.604163      -288.5539
  28   2.0000     -10.604056      -288.5510
  29   2.0000     -10.603987      -288.5492
  30   2.0000     -10.603338      -288.5315
  31   2.0000     -10.603337      -288.5315
  32   2.0000     -10.603248      -288.5291
  33   2.0000     -10.602972      -288.5215
  34   2.0000     -10.602571      -288.5106
  35   2.0000     -10.602405      -288.5061
  36   2.0000     -10.602116      -288.4982
  37   2.0000     -10.602040      -288.4962
  38   2.0000     -10.600507      -288.4545
  39   2.0000     -10.599966      -288.4398
  40   2.0000     -10.597527      -288.3734
  41   2.0000     -10.596556      -288.3469
  42   2.0000     -10.591493      -288.2092
  43   2.0000      -1.247176       -33.9374
  44   2.0000      -1.145217       -31.1629
  45   2.0000      -1.125063       -30.6145
  46   2.0000      -1.121650       -30.5217
  47   2.0000      -1.050553       -28.5870
  48   2.0000      -0.997236       -27.1362
  49   2.0000      -0.984748       -26.7964
  50   2.0000      -0.976428       -26.5700
  51   2.0000      -0.975225       -26.5372
  52   2.0000      -0.964212       -26.2375
  53   2.0000      -0.960759       -26.1436
  54   2.0000      -0.910774       -24.7834
  55   2.0000      -0.899249       -24.4698
  56   2.0000      -0.880506       -23.9598
  57   2.0000      -0.862794       -23.4778
  58   2.0000      -0.857427       -23.3318
  59   2.0000      -0.848909       -23.1000
  60   2.0000      -0.848265       -23.0825
  61   2.0000      -0.847534       -23.0626
  62   2.0000      -0.846425       -23.0324
  63   2.0000      -0.832908       -22.6646
  64   2.0000      -0.812284       -22.1034
  65   2.0000      -0.806283       -21.9401
  66   2.0000      -0.743794       -20.2397
  67   2.0000      -0.736681       -20.0461
  68   2.0000      -0.721524       -19.6337
  69   2.0000      -0.705591       -19.2001
  70   2.0000      -0.700830       -19.0706
  71   2.0000      -0.688952       -18.7473
  72   2.0000      -0.687353       -18.7038
  73   2.0000      -0.684794       -18.6342
  74   2.0000      -0.681927       -18.5562
  75   2.0000      -0.675080       -18.3699
  76   2.0000      -0.655337       -17.8326
  77   2.0000      -0.647011       -17.6061
  78   2.0000      -0.617981       -16.8161
  79   2.0000      -0.610335       -16.6081
  80   2.0000      -0.605785       -16.4842
  81   2.0000      -0.591507       -16.0957
  82   2.0000      -0.586166       -15.9504
  83   2.0000      -0.575778       -15.6677
  84   2.0000      -0.569965       -15.5095
  85   2.0000      -0.554996       -15.1022
  86   2.0000      -0.545569       -14.8457
  87   2.0000      -0.542772       -14.7696
  88   2.0000      -0.536549       -14.6002
  89   2.0000      -0.527329       -14.3493
  90   2.0000      -0.525445       -14.2981
  91   2.0000      -0.517597       -14.0845
  92   2.0000      -0.515799       -14.0356
  93   2.0000      -0.514847       -14.0097
  94   2.0000      -0.511174       -13.9098
  95   2.0000      -0.508606       -13.8399
  96   2.0000      -0.503858       -13.7107
  97   2.0000      -0.501275       -13.6404
  98   2.0000      -0.493860       -13.4386
  99   2.0000      -0.491591       -13.3769
 100   2.0000      -0.486332       -13.2338
 101   2.0000      -0.478514       -13.0210
 102   2.0000      -0.476736       -12.9726
 103   2.0000      -0.476584       -12.9685
 104   2.0000      -0.475527       -12.9397
 105   2.0000      -0.474265       -12.9054
 106   2.0000      -0.464933       -12.6515
 107   2.0000      -0.461225       -12.5506
 108   2.0000      -0.458823       -12.4852
 109   2.0000      -0.446659       -12.1542
 110   2.0000      -0.443301       -12.0628
 111   2.0000      -0.440111       -11.9760
 112   2.0000      -0.435985       -11.8638
 113   2.0000      -0.429335       -11.6828
 114   2.0000      -0.424692       -11.5565
 115   2.0000      -0.421771       -11.4770
 116   2.0000      -0.417693       -11.3660
 117   2.0000      -0.416248       -11.3267
 118   2.0000      -0.412728       -11.2309
 119   2.0000      -0.408741       -11.1224
 120   2.0000      -0.401293       -10.9197
 121   2.0000      -0.399518       -10.8714
 122   2.0000      -0.394402       -10.7322
 123   2.0000      -0.393473       -10.7069
 124   2.0000      -0.392257       -10.6739
 125   2.0000      -0.390277       -10.6200
 126   2.0000      -0.385884       -10.5004
 127   2.0000      -0.373953       -10.1758
 128   2.0000      -0.367102        -9.9893
 129   2.0000      -0.320274        -8.7151
 130   2.0000      -0.306216        -8.3326
 131   2.0000      -0.302284        -8.2256
 132   2.0000      -0.297054        -8.0832
 133   2.0000      -0.295453        -8.0397
 134   2.0000      -0.292945        -7.9714
 135   2.0000      -0.288015        -7.8373
 136   2.0000      -0.286797        -7.8041
 137   2.0000      -0.283804        -7.7227
 138   2.0000      -0.281648        -7.6640
 139   2.0000      -0.279496        -7.6055
 140   2.0000      -0.276031        -7.5112
 141   2.0000      -0.271773        -7.3953
 142   2.0000      -0.266254        -7.2451
 143   2.0000      -0.251909        -6.8548
 144   2.0000      -0.232698        -6.3320
 145   2.0000      -0.196235        -5.3398
 146   0.0000      -0.022295        -0.6067
 147   0.0000       0.025909         0.7050
 148   0.0000       0.035359         0.9622
 149   0.0000       0.046089         1.2541
 150   0.0000       0.047662         1.2969

MULLIKEN ATOMIC CHARGES
-----------------------
   0 C :    0.299193
   1 C :   -0.115973
   2 C :    0.279784
   3 C :    0.059290
   4 C :   -0.227072
   5 C :   -0.347356
   6 C :    0.432422
   7 C :    0.101923
   8 C :    0.259138
   9 C :   -0.056708
  10 C :    0.223986
  11 C :    0.045133
  12 C :   -0.318625
  13 H :    0.170657
  14 H :    0.119326
  15 H :    0.184699
  16 O :   -0.279178
  17 O :   -0.543683
  18 O :   -0.555853
  19 C :   -0.002465
  20 C :   -0.348552
  21 C :   -0.111059
  22 C :   -0.135253
  23 H :    0.154757
  24 C :   -0.192170
  25 C :   -0.174348
  26 H :    0.155369
  27 H :    0.146108
  28 H :    0.154118
  29 C :    0.318851
  30 O :   -0.583372
  31 O :   -0.581941
  32 C :    0.100451
  33 C :   -0.231889
  34 C :   -0.229622
  35 C :   -0.170744
  36 H :    0.134642
  37 C :   -0.159540
  38 H :    0.140774
  39 C :   -0.164665
  40 H :    0.148708
  41 H :    0.148001
  42 H :    0.151082
  43 C :    0.039186
  44 C :   -0.241531
  45 C :   -0.238225
  46 C :   -0.163829
  47 H :    0.142570
  48 C :   -0.176835
  49 H :    0.137159
  50 C :   -0.160387
  51 H :    0.147832
  52 H :    0.148654
  53 H :    0.151400
  54 C :    0.059445
  55 C :   -0.273011
  56 C :   -0.228861
  57 C :   -0.180295
  58 H :    0.180241
  59 C :   -0.165251
  60 H :    0.137583
  61 C :   -0.164160
  62 H :    0.148934
  63 H :    0.148959
  64 H :    0.152079
Sum of atomic charges:   -2.0000000

LOEWDIN ATOMIC CHARGES
----------------------
   0 C :   -0.328997
   1 C :   -0.098403
   2 C :   -0.127018
   3 C :   -0.116045
   4 C :   -0.097577
   5 C :   -0.154189
   6 C :    0.028600
   7 C :   -0.111920
   8 C :   -0.130120
   9 C :   -0.096101
  10 C :   -0.282570
  11 C :   -0.101264
  12 C :   -0.046370
  13 H :    0.161676
  14 H :    0.143971
  15 H :    0.169376
  16 O :    0.371393
  17 O :   -0.048457
  18 O :   -0.073807
  19 C :   -0.068998
  20 C :   -0.100279
  21 C :   -0.078972
  22 C :   -0.150210
  23 H :    0.158380
  24 C :   -0.114644
  25 C :   -0.145400
  26 H :    0.150251
  27 H :    0.152527
  28 H :    0.149883
  29 C :   -0.613814
  30 O :   -0.120844
  31 O :   -0.109930
  32 C :   -0.109379
  33 C :   -0.106087
  34 C :   -0.107231
  35 C :   -0.158609
  36 H :    0.151754
  37 C :   -0.156051
  38 H :    0.152305
  39 C :   -0.160833
  40 H :    0.147839
  41 H :    0.148281
  42 H :    0.147036
  43 C :   -0.107802
  44 C :   -0.107112
  45 C :   -0.106221
  46 C :   -0.155723
  47 H :    0.152618
  48 C :   -0.158580
  49 H :    0.151697
  50 C :   -0.160903
  51 H :    0.148318
  52 H :    0.147830
  53 H :    0.147062
  54 C :   -0.110645
  55 C :   -0.116527
  56 C :   -0.110372
  57 C :   -0.158921
  58 H :    0.153579
  59 C :   -0.158985
  60 H :    0.150956
  61 C :   -0.162145
  62 H :    0.148155
  63 H :    0.147846
  64 H :    0.146722

  Mayer bond orders larger than 0.100000
B(  0-C ,  1-C ) :   1.0003 B(  0-C ,  5-C ) :   1.1841 B(  0-C , 18-O ) :   1.9345
B(  1-C ,  2-C ) :   1.3477 B(  1-C , 18-O ) :  -0.1425 B(  1-C , 32-C ) :   0.8463
B(  2-C ,  3-C ) :   1.2665 B(  2-C , 16-O ) :   1.0582 B(  3-C ,  4-C ) :   1.1553
B(  3-C ,  6-C ) :   1.1872 B(  4-C ,  5-C ) :   1.6224 B(  4-C , 13-H ) :   0.9609
B(  5-C , 14-H ) :   1.0084 B(  6-C ,  7-C ) :   1.1359 B(  6-C , 19-C ) :   0.6764
B(  6-C , 21-C ) :  -0.1271 B(  7-C ,  8-C ) :   1.2624 B(  7-C , 12-C ) :   1.1537
B(  8-C ,  9-C ) :   1.4404 B(  8-C , 16-O ) :   1.0769 B(  9-C , 10-C ) :   1.0818
B(  9-C , 17-O ) :  -0.1824 B(  9-C , 43-C ) :   0.8262 B( 10-C , 11-C ) :   1.0918
B( 10-C , 17-O ) :   2.0196 B( 11-C , 12-C ) :   1.5579 B( 11-C , 17-O ) :  -0.1619
B( 11-C , 54-C ) :   0.8496 B( 12-C , 15-H ) :   0.9462 B( 19-C , 20-C ) :   1.3799
B( 19-C , 21-C ) :   1.3414 B( 20-C , 22-C ) :   1.4339 B( 20-C , 23-H ) :   0.9967
B( 21-C , 24-C ) :   1.4011 B( 21-C , 29-C ) :   0.8610 B( 21-C , 30-O ) :  -0.1517
B( 22-C , 25-C ) :   1.3810 B( 22-C , 26-H ) :   0.9843 B( 24-C , 25-C ) :   1.4038
B( 24-C , 27-H ) :   0.9827 B( 25-C , 28-H ) :   0.9843 B( 29-C , 30-O ) :   1.8031
B( 29-C , 31-O ) :   1.8713 B( 32-C , 33-C ) :   1.3736 B( 32-C , 34-C ) :   1.3441
B( 33-C , 35-C ) :   1.4404 B( 33-C , 36-H ) :   0.9802 B( 34-C , 37-C ) :   1.4460
B( 34-C , 38-H ) :   0.9817 B( 35-C , 39-C ) :   1.3886 B( 35-C , 40-H ) :   0.9862
B( 37-C , 39-C ) :   1.3836 B( 37-C , 41-H ) :   0.9867 B( 39-C , 42-H ) :   0.9813
B( 43-C , 44-C ) :   1.3510 B( 43-C , 45-C ) :   1.3739 B( 44-C , 46-C ) :   1.4435
B( 44-C , 47-H ) :   0.9851 B( 45-C , 48-C ) :   1.4461 B( 45-C , 49-H ) :   0.9812
B( 46-C , 50-C ) :   1.3856 B( 46-C , 51-H ) :   0.9883 B( 48-C , 50-C ) :   1.3852
B( 48-C , 52-H ) :   0.9874 B( 50-C , 53-H ) :   0.9816 B( 54-C , 55-C ) :   1.3794
B( 54-C , 56-C ) :   1.3590 B( 55-C , 57-C ) :   1.4627 B( 55-C , 58-H ) :   0.9143
B( 56-C , 59-C ) :   1.4384 B( 56-C , 60-H ) :   0.9765 B( 57-C , 61-C ) :   1.3916
B( 57-C , 62-H ) :   0.9854 B( 59-C , 61-C ) :   1.3864 B( 59-C , 63-H ) :   0.9860
B( 61-C , 64-H ) :   0.9818

MP2 TOTAL ENERGY:    -1836.919145337 Eh

-----------------------------------------------------------------------------
         ABSORPTION SPECTRUM VIA TRANSITION ELECTRIC DIPOLE MOMENTS
-----------------------------------------------------------------------------
State   Energy    Wavelength  fosc         T2        TX        TY        TZ
        (cm-1)      (nm)                 (au**2)    (au)      (au)      (au)
-----------------------------------------------------------------------------
   1   19547.5    511.6   0.843262839  14.20190   2.51787  -2.80267  -0.08510
   2   24489.4    408.3   0.046488505   0.62495  -0.72880  -0.30103  -0.05633
   3   27753.4    360.3   0.138909887   1.64776   1.25537   0.23951   0.12014
   4   30197.4    331.2   0.077390626   0.84371  -0.40456  -0.82345   0.04447
   5   29703.7    336.7   0.343594570   3.80812  -1.63140  -1.06920  -0.05885
   6   27537.2    363.1   0.027869077   0.33318  -0.44155  -0.36821  -0.05128
   7   27434.0    364.5   0.008766553   0.10520  -0.29715  -0.12538   0.03437
   8   28772.4    347.6   0.008952315   0.10243   0.27328  -0.10490  -0.12942
   9   33936.0    294.7   0.136645036   1.32559   0.93289  -0.67356   0.04038
  10   32870.1    304.2   0.191657968   1.91956  -0.95304  -0.99651  -0.13507
  11   33555.1    298.0   0.021841540   0.21429   0.15956  -0.43143  -0.05192
  12   35609.3    280.8   0.022003851   0.20343  -0.40907   0.13319   0.13547
  13   33484.3    298.6   0.038619628   0.37970   0.55417  -0.21251  -0.16565
  14   35210.5    284.0   0.002107752   0.01971  -0.14034  -0.00356   0.00056
  15   34622.3    288.8   0.058283054   0.55419  -0.63981   0.35238  -0.14375
  16   36168.7    276.5   0.003034809   0.02762  -0.00469   0.04715  -0.15930
  17   34728.8    287.9   0.127844302   1.21190   0.51053  -0.97268  -0.07179
  18   35723.0    279.9   0.019742605   0.18194  -0.23916  -0.35316  -0.00473
  19   32654.2    306.2   0.016075875   0.16207  -0.27632  -0.27313  -0.10545
  20   34844.7    287.0   0.049160729   0.46447  -0.64947  -0.20621  -0.01151
  21   37496.9    266.7   0.043088045   0.37830  -0.48616  -0.30409   0.22243
  22   39701.4    251.9   0.212062601   1.75847  -1.08579   0.75687   0.08166
  23   37893.1    263.9   0.173807857   1.51003  -0.98885  -0.53292  -0.49820
  24   37354.7    267.7   0.032679166   0.28801   0.48075   0.19356  -0.13936
  25   38526.1    259.6   0.025156103   0.21496  -0.33377  -0.30342   0.10723
  26   38587.8    259.1   0.034909276   0.29783  -0.37979  -0.37040   0.12803
  27   39067.2    256.0   0.040888162   0.34456   0.55086   0.14354   0.14318
  28   38545.1    259.4   0.001318213   0.01126  -0.07403  -0.04343  -0.06239
  29   37791.6    264.6   0.012274796   0.10693  -0.05164  -0.30107   0.11669
  30   40370.9    247.7   0.055591278   0.45333  -0.01422   0.67218  -0.03601

Dispersion correction           -0.088223003
FINAL SINGLE POINT ENERGY     -1834.589278874679

DIPOLE MOMENT
-------------
                                X             Y             Z
Electronic contribution:     -0.12012      -7.11673       1.50468
Nuclear contribution   :      0.77540       8.43793      -5.95590
                        -----------------------------------------
Total Dipole Moment    :      0.65528       1.32121      -4.45122
                        -----------------------------------------
Magnitude (a.u.)       :      4.68917
Magnitude (Debye)      :     11.91892

Rotational constants in cm-1:     0.003689     0.002324     0.001549
Rotational constants in MHz :   110.604063    69.659728    46.447533

                             ****ORCA TERMINATED NORMALLY****
TOTAL RUN TIME: 0 days 10 hours 10 minutes 22 seconds 612 msec
