                         Program Version 5.0.2 -  RELEASE  -
|  1> %maxcore 20000
|  2> %pal
|  3>  nprocs= 4
|  4> end
|  5> ! RI-SCS-PBE-QIDH   def2-TZVP def2/J def2-TZVP/C RIJCOSX CPCM TightSCF
|  6> %TDDFT
|  7>    NROOTS   30
|  8>    dcorr 4
|  9>    doscs true
| 10>    TDA      FALSE
| 11> END
| 12>
| 13>  %CPCM
| 14>    SMD          TRUE
| 15>    SMDsolvent   "ACETONITRILE"
| 16>  END
| 17>
| 18>
| 19> * xyz -1 1
| 20> C                   3.39156800   -3.24338000   -0.26933600
| 21> C                   3.11363300   -1.81773900   -0.27086200
| 22> C                   1.80176500   -1.39259100   -0.31928100
| 23> C                   0.68223000   -2.26384100   -0.40846600
| 24> C                   0.96685700   -3.65517300   -0.39231000
| 25> C                   2.24011000   -4.11815100   -0.32472800
| 26> C                  -0.60905000   -1.72267100   -0.46713900
| 27> C                  -0.78035100   -0.32947900   -0.41542600
| 28> C                   0.35488100    0.50301700   -0.25126700
| 29> C                   0.28281900    1.87358600   -0.13039700
| 30> C                  -1.00614100    2.53627400   -0.20079400
| 31> C                  -2.17900500    1.68062600   -0.40697400
| 32> C                  -2.03020700    0.32332300   -0.50143400
| 33> H                   0.13714700   -4.35076300   -0.42597600
| 34> H                   2.44041200   -5.18330200   -0.30888400
| 35> H                  -2.90910400   -0.28633700   -0.67370600
| 36> O                   1.59734000   -0.04937500   -0.23707400
| 37> O                  -1.11103100    3.77244700   -0.05900700
| 38> O                   4.55277900   -3.70509900   -0.22877700
| 39> C                  -1.78490400   -2.60781100   -0.63045900
| 40> C                  -1.90606600   -3.34742800   -1.80797100
| 41> C                  -2.81215000   -2.67700400    0.32332900
| 42> C                  -3.01017700   -4.15115900   -2.04036100
| 43> H                  -1.12284800   -3.27653000   -2.55354500
| 44> C                  -3.92583400   -3.47236200    0.06662400
| 45> C                  -4.02513400   -4.21689100   -1.09691300
| 46> H                  -3.07907800   -4.71833100   -2.96002600
| 47> H                  -4.71523300   -3.50319500    0.80748400
| 48> H                  -4.89231000   -4.84197700   -1.26966400
| 49> C                  -2.73945700   -1.93037600    1.62878900
| 50> O                  -3.80480700   -1.41156200    2.05968800
| 51> O                  -1.63042000   -1.88269400    2.22215700
| 52> C                   4.23056100   -0.85650000   -0.21361300
| 53> C                   5.22855700   -0.98061600    0.75753000
| 54> C                   4.33988500    0.19339000   -1.13133100
| 55> C                   6.28466600   -0.08368800    0.81718100
| 56> H                   5.16650400   -1.78901200    1.47430200
| 57> C                   5.39830600    1.08680200   -1.07727300
| 58> H                   3.58602700    0.30531100   -1.90136900
| 59> C                   6.37589600    0.95461500   -0.10004300
| 60> H                   7.04100200   -0.19677000    1.58469000
| 61> H                   5.45852900    1.89068700   -1.80140100
| 62> H                   7.20171800    1.65395700   -0.05458900
| 63> C                   1.49661800    2.68223500    0.09543800
| 64> C                   2.38323200    2.38196100    1.13406300
| 65> C                   1.78718000    3.78431400   -0.71336400
| 66> C                   3.51701300    3.14886200    1.35435800
| 67> H                   2.17500200    1.53826500    1.78126900
| 68> C                   2.92607500    4.54680100   -0.50097200
| 69> H                   1.11092700    4.03777900   -1.51956200
| 70> C                   3.79622100    4.23443100    0.53511800
| 71> H                   4.18565600    2.89629400    2.16873500
| 72> H                   3.13405400    5.39108000   -1.14732400
| 73> H                   4.68394300    4.83189600    0.70270800
| 74> C                  -3.52583300    2.26853000   -0.48652500
| 75> C                  -4.61912600    1.60031000    0.08064100
| 76> C                  -3.77293900    3.47914800   -1.14575400
| 77> C                  -5.90259900    2.11545500   -0.01103100
| 78> H                  -4.45184200    0.67035300    0.61521600
| 79> C                  -5.05801400    3.98997400   -1.24036700
| 80> H                  -2.94659700    4.01159700   -1.59407600
| 81> C                  -6.13010600    3.31490500   -0.67184600
| 82> H                  -6.72808700    1.58060700    0.44330700
| 83> H                  -5.22402800    4.92313500   -1.76547700
| 84> H                  -7.13181500    3.72048900   -0.74150900
| 85> Na                 -2.60334200   -0.55319700    3.78931800
| 86> *
| 87>
| 88>
| 89>
| 90>                          ****END OF INPUT****

CARTESIAN COORDINATES (ANGSTROEM)
---------------------------------
  C      3.391568   -3.243380   -0.269336
  C      3.113633   -1.817739   -0.270862
  C      1.801765   -1.392591   -0.319281
  C      0.682230   -2.263841   -0.408466
  C      0.966857   -3.655173   -0.392310
  C      2.240110   -4.118151   -0.324728
  C     -0.609050   -1.722671   -0.467139
  C     -0.780351   -0.329479   -0.415426
  C      0.354881    0.503017   -0.251267
  C      0.282819    1.873586   -0.130397
  C     -1.006141    2.536274   -0.200794
  C     -2.179005    1.680626   -0.406974
  C     -2.030207    0.323323   -0.501434
  H      0.137147   -4.350763   -0.425976
  H      2.440412   -5.183302   -0.308884
  H     -2.909104   -0.286337   -0.673706
  O      1.597340   -0.049375   -0.237074
  O     -1.111031    3.772447   -0.059007
  O      4.552779   -3.705099   -0.228777
  C     -1.784904   -2.607811   -0.630459
  C     -1.906066   -3.347428   -1.807971
  C     -2.812150   -2.677004    0.323329
  C     -3.010177   -4.151159   -2.040361
  H     -1.122848   -3.276530   -2.553545
  C     -3.925834   -3.472362    0.066624
  C     -4.025134   -4.216891   -1.096913
  H     -3.079078   -4.718331   -2.960026
  H     -4.715233   -3.503195    0.807484
  H     -4.892310   -4.841977   -1.269664
  C     -2.739457   -1.930376    1.628789
  O     -3.804807   -1.411562    2.059688
  O     -1.630420   -1.882694    2.222157
  C      4.230561   -0.856500   -0.213613
  C      5.228557   -0.980616    0.757530
  C      4.339885    0.193390   -1.131331
  C      6.284666   -0.083688    0.817181
  H      5.166504   -1.789012    1.474302
  C      5.398306    1.086802   -1.077273
  H      3.586027    0.305311   -1.901369
  C      6.375896    0.954615   -0.100043
  H      7.041002   -0.196770    1.584690
  H      5.458529    1.890687   -1.801401
  H      7.201718    1.653957   -0.054589
  C      1.496618    2.682235    0.095438
  C      2.383232    2.381961    1.134063
  C      1.787180    3.784314   -0.713364
  C      3.517013    3.148862    1.354358
  H      2.175002    1.538265    1.781269
  C      2.926075    4.546801   -0.500972
  H      1.110927    4.037779   -1.519562
  C      3.796221    4.234431    0.535118
  H      4.185656    2.896294    2.168735
  H      3.134054    5.391080   -1.147324
  H      4.683943    4.831896    0.702708
  C     -3.525833    2.268530   -0.486525
  C     -4.619126    1.600310    0.080641
  C     -3.772939    3.479148   -1.145754
  C     -5.902599    2.115455   -0.011031
  H     -4.451842    0.670353    0.615216
  C     -5.058014    3.989974   -1.240367
  H     -2.946597    4.011597   -1.594076
  C     -6.130106    3.314905   -0.671846
  H     -6.728087    1.580607    0.443307
  H     -5.224028    4.923135   -1.765477
  H     -7.131815    3.720489   -0.741509
  Na    -2.603342   -0.553197    3.789318

 Total Charge           Charge          ....   -1
 Multiplicity           Mult            ....    1
 Number of Electrons    NEL             ....  302
 Basis Dimension        Dim             .... 1497

ORBITAL ENERGIES
----------------

  NO   OCC          E(Eh)            E(eV)
   0   2.0000     -39.674799     -1079.6062
   1   2.0000     -20.066049      -546.0250
   2   2.0000     -19.949865      -542.8634
   3   2.0000     -19.949430      -542.8516
   4   2.0000     -19.935056      -542.4605
   5   2.0000     -19.934672      -542.4500
   6   2.0000     -10.922525      -297.2170
   7   2.0000     -10.902558      -296.6737
   8   2.0000     -10.900867      -296.6277
   9   2.0000     -10.881594      -296.1032
  10   2.0000     -10.878197      -296.0108
  11   2.0000     -10.873898      -295.8938
  12   2.0000     -10.843337      -295.0622
  13   2.0000     -10.832664      -294.7718
  14   2.0000     -10.827293      -294.6256
  15   2.0000     -10.826234      -294.5968
  16   2.0000     -10.826023      -294.5911
  17   2.0000     -10.825646      -294.5808
  18   2.0000     -10.824930      -294.5613
  19   2.0000     -10.824850      -294.5591
  20   2.0000     -10.823229      -294.5150
  21   2.0000     -10.822784      -294.5029
  22   2.0000     -10.822590      -294.4976
  23   2.0000     -10.821619      -294.4712
  24   2.0000     -10.821271      -294.4618
  25   2.0000     -10.814086      -294.2662
  26   2.0000     -10.813534      -294.2512
  27   2.0000     -10.812862      -294.2329
  28   2.0000     -10.812279      -294.2171
  29   2.0000     -10.812183      -294.2145
  30   2.0000     -10.811861      -294.2057
  31   2.0000     -10.811764      -294.2031
  32   2.0000     -10.811667      -294.2004
  33   2.0000     -10.811059      -294.1839
  34   2.0000     -10.811028      -294.1830
  35   2.0000     -10.810952      -294.1810
  36   2.0000     -10.810454      -294.1674
  37   2.0000     -10.810392      -294.1657
  38   2.0000     -10.810127      -294.1585
  39   2.0000     -10.809910      -294.1526
  40   2.0000     -10.809622      -294.1448
  41   2.0000     -10.806540      -294.0609
  42   2.0000     -10.806303      -294.0545
  43   2.0000     -10.799717      -293.8752
  44   2.0000      -2.567214       -69.8574
  45   2.0000      -1.369082       -37.2546
  46   2.0000      -1.368274       -37.2326
  47   2.0000      -1.367340       -37.2072
  48   2.0000      -1.335453       -36.3395
  49   2.0000      -1.264355       -34.4049
  50   2.0000      -1.209714       -32.9180
  51   2.0000      -1.206040       -32.8180
  52   2.0000      -1.160481       -31.5783
  53   2.0000      -1.079262       -29.3682
  54   2.0000      -1.061286       -28.8791
  55   2.0000      -1.053217       -28.6595
  56   2.0000      -1.050171       -28.5766
  57   2.0000      -1.042580       -28.3700
  58   2.0000      -1.035763       -28.1845
  59   2.0000      -0.984886       -26.8001
  60   2.0000      -0.971257       -26.4292
  61   2.0000      -0.951300       -25.8862
  62   2.0000      -0.936768       -25.4907
  63   2.0000      -0.934316       -25.4240
  64   2.0000      -0.918195       -24.9854
  65   2.0000      -0.916646       -24.9432
  66   2.0000      -0.915816       -24.9206
  67   2.0000      -0.914870       -24.8949
  68   2.0000      -0.901434       -24.5293
  69   2.0000      -0.879883       -23.9428
  70   2.0000      -0.873521       -23.7697
  71   2.0000      -0.810719       -22.0608
  72   2.0000      -0.798183       -21.7197
  73   2.0000      -0.784013       -21.3341
  74   2.0000      -0.774128       -21.0651
  75   2.0000      -0.762291       -20.7430
  76   2.0000      -0.747375       -20.3371
  77   2.0000      -0.745923       -20.2976
  78   2.0000      -0.742820       -20.2132
  79   2.0000      -0.740066       -20.1382
  80   2.0000      -0.735189       -20.0055
  81   2.0000      -0.714632       -19.4461
  82   2.0000      -0.703499       -19.1432
  83   2.0000      -0.679957       -18.5026
  84   2.0000      -0.669489       -18.2177
  85   2.0000      -0.660976       -17.9861
  86   2.0000      -0.647624       -17.6227
  87   2.0000      -0.637283       -17.3413
  88   2.0000      -0.626241       -17.0409
  89   2.0000      -0.621986       -16.9251
  90   2.0000      -0.616812       -16.7843
  91   2.0000      -0.597846       -16.2682
  92   2.0000      -0.594637       -16.1809
  93   2.0000      -0.587243       -15.9797
  94   2.0000      -0.584594       -15.9076
  95   2.0000      -0.581726       -15.8296
  96   2.0000      -0.573393       -15.6028
  97   2.0000      -0.564235       -15.3536
  98   2.0000      -0.564076       -15.3493
  99   2.0000      -0.562490       -15.3061
 100   2.0000      -0.556814       -15.1517
 101   2.0000      -0.554566       -15.0905
 102   2.0000      -0.552555       -15.0358
 103   2.0000      -0.548834       -14.9345
 104   2.0000      -0.545308       -14.8386
 105   2.0000      -0.540991       -14.7211
 106   2.0000      -0.536610       -14.6019
 107   2.0000      -0.523415       -14.2429
 108   2.0000      -0.522878       -14.2282
 109   2.0000      -0.520420       -14.1614
 110   2.0000      -0.519677       -14.1411
 111   2.0000      -0.519070       -14.1246
 112   2.0000      -0.514340       -13.9959
 113   2.0000      -0.510829       -13.9004
 114   2.0000      -0.503955       -13.7133
 115   2.0000      -0.491552       -13.3758
 116   2.0000      -0.485454       -13.2099
 117   2.0000      -0.482623       -13.1328
 118   2.0000      -0.475195       -12.9307
 119   2.0000      -0.474056       -12.8997
 120   2.0000      -0.465573       -12.6689
 121   2.0000      -0.464286       -12.6339
 122   2.0000      -0.459482       -12.5032
 123   2.0000      -0.457501       -12.4492
 124   2.0000      -0.450731       -12.2650
 125   2.0000      -0.446420       -12.1477
 126   2.0000      -0.440979       -11.9996
 127   2.0000      -0.435139       -11.8407
 128   2.0000      -0.433117       -11.7857
 129   2.0000      -0.432785       -11.7767
 130   2.0000      -0.431765       -11.7489
 131   2.0000      -0.429190       -11.6789
 132   2.0000      -0.416445       -11.3321
 133   2.0000      -0.408789       -11.1237
 134   2.0000      -0.374870       -10.2007
 135   2.0000      -0.372693       -10.1415
 136   2.0000      -0.362847        -9.8736
 137   2.0000      -0.354016        -9.6333
 138   2.0000      -0.340031        -9.2527
 139   2.0000      -0.337805        -9.1921
 140   2.0000      -0.334384        -9.0990
 141   2.0000      -0.328271        -8.9327
 142   2.0000      -0.319399        -8.6913
 143   2.0000      -0.317656        -8.6439
 144   2.0000      -0.315297        -8.5797
 145   2.0000      -0.312656        -8.5078
 146   2.0000      -0.308178        -8.3859
 147   2.0000      -0.304564        -8.2876
 148   2.0000      -0.284246        -7.7347
 149   2.0000      -0.263937        -7.1821
 150   2.0000      -0.223611        -6.0848
 151   0.0000      -0.014810        -0.4030
 152   0.0000       0.020984         0.5710
 153   0.0000       0.033289         0.9058
 154   0.0000       0.045982         1.2512
 155   0.0000       0.051014         1.3882

MULLIKEN ATOMIC CHARGES
-----------------------
   0 C :    0.353165
   1 C :   -0.144082
   2 C :    0.300317
   3 C :    0.074984
   4 C :   -0.241351
   5 C :   -0.384970
   6 C :    0.442985
   7 C :    0.140814
   8 C :    0.283541
   9 C :   -0.086130
  10 C :    0.274402
  11 C :    0.059258
  12 C :   -0.360288
  13 H :    0.184507
  14 H :    0.141065
  15 H :    0.209183
  16 O :   -0.240699
  17 O :   -0.573676
  18 O :   -0.583555
  19 C :   -0.030741
  20 C :   -0.372020
  21 C :   -0.025881
  22 C :   -0.127400
  23 H :    0.177125
  24 C :   -0.189225
  25 C :   -0.186471
  26 H :    0.173633
  27 H :    0.175632
  28 H :    0.172595
  29 C :    0.416596
  30 O :   -0.676923
  31 O :   -0.668327
  32 C :    0.097472
  33 C :   -0.260526
  34 C :   -0.256570
  35 C :   -0.181819
  36 H :    0.151070
  37 C :   -0.168259
  38 H :    0.153910
  39 C :   -0.176682
  40 H :    0.163778
  41 H :    0.162505
  42 H :    0.166274
  43 C :    0.029719
  44 C :   -0.265319
  45 C :   -0.264616
  46 C :   -0.176558
  47 H :    0.156832
  48 C :   -0.189812
  49 H :    0.152953
  50 C :   -0.169337
  51 H :    0.161846
  52 H :    0.163766
  53 H :    0.166489
  54 C :    0.075748
  55 C :   -0.296641
  56 C :   -0.257278
  57 C :   -0.188866
  58 H :    0.183754
  59 C :   -0.177612
  60 H :    0.156007
  61 C :   -0.171902
  62 H :    0.164709
  63 H :    0.164093
  64 H :    0.167905
  65 Na:    0.874906
Sum of atomic charges:   -1.0000000

LOEWDIN ATOMIC CHARGES
----------------------
   0 C :   -0.321778
   1 C :   -0.102640
   2 C :   -0.121152
   3 C :   -0.121745
   4 C :   -0.093851
   5 C :   -0.154932
   6 C :    0.031163
   7 C :   -0.117997
   8 C :   -0.124337
   9 C :   -0.099807
  10 C :   -0.276365
  11 C :   -0.103328
  12 C :   -0.044298
  13 H :    0.165944
  14 H :    0.148954
  15 H :    0.174611
  16 O :    0.367408
  17 O :   -0.053579
  18 O :   -0.076851
  19 C :   -0.061422
  20 C :   -0.094197
  21 C :   -0.073398
  22 C :   -0.136218
  23 H :    0.164667
  24 C :   -0.098222
  25 C :   -0.137921
  26 H :    0.156688
  27 H :    0.161482
  28 H :    0.155877
  29 C :   -0.500728
  30 O :   -0.025008
  31 O :   -0.009985
  32 C :   -0.114488
  33 C :   -0.107368
  34 C :   -0.109576
  35 C :   -0.160063
  36 H :    0.155752
  37 C :   -0.158656
  38 H :    0.156191
  39 C :   -0.162098
  40 H :    0.151637
  41 H :    0.152116
  42 H :    0.150917
  43 C :   -0.112796
  44 C :   -0.109545
  45 C :   -0.107330
  46 C :   -0.158362
  47 H :    0.156490
  48 C :   -0.159845
  49 H :    0.155664
  50 C :   -0.162046
  51 H :    0.152098
  52 H :    0.151674
  53 H :    0.150954
  54 C :   -0.113578
  55 C :   -0.114083
  56 C :   -0.109731
  57 C :   -0.158582
  58 H :    0.158336
  59 C :   -0.158632
  60 H :    0.155425
  61 C :   -0.161953
  62 H :    0.152385
  63 H :    0.152016
  64 H :    0.150850
  65 Na:    0.559189

  Mayer bond orders larger than 0.100000
B(  0-C ,  1-C ) :   1.0096 B(  0-C ,  5-C ) :   1.1757 B(  0-C , 18-O ) :   1.8881
B(  1-C ,  2-C ) :   1.3537 B(  1-C , 18-O ) :  -0.1252 B(  1-C , 32-C ) :   0.8235
B(  2-C ,  3-C ) :   1.2925 B(  2-C , 16-O ) :   1.0798 B(  3-C ,  4-C ) :   1.1462
B(  3-C ,  6-C ) :   1.2108 B(  4-C ,  5-C ) :   1.6457 B(  4-C , 13-H ) :   0.9625
B(  5-C , 14-H ) :   1.0019 B(  6-C ,  7-C ) :   1.1220 B(  6-C , 19-C ) :   0.6430
B(  6-C , 20-C ) :  -0.1439 B(  6-C , 21-C ) :  -0.1484 B(  7-C ,  8-C ) :   1.3046
B(  7-C , 12-C ) :   1.1206 B(  7-C , 19-C ) :  -0.1143 B(  8-C ,  9-C ) :   1.4330
B(  8-C , 16-O ) :   1.0950 B(  9-C , 10-C ) :   1.0728 B(  9-C , 17-O ) :  -0.1552
B(  9-C , 43-C ) :   0.8098 B( 10-C , 11-C ) :   1.1089 B( 10-C , 17-O ) :   1.9645
B( 11-C , 12-C ) :   1.5691 B( 11-C , 17-O ) :  -0.1406 B( 11-C , 54-C ) :   0.8014
B( 12-C , 15-H ) :   0.9401 B( 19-C , 20-C ) :   1.4424 B( 19-C , 21-C ) :   1.3393
B( 20-C , 22-C ) :   1.4318 B( 20-C , 23-H ) :   0.9866 B( 21-C , 24-C ) :   1.4160
B( 21-C , 29-C ) :   0.9118 B( 22-C , 25-C ) :   1.3877 B( 22-C , 26-H ) :   0.9781
B( 24-C , 25-C ) :   1.3997 B( 24-C , 27-H ) :   0.9750 B( 25-C , 28-H ) :   0.9796
B( 29-C , 30-O ) :   1.5850 B( 29-C , 31-O ) :   1.6131 B( 30-O , 65-Na) :   0.1068
B( 31-O , 65-Na) :   0.1117 B( 32-C , 33-C ) :   1.3869 B( 32-C , 34-C ) :   1.3569
B( 33-C , 35-C ) :   1.4484 B( 33-C , 36-H ) :   0.9818 B( 34-C , 37-C ) :   1.4572
B( 34-C , 38-H ) :   0.9812 B( 35-C , 39-C ) :   1.3948 B( 35-C , 40-H ) :   0.9826
B( 37-C , 39-C ) :   1.3894 B( 37-C , 41-H ) :   0.9830 B( 39-C , 42-H ) :   0.9799
B( 43-C , 44-C ) :   1.3655 B( 43-C , 45-C ) :   1.3911 B( 44-C , 46-C ) :   1.4562
B( 44-C , 47-H ) :   0.9808 B( 45-C , 48-C ) :   1.4544 B( 45-C , 49-H ) :   0.9817
B( 46-C , 50-C ) :   1.3902 B( 46-C , 51-H ) :   0.9845 B( 48-C , 50-C ) :   1.3909
B( 48-C , 52-H ) :   0.9842 B( 50-C , 53-H ) :   0.9808 B( 54-C , 55-C ) :   1.3723
B( 54-C , 56-C ) :   1.3567 B( 55-C , 57-C ) :   1.4697 B( 55-C , 58-H ) :   0.9488
B( 56-C , 59-C ) :   1.4494 B( 56-C , 60-H ) :   0.9782 B( 57-C , 61-C ) :   1.3987
B( 57-C , 62-H ) :   0.9812 B( 59-C , 61-C ) :   1.3912 B( 59-C , 63-H ) :   0.9825
B( 61-C , 64-H ) :   0.9781

MP2 TOTAL ENERGY:    -1998.102900823 Eh

-----------------------------------------------------------------------------
         ABSORPTION SPECTRUM VIA TRANSITION ELECTRIC DIPOLE MOMENTS
-----------------------------------------------------------------------------
State   Energy    Wavelength  fosc         T2        TX        TY        TZ
        (cm-1)      (nm)                 (au**2)    (au)      (au)      (au)
-----------------------------------------------------------------------------
   1   18816.9    531.4   0.852003232  14.90627   2.56273  -2.88731  -0.04656
   2   26418.9    378.5   0.102811910   1.28116   1.06723   0.35507   0.12689
   3   28700.9    348.4   0.091557960   1.05021  -1.01446  -0.01375  -0.14455
   4   31815.5    314.3   0.075311950   0.77929   0.49814   0.72879  -0.00397
   5   32665.2    306.1   0.471628367   4.75325   1.80453   1.21223   0.16562
   6   30416.0    328.8   0.012945336   0.14012  -0.26853  -0.25682  -0.04529
   7   35229.5    283.9   0.025954304   0.24254   0.43553   0.22528   0.04584
   8   31664.9    315.8   0.035519814   0.36929   0.52829   0.29915   0.02667
   9   36782.2    271.9   0.156329090   1.39919   0.97500  -0.66945  -0.02017
  10   35879.8    278.7   0.236381344   2.16890  -0.79838  -1.23588  -0.06401
  11   35360.8    282.8   0.003284353   0.03058   0.17172  -0.02215  -0.02452
  12   37404.6    267.3   0.014162585   0.12465   0.32873  -0.09545  -0.08646
  13   37439.2    267.1   0.048009817   0.42216  -0.29643   0.49466   0.29935
  14   37768.9    264.8   0.002007303   0.01750  -0.07908  -0.09531   0.04645
  15   37910.8    263.8   0.077416580   0.67227   0.74460  -0.24223   0.24325
  16   38176.4    261.9   0.060332578   0.52027  -0.66444   0.28029  -0.01530
  17   39010.8    256.3   0.040434722   0.34123  -0.14548  -0.54028  -0.16782
  18   37879.0    264.0   0.088502553   0.76919   0.41983  -0.75852  -0.13256
  19   39513.2    253.1   0.015830094   0.13189   0.11295   0.34356   0.03319
  20   42151.9    237.2   0.182007424   1.42150  -1.15671   0.21822  -0.18948
  21   41962.3    238.3   0.067972932   0.53328   0.61075   0.33667   0.21661
  22   43933.1    227.6   0.117849849   0.88311   0.12323   0.78474   0.50209
  23   42622.5    234.6   0.039714837   0.30675  -0.38384  -0.30663   0.25572
  24   43031.1    232.4   0.031606095   0.24180  -0.22128  -0.37870   0.22233
  25   41879.3    238.8   0.019024464   0.14955   0.05025  -0.02747   0.38245
  26   43638.6    229.2   0.016896239   0.12747   0.32207   0.12818  -0.08546
  27   42521.1    235.2   0.070963236   0.54942  -0.59732   0.43306  -0.07131
  28   43012.9    232.5   0.098019072   0.75022  -0.70734   0.37959  -0.32527
  29   44318.7    225.6   0.019613231   0.14569   0.26764   0.23088  -0.14407
  30   43610.1    229.3   0.122447990   0.92436   0.37573   0.85575  -0.22557

FINAL SINGLE POINT ENERGY     -1995.321188776459

DIPOLE MOMENT
-------------
                                X             Y             Z
Electronic contribution:    -10.03702      -9.61475      14.79957
Nuclear contribution   :      5.49594       9.51929     -12.42031
                        -----------------------------------------
Total Dipole Moment    :     -4.54107      -0.09546       2.37926
                        -----------------------------------------
Magnitude (a.u.)       :      5.12751
Magnitude (Debye)      :     13.03309

Rotational constants in cm-1:     0.003424     0.002174     0.001529
Rotational constants in MHz :   102.652398    65.171305    45.832607

                             ****ORCA TERMINATED NORMALLY****
TOTAL RUN TIME: 4 days 8 hours 1 minutes 48 seconds 225 msec
