                         Program Version 5.0.2 -  RELEASE  -
|  1> %maxcore 12800
|  2> %pal
|  3>  nprocs= 8
|  4> end
|  5> ! RI-DSD-BLYP D3BJ def2-TZVP def2/J def2-TZVP/C RIJCOSX CPCM TightSCF
|  6> %TDDFT DCORR 4
|  7>    NROOTS   30
|  8>
|  9>    TDA      FALSE
| 10> END
| 11>
| 12> %CPCM
| 13>    SMD          TRUE
| 14>    SMDsolvent   "N,N-DIMETHYLACETAMIDE"
| 15> END
| 16>
| 17>
| 18> * xyz 0 1
| 19> C                   3.61765600    1.45129200   -0.41710800
| 20> C                   2.44517500    2.18143900   -0.52558900
| 21> C                   1.20333900    1.55532600   -0.48552500
| 22> C                   1.18228700    0.16538700   -0.32119200
| 23> C                   2.34675200   -0.55878600   -0.21041400
| 24> C                   3.60126000    0.06610900   -0.25821900
| 25> C                  -1.17577200    0.16028500   -0.34751100
| 26> C                  -1.19916600    1.55107000   -0.50445000
| 27> C                  -2.44211400    2.17400900   -0.55758300
| 28> H                  -2.48898600    3.24685300   -0.69037300
| 29> C                  -3.61362200    1.44116500   -0.45677800
| 30> C                  -3.59444600    0.05559400   -0.30227300
| 31> C                  -2.33941600   -0.56755200   -0.25157400
| 32> H                   2.49034800    3.25650000   -0.63969400
| 33> H                   2.26194200   -1.63305300   -0.10958300
| 34> H                  -4.55793100    1.96513400   -0.52506800
| 35> N                   0.00174200    2.24955900   -0.59693700
| 36> C                   0.00056200    3.66933500   -0.75726300
| 37> C                  -0.01257000    4.49792300    0.39277600
| 38> C                   0.01230200    4.20580600   -2.01807600
| 39> C                  -0.02431100    3.98392000    1.70735200
| 40> C                  -0.01360100    5.91252700    0.20200000
| 41> C                   0.01123100    5.59906000   -2.19624600
| 42> H                   0.02223200    3.54255500   -2.87410700
| 43> C                  -0.03664200    4.82859300    2.78568100
| 44> H                  -0.02340800    2.91104100    1.85507100
| 45> C                  -0.02656500    6.75075800    1.33821000
| 46> C                  -0.00154100    6.43210700   -1.11033800
| 47> H                   0.02049300    6.00674200   -3.19874000
| 48> C                  -0.03783300    6.22286100    2.60113500
| 49> H                  -0.04550000    4.42197900    3.78909000
| 50> H                  -0.02731400    7.82390600    1.18779900
| 51> H                  -0.00254300    7.50773000   -1.24113500
| 52> H                  -0.04762900    6.87718600    3.46363800
| 53> H                  -2.25341000   -1.63725400   -0.11096500
| 54> H                   4.55950900    1.98342300   -0.43475900
| 55> C                   4.84078100   -0.71276500   -0.14102100
| 56> C                   4.86923200   -1.95495900    0.50335400
| 57> C                   6.04922900   -0.24468200   -0.67036200
| 58> C                   6.03685000   -2.68544600    0.61210500
| 59> H                   3.96230800   -2.35379600    0.94081200
| 60> C                   7.21561100   -0.97650100   -0.56340900
| 61> H                   6.07437000    0.70556800   -1.18913500
| 62> C                   7.24251000   -2.21808800    0.08007100
| 63> H                   6.00838000   -3.64756400    1.10890300
| 64> H                   8.12914900   -0.56883700   -0.97882500
| 65> C                   8.48500700   -2.99905500    0.18939000
| 66> C                   8.69575200   -3.87865400    1.25699800
| 67> C                   9.49513700   -2.88708900   -0.77242100
| 68> C                   9.86576100   -4.61291700    1.35865300
| 69> H                   7.94181600   -3.97236900    2.02898800
| 70> C                  10.66473600   -3.62185200   -0.67084500
| 71> H                   9.35319700   -2.23121800   -1.62254300
| 72> C                  10.85740600   -4.48917500    0.39541600
| 73> H                  10.00665100   -5.28064900    2.19971700
| 74> H                  11.42706600   -3.52191500   -1.43373300
| 75> H                  11.77175500   -5.06351900    0.47480300
| 76> C                  -4.83306400   -0.72638000   -0.19976900
| 77> C                  -4.88328100   -2.07478100   -0.57130100
| 78> C                  -6.01848200   -0.15322100    0.27511300
| 79> C                  -6.05175900   -2.80607500   -0.47613000
| 80> H                  -3.99412900   -2.55906400   -0.95592400
| 81> C                  -7.18513600   -0.88568100    0.37337600
| 82> H                  -6.02355900    0.88365100    0.58764600
| 83> C                  -7.23473800   -2.23287900    0.00039400
| 84> H                  -6.04192000   -3.85004800   -0.76476200
| 85> H                  -8.08117500   -0.39762400    0.73700900
| 86> C                  -8.47747600   -3.01352100    0.10930100
| 87> C                  -8.73236700   -4.09330900   -0.74326900
| 88> C                  -9.44350500   -2.70019400    1.07186600
| 89> C                  -9.90257400   -4.82687200   -0.63782200
| 90> H                  -8.01349600   -4.34802500   -1.51238900
| 91> C                 -10.61287300   -3.43453800    1.17790300
| 92> H                  -9.26604400   -1.88310400    1.76027200
| 93> C                 -10.84975200   -4.50232700    0.32350500
| 94> H                 -10.07880000   -5.65279100   -1.31598500
| 95> H                 -11.34011200   -3.17583000    1.93767700
| 96> H                 -11.76406500   -5.07633400    0.40567900
| 97> O                   0.00409900   -0.53872400   -0.27868500
| 98> *
| 99>
|100>
|101>                          ****END OF INPUT****

CARTESIAN COORDINATES (ANGSTROEM)
---------------------------------
  C      3.617656    1.451292   -0.417108
  C      2.445175    2.181439   -0.525589
  C      1.203339    1.555326   -0.485525
  C      1.182287    0.165387   -0.321192
  C      2.346752   -0.558786   -0.210414
  C      3.601260    0.066109   -0.258219
  C     -1.175772    0.160285   -0.347511
  C     -1.199166    1.551070   -0.504450
  C     -2.442114    2.174009   -0.557583
  H     -2.488986    3.246853   -0.690373
  C     -3.613622    1.441165   -0.456778
  C     -3.594446    0.055594   -0.302273
  C     -2.339416   -0.567552   -0.251574
  H      2.490348    3.256500   -0.639694
  H      2.261942   -1.633053   -0.109583
  H     -4.557931    1.965134   -0.525068
  N      0.001742    2.249559   -0.596937
  C      0.000562    3.669335   -0.757263
  C     -0.012570    4.497923    0.392776
  C      0.012302    4.205806   -2.018076
  C     -0.024311    3.983920    1.707352
  C     -0.013601    5.912527    0.202000
  C      0.011231    5.599060   -2.196246
  H      0.022232    3.542555   -2.874107
  C     -0.036642    4.828593    2.785681
  H     -0.023408    2.911041    1.855071
  C     -0.026565    6.750758    1.338210
  C     -0.001541    6.432107   -1.110338
  H      0.020493    6.006742   -3.198740
  C     -0.037833    6.222861    2.601135
  H     -0.045500    4.421979    3.789090
  H     -0.027314    7.823906    1.187799
  H     -0.002543    7.507730   -1.241135
  H     -0.047629    6.877186    3.463638
  H     -2.253410   -1.637254   -0.110965
  H      4.559509    1.983423   -0.434759
  C      4.840781   -0.712765   -0.141021
  C      4.869232   -1.954959    0.503354
  C      6.049229   -0.244682   -0.670362
  C      6.036850   -2.685446    0.612105
  H      3.962308   -2.353796    0.940812
  C      7.215611   -0.976501   -0.563409
  H      6.074370    0.705568   -1.189135
  C      7.242510   -2.218088    0.080071
  H      6.008380   -3.647564    1.108903
  H      8.129149   -0.568837   -0.978825
  C      8.485007   -2.999055    0.189390
  C      8.695752   -3.878654    1.256998
  C      9.495137   -2.887089   -0.772421
  C      9.865761   -4.612917    1.358653
  H      7.941816   -3.972369    2.028988
  C     10.664736   -3.621852   -0.670845
  H      9.353197   -2.231218   -1.622543
  C     10.857406   -4.489175    0.395416
  H     10.006651   -5.280649    2.199717
  H     11.427066   -3.521915   -1.433733
  H     11.771755   -5.063519    0.474803
  C     -4.833064   -0.726380   -0.199769
  C     -4.883281   -2.074781   -0.571301
  C     -6.018482   -0.153221    0.275113
  C     -6.051759   -2.806075   -0.476130
  H     -3.994129   -2.559064   -0.955924
  C     -7.185136   -0.885681    0.373376
  H     -6.023559    0.883651    0.587646
  C     -7.234738   -2.232879    0.000394
  H     -6.041920   -3.850048   -0.764762
  H     -8.081175   -0.397624    0.737009
  C     -8.477476   -3.013521    0.109301
  C     -8.732367   -4.093309   -0.743269
  C     -9.443505   -2.700194    1.071866
  C     -9.902574   -4.826872   -0.637822
  H     -8.013496   -4.348025   -1.512389
  C    -10.612873   -3.434538    1.177903
  H     -9.266044   -1.883104    1.760272
  C    -10.849752   -4.502327    0.323505
  H    -10.078800   -5.652791   -1.315985
  H    -11.340112   -3.175830    1.937677
  H    -11.764065   -5.076334    0.405679
  O      0.004099   -0.538724   -0.278685

 Total Charge           Charge          ....    0
 Multiplicity           Mult            ....    1
 Number of Electrons    NEL             ....  322
 Basis Dimension        Dim             .... 1674

ORBITAL ENERGIES
----------------

  NO   OCC          E(Eh)            E(eV)
   0   2.0000     -20.057700      -545.7978
   1   2.0000     -15.123819      -411.5400
   2   2.0000     -10.897319      -296.5311
   3   2.0000     -10.897219      -296.5284
   4   2.0000     -10.883029      -296.1423
   5   2.0000     -10.883001      -296.1415
   6   2.0000     -10.872258      -295.8492
   7   2.0000     -10.843570      -295.0685
   8   2.0000     -10.842007      -295.0260
   9   2.0000     -10.840180      -294.9763
  10   2.0000     -10.840159      -294.9757
  11   2.0000     -10.839875      -294.9680
  12   2.0000     -10.839796      -294.9658
  13   2.0000     -10.838181      -294.9219
  14   2.0000     -10.838095      -294.9196
  15   2.0000     -10.837936      -294.9152
  16   2.0000     -10.837910      -294.9145
  17   2.0000     -10.833941      -294.8065
  18   2.0000     -10.832975      -294.7802
  19   2.0000     -10.830629      -294.7164
  20   2.0000     -10.830471      -294.7121
  21   2.0000     -10.830282      -294.7070
  22   2.0000     -10.829304      -294.6804
  23   2.0000     -10.829242      -294.6787
  24   2.0000     -10.829197      -294.6774
  25   2.0000     -10.828494      -294.6583
  26   2.0000     -10.828411      -294.6560
  27   2.0000     -10.828225      -294.6510
  28   2.0000     -10.826619      -294.6073
  29   2.0000     -10.826500      -294.6040
  30   2.0000     -10.826478      -294.6034
  31   2.0000     -10.826382      -294.6008
  32   2.0000     -10.826350      -294.6000
  33   2.0000     -10.826335      -294.5996
  34   2.0000     -10.826244      -294.5971
  35   2.0000     -10.826235      -294.5968
  36   2.0000     -10.826161      -294.5948
  37   2.0000     -10.826080      -294.5926
  38   2.0000     -10.825433      -294.5750
  39   2.0000     -10.825289      -294.5711
  40   2.0000     -10.825278      -294.5708
  41   2.0000     -10.825276      -294.5707
  42   2.0000     -10.825204      -294.5688
  43   2.0000     -10.825134      -294.5669
  44   2.0000     -10.825094      -294.5658
  45   2.0000     -10.825015      -294.5636
  46   2.0000     -10.824222      -294.5420
  47   2.0000     -10.824112      -294.5391
  48   2.0000      -1.311652       -35.6919
  49   2.0000      -1.179882       -32.1062
  50   2.0000      -1.070345       -29.1256
  51   2.0000      -1.069472       -29.1018
  52   2.0000      -1.063502       -28.9394
  53   2.0000      -1.056912       -28.7600
  54   2.0000      -1.044914       -28.4335
  55   2.0000      -1.034636       -28.1539
  56   2.0000      -1.023403       -27.8482
  57   2.0000      -1.007327       -27.4107
  58   2.0000      -0.972584       -26.4654
  59   2.0000      -0.963262       -26.2117
  60   2.0000      -0.949246       -25.8303
  61   2.0000      -0.942560       -25.6484
  62   2.0000      -0.929242       -25.2859
  63   2.0000      -0.921041       -25.0628
  64   2.0000      -0.919805       -25.0292
  65   2.0000      -0.915166       -24.9029
  66   2.0000      -0.913088       -24.8464
  67   2.0000      -0.910387       -24.7729
  68   2.0000      -0.910262       -24.7695
  69   2.0000      -0.900454       -24.5026
  70   2.0000      -0.887854       -24.1597
  71   2.0000      -0.878579       -23.9074
  72   2.0000      -0.853385       -23.2218
  73   2.0000      -0.802858       -21.8469
  74   2.0000      -0.800846       -21.7921
  75   2.0000      -0.773028       -21.0351
  76   2.0000      -0.768310       -20.9068
  77   2.0000      -0.767634       -20.8884
  78   2.0000      -0.762095       -20.7377
  79   2.0000      -0.757361       -20.6088
  80   2.0000      -0.757223       -20.6051
  81   2.0000      -0.741591       -20.1797
  82   2.0000      -0.729828       -19.8596
  83   2.0000      -0.719258       -19.5720
  84   2.0000      -0.718525       -19.5521
  85   2.0000      -0.716968       -19.5097
  86   2.0000      -0.712287       -19.3823
  87   2.0000      -0.691006       -18.8032
  88   2.0000      -0.685404       -18.6508
  89   2.0000      -0.655705       -17.8426
  90   2.0000      -0.648527       -17.6473
  91   2.0000      -0.647761       -17.6265
  92   2.0000      -0.640577       -17.4310
  93   2.0000      -0.624146       -16.9839
  94   2.0000      -0.623547       -16.9676
  95   2.0000      -0.616548       -16.7771
  96   2.0000      -0.609782       -16.5930
  97   2.0000      -0.603204       -16.4140
  98   2.0000      -0.587816       -15.9953
  99   2.0000      -0.587013       -15.9734
 100   2.0000      -0.583551       -15.8792
 101   2.0000      -0.580011       -15.7829
 102   2.0000      -0.578961       -15.7543
 103   2.0000      -0.572822       -15.5873
 104   2.0000      -0.558311       -15.1924
 105   2.0000      -0.557783       -15.1780
 106   2.0000      -0.553150       -15.0520
 107   2.0000      -0.549013       -14.9394
 108   2.0000      -0.547165       -14.8891
 109   2.0000      -0.542397       -14.7594
 110   2.0000      -0.539855       -14.6902
 111   2.0000      -0.538330       -14.6487
 112   2.0000      -0.536866       -14.6089
 113   2.0000      -0.534009       -14.5311
 114   2.0000      -0.532075       -14.4785
 115   2.0000      -0.531059       -14.4508
 116   2.0000      -0.527387       -14.3509
 117   2.0000      -0.526875       -14.3370
 118   2.0000      -0.514815       -14.0088
 119   2.0000      -0.514204       -13.9922
 120   2.0000      -0.508008       -13.8236
 121   2.0000      -0.506704       -13.7881
 122   2.0000      -0.490436       -13.3454
 123   2.0000      -0.490186       -13.3386
 124   2.0000      -0.488346       -13.2886
 125   2.0000      -0.486640       -13.2422
 126   2.0000      -0.482847       -13.1389
 127   2.0000      -0.478958       -13.0331
 128   2.0000      -0.475273       -12.9328
 129   2.0000      -0.469271       -12.7695
 130   2.0000      -0.463197       -12.6042
 131   2.0000      -0.461298       -12.5526
 132   2.0000      -0.454303       -12.3622
 133   2.0000      -0.451715       -12.2918
 134   2.0000      -0.447868       -12.1871
 135   2.0000      -0.445408       -12.1202
 136   2.0000      -0.439338       -11.9550
 137   2.0000      -0.438709       -11.9379
 138   2.0000      -0.436349       -11.8737
 139   2.0000      -0.432919       -11.7803
 140   2.0000      -0.432193       -11.7606
 141   2.0000      -0.424387       -11.5482
 142   2.0000      -0.417320       -11.3558
 143   2.0000      -0.416217       -11.3258
 144   2.0000      -0.413490       -11.2516
 145   2.0000      -0.411706       -11.2031
 146   2.0000      -0.364741        -9.9251
 147   2.0000      -0.357496        -9.7280
 148   2.0000      -0.344269        -9.3680
 149   2.0000      -0.326162        -8.8753
 150   2.0000      -0.316179        -8.6037
 151   2.0000      -0.314559        -8.5596
 152   2.0000      -0.314209        -8.5501
 153   2.0000      -0.311240        -8.4693
 154   2.0000      -0.311066        -8.4645
 155   2.0000      -0.301536        -8.2052
 156   2.0000      -0.297324        -8.0906
 157   2.0000      -0.276965        -7.5366
 158   2.0000      -0.271981        -7.4010
 159   2.0000      -0.259941        -7.0733
 160   2.0000      -0.222068        -6.0428
 161   0.0000       0.014783         0.4023
 162   0.0000       0.021797         0.5931
 163   0.0000       0.026148         0.7115
 164   0.0000       0.047894         1.3033
 165   0.0000       0.056696         1.5428

MULLIKEN ATOMIC CHARGES
-----------------------
   0 C :   -0.259189
   1 C :   -0.240134
   2 C :    0.066957
   3 C :    0.284307
   4 C :   -0.396382
   5 C :    0.226454
   6 C :    0.280069
   7 C :    0.068144
   8 C :   -0.236837
   9 H :    0.176554
  10 C :   -0.263928
  11 C :    0.221048
  12 C :   -0.394707
  13 H :    0.176745
  14 H :    0.150637
  15 H :    0.161664
  16 N :    0.011544
  17 C :    0.204837
  18 C :    0.035512
  19 C :   -0.223224
  20 C :   -0.349408
  21 C :    0.110730
  22 C :   -0.105844
  23 H :    0.161827
  24 C :   -0.107867
  25 H :    0.170384
  26 C :   -0.201620
  27 C :   -0.272225
  28 H :    0.163717
  29 C :   -0.166403
  30 H :    0.164231
  31 H :    0.163238
  32 H :    0.162999
  33 H :    0.163108
  34 H :    0.152031
  35 H :    0.160089
  36 C :    0.120895
  37 C :   -0.228106
  38 C :   -0.238623
  39 C :   -0.240978
  40 H :    0.158764
  41 C :   -0.235718
  42 H :    0.158849
  43 C :    0.225051
  44 H :    0.158945
  45 H :    0.159404
  46 C :    0.105236
  47 C :   -0.250125
  48 C :   -0.252950
  49 C :   -0.168845
  50 H :    0.160929
  51 C :   -0.165967
  52 H :    0.161770
  53 C :   -0.154795
  54 H :    0.160295
  55 H :    0.159560
  56 H :    0.162056
  57 C :    0.131760
  58 C :   -0.236775
  59 C :   -0.237471
  60 C :   -0.237794
  61 H :    0.159657
  62 C :   -0.237594
  63 H :    0.157937
  64 C :    0.221886
  65 H :    0.159561
  66 H :    0.160674
  67 C :    0.107253
  68 C :   -0.251899
  69 C :   -0.253955
  70 C :   -0.167627
  71 H :    0.161813
  72 C :   -0.166321
  73 H :    0.161348
  74 C :   -0.156292
  75 H :    0.160079
  76 H :    0.160115
  77 H :    0.162532
  78 O :   -0.333589
Sum of atomic charges:   -0.0000000

LOEWDIN ATOMIC CHARGES
----------------------
   0 C :   -0.110116
   1 C :   -0.116112
   2 C :   -0.138435
   3 C :   -0.189100
   4 C :   -0.073293
   5 C :   -0.120297
   6 C :   -0.188993
   7 C :   -0.138373
   8 C :   -0.115933
   9 H :    0.162419
  10 C :   -0.110533
  11 C :   -0.120476
  12 C :   -0.073405
  13 H :    0.162360
  14 H :    0.161637
  15 H :    0.156784
  16 N :    0.275311
  17 C :   -0.132678
  18 C :   -0.068365
  19 C :   -0.089185
  20 C :   -0.099057
  21 C :   -0.096957
  22 C :   -0.138344
  23 H :    0.160931
  24 C :   -0.137630
  25 H :    0.159565
  26 C :   -0.100762
  27 C :   -0.093395
  28 H :    0.153624
  29 C :   -0.142399
  30 H :    0.152493
  31 H :    0.156483
  32 H :    0.157621
  33 H :    0.151911
  34 H :    0.161781
  35 H :    0.156754
  36 C :   -0.108851
  37 C :   -0.104314
  38 C :   -0.103676
  39 C :   -0.103022
  40 H :    0.155745
  41 C :   -0.103232
  42 H :    0.155767
  43 C :   -0.110489
  44 H :    0.156116
  45 H :    0.156095
  46 C :   -0.109718
  47 C :   -0.105864
  48 C :   -0.105979
  49 C :   -0.146411
  50 H :    0.154823
  51 C :   -0.146330
  52 H :    0.154874
  53 C :   -0.149106
  54 H :    0.150856
  55 H :    0.150838
  56 H :    0.149431
  57 C :   -0.108851
  58 C :   -0.104310
  59 C :   -0.103881
  60 C :   -0.102952
  61 H :    0.155781
  62 C :   -0.103084
  63 H :    0.155626
  64 C :   -0.110286
  65 H :    0.156135
  66 H :    0.156142
  67 C :   -0.109736
  68 C :   -0.105938
  69 C :   -0.105962
  70 C :   -0.146363
  71 H :    0.154891
  72 C :   -0.146428
  73 H :    0.154932
  74 C :   -0.149305
  75 H :    0.150892
  76 H :    0.150899
  77 H :    0.149474
  78 O :    0.288938

  Mayer bond orders larger than 0.100000
B(  0-C ,  1-C ) :   1.4224 B(  0-C ,  5-C ) :   1.3811 B(  0-C , 35-H ) :   0.9741
B(  1-C ,  2-C ) :   1.3816 B(  1-C , 13-H ) :   0.9719 B(  2-C ,  3-C ) :   1.3339
B(  2-C , 16-N ) :   1.0843 B(  3-C ,  4-C ) :   1.4822 B(  3-C , 78-O ) :   1.0003
B(  4-C ,  5-C ) :   1.3360 B(  4-C , 14-H ) :   0.9839 B(  5-C , 36-C ) :   0.9220
B(  6-C ,  7-C ) :   1.3377 B(  6-C , 12-C ) :   1.4777 B(  6-C , 78-O ) :   1.0015
B(  7-C ,  8-C ) :   1.3805 B(  7-C , 16-N ) :   1.0827 B(  8-C ,  9-H ) :   0.9713
B(  8-C , 10-C ) :   1.4247 B( 10-C , 11-C ) :   1.3822 B( 10-C , 15-H ) :   0.9721
B( 11-C , 12-C ) :   1.3368 B( 11-C , 57-C ) :   0.9216 B( 12-C , 34-H ) :   0.9855
B( 16-N , 17-C ) :   0.7112 B( 17-C , 18-C ) :   1.1728 B( 17-C , 19-C ) :   1.6438
B( 17-C , 20-C ) :  -0.1065 B( 17-C , 21-C ) :  -0.1211 B( 18-C , 20-C ) :   1.2707
B( 18-C , 21-C ) :   1.2950 B( 19-C , 22-C ) :   1.2364 B( 19-C , 23-H ) :   0.9883
B( 20-C , 24-C ) :   1.5653 B( 20-C , 25-H ) :   0.9794 B( 21-C , 26-C ) :   1.2551
B( 21-C , 27-C ) :   1.2281 B( 22-C , 27-C ) :   1.5129 B( 22-C , 28-H ) :   0.9905
B( 24-C , 29-C ) :   1.2364 B( 24-C , 30-H ) :   0.9835 B( 26-C , 29-C ) :   1.5407
B( 26-C , 31-H ) :   0.9842 B( 27-C , 32-H ) :   0.9903 B( 29-C , 33-H ) :   0.9839
B( 36-C , 37-C ) :   1.3672 B( 36-C , 38-C ) :   1.3724 B( 37-C , 39-C ) :   1.4630
B( 37-C , 40-H ) :   0.9750 B( 38-C , 41-C ) :   1.4655 B( 38-C , 42-H ) :   0.9759
B( 39-C , 43-C ) :   1.3645 B( 39-C , 44-H ) :   0.9780 B( 41-C , 43-C ) :   1.3590
B( 41-C , 45-H ) :   0.9768 B( 43-C , 46-C ) :   0.9048 B( 46-C , 47-C ) :   1.3816
B( 46-C , 48-C ) :   1.3835 B( 47-C , 49-C ) :   1.4550 B( 47-C , 50-H ) :   0.9708
B( 48-C , 51-C ) :   1.4537 B( 48-C , 52-H ) :   0.9698 B( 49-C , 53-C ) :   1.4030
B( 49-C , 54-H ) :   0.9810 B( 51-C , 53-C ) :   1.4009 B( 51-C , 55-H ) :   0.9823
B( 53-C , 56-H ) :   0.9774 B( 57-C , 58-C ) :   1.3650 B( 57-C , 59-C ) :   1.3663
B( 58-C , 60-C ) :   1.4648 B( 58-C , 61-H ) :   0.9752 B( 59-C , 62-C ) :   1.4679
B( 59-C , 63-H ) :   0.9763 B( 60-C , 64-C ) :   1.3641 B( 60-C , 65-H ) :   0.9774
B( 62-C , 64-C ) :   1.3616 B( 62-C , 66-H ) :   0.9755 B( 64-C , 67-C ) :   0.9058
B( 67-C , 68-C ) :   1.3839 B( 67-C , 69-C ) :   1.3820 B( 68-C , 70-C ) :   1.4542
B( 68-C , 71-H ) :   0.9696 B( 69-C , 72-C ) :   1.4529 B( 69-C , 73-H ) :   0.9713
B( 70-C , 74-C ) :   1.4014 B( 70-C , 75-H ) :   0.9819 B( 72-C , 74-C ) :   1.4021
B( 72-C , 76-H ) :   0.9815 B( 74-C , 77-H ) :   0.9774

MP2 TOTAL ENERGY:    -1899.736895718 Eh

-----------------------------------------------------------------------------
         ABSORPTION SPECTRUM VIA TRANSITION ELECTRIC DIPOLE MOMENTS
-----------------------------------------------------------------------------
State   Energy    Wavelength  fosc         T2        TX        TY        TZ
        (cm-1)      (nm)                 (au**2)    (au)      (au)      (au)
-----------------------------------------------------------------------------
   1   21003.5    476.1   0.938650463  14.71255   3.83556  -0.02414   0.02131
   2   28888.7    346.2   0.763985434   8.70629  -0.01059  -2.94103   0.23777
   3   13539.2    738.6   0.001129504   0.02746   0.14723   0.07606  -0.00153
   4   22691.2    440.7   0.270036924   3.91779  -1.97858  -0.02997  -0.04599
   5   35878.9    278.7   0.023331042   0.21408   0.00288  -0.46258   0.00929
   6   26339.8    379.7   0.076060256   0.95065   0.07584  -0.96468   0.11956
   7   32027.7    312.2   0.529141162   5.43903  -2.33209  -0.01970   0.00440
   8   28963.4    345.3   0.000637117   0.00724   0.02762  -0.01511  -0.07906
   9   29542.2    338.5   0.003344159   0.03727   0.00540   0.18264  -0.06229
  10   29190.3    342.6   0.004792783   0.05405  -0.23132   0.00232  -0.02320
  11   31456.5    317.9   0.003044164   0.03186   0.00065  -0.06876  -0.16471
  12   31985.7    312.6   0.000046799   0.00048   0.02016  -0.00372   0.00782
  13   32790.2    305.0   0.000243538   0.00245   0.00206   0.03582  -0.03402
  14   21635.9    462.2   0.000091883   0.00140   0.03639   0.00800   0.00319
  15   33869.3    295.3   0.330052525   3.20813  -1.78803  -0.01657  -0.10403
  16   32238.0    310.2   0.004828897   0.04931  -0.14511   0.11409  -0.12345
  17   39587.1    252.6   1.115777280   9.27896  -0.16370  -0.89795  -2.90618
  18   30664.1    326.1   0.141981263   1.52432   1.15603  -0.09325  -0.42333
  19   34619.8    288.9   0.016939614   0.16108  -0.06051   0.39611   0.02288
  20   36324.6    275.3   0.034893093   0.31624   0.02360   0.15032   0.54137
  21   40393.3    247.6   0.371258333   3.02582  -1.71768   0.07392   0.26441
  22   36749.2    272.1   0.089766818   0.80416   0.68801   0.07935   0.56966
  23   45374.7    220.4   0.132415303   0.96073  -0.04080  -0.97898  -0.02568
  24   37042.4    270.0   0.189386058   1.68315  -0.12096   1.05013  -0.75216
  25   34504.0    289.8   0.155970725   1.48816   1.16902  -0.30344  -0.17171
  26   41015.4    243.8   0.582974255   4.67927  -0.54000  -2.06444   0.35461
  27   34797.8    287.4   0.203770811   1.92781   1.19880  -0.56818  -0.40972
  28   30911.4    323.5   0.061258669   0.65242   0.07669  -0.46424   0.65652
  29   36818.0    271.6   0.400849938   3.58424  -0.61088   1.56723   0.86882
  30   36856.3    271.3   0.430457323   3.84498  -0.68701  -1.30068   1.29662

Dispersion correction           -0.080268244
FINAL SINGLE POINT ENERGY     -1895.999054987128

DIPOLE MOMENT
-------------
                                X             Y             Z
Electronic contribution:      0.01951       7.10682      -2.91933
Nuclear contribution   :     -0.02043      -5.63200       2.82928
                        -----------------------------------------
Total Dipole Moment    :     -0.00092       1.47482      -0.09005
                        -----------------------------------------
Magnitude (a.u.)       :      1.47757
Magnitude (Debye)      :      3.75568

Rotational constants in cm-1:     0.002297     0.000767     0.000599
Rotational constants in MHz :    68.851724    22.987264    17.972395

                             ****ORCA TERMINATED NORMALLY****
TOTAL RUN TIME: 0 days 14 hours 4 minutes 38 seconds 979 msec
