                         Program Version 5.0.2 -  RELEASE  -
|  1> %maxcore 3200
|  2> %pal
|  3>  nprocs= 8
|  4> end
|  5> ! RI-B2PLYP D3BJ def2-TZVP def2/J def2-TZVP/C RIJCOSX CPCM TightSCF
|  6> %TDDFT DCORR 4
|  7>    NROOTS   30
|  8>
|  9>    TDA      FALSE
| 10> END
| 11>
| 12> %CPCM
| 13>    SMD          TRUE
| 14>    SMDsolvent   "N,N-DIMETHYLACETAMIDE"
| 15> END
| 16>
| 17>
| 18> * xyz 0 1
| 19> C                   3.61765600    1.45129200   -0.41710800
| 20> C                   2.44517500    2.18143900   -0.52558900
| 21> C                   1.20333900    1.55532600   -0.48552500
| 22> C                   1.18228700    0.16538700   -0.32119200
| 23> C                   2.34675200   -0.55878600   -0.21041400
| 24> C                   3.60126000    0.06610900   -0.25821900
| 25> C                  -1.17577200    0.16028500   -0.34751100
| 26> C                  -1.19916600    1.55107000   -0.50445000
| 27> C                  -2.44211400    2.17400900   -0.55758300
| 28> H                  -2.48898600    3.24685300   -0.69037300
| 29> C                  -3.61362200    1.44116500   -0.45677800
| 30> C                  -3.59444600    0.05559400   -0.30227300
| 31> C                  -2.33941600   -0.56755200   -0.25157400
| 32> H                   2.49034800    3.25650000   -0.63969400
| 33> H                   2.26194200   -1.63305300   -0.10958300
| 34> H                  -4.55793100    1.96513400   -0.52506800
| 35> N                   0.00174200    2.24955900   -0.59693700
| 36> C                   0.00056200    3.66933500   -0.75726300
| 37> C                  -0.01257000    4.49792300    0.39277600
| 38> C                   0.01230200    4.20580600   -2.01807600
| 39> C                  -0.02431100    3.98392000    1.70735200
| 40> C                  -0.01360100    5.91252700    0.20200000
| 41> C                   0.01123100    5.59906000   -2.19624600
| 42> H                   0.02223200    3.54255500   -2.87410700
| 43> C                  -0.03664200    4.82859300    2.78568100
| 44> H                  -0.02340800    2.91104100    1.85507100
| 45> C                  -0.02656500    6.75075800    1.33821000
| 46> C                  -0.00154100    6.43210700   -1.11033800
| 47> H                   0.02049300    6.00674200   -3.19874000
| 48> C                  -0.03783300    6.22286100    2.60113500
| 49> H                  -0.04550000    4.42197900    3.78909000
| 50> H                  -0.02731400    7.82390600    1.18779900
| 51> H                  -0.00254300    7.50773000   -1.24113500
| 52> H                  -0.04762900    6.87718600    3.46363800
| 53> H                  -2.25341000   -1.63725400   -0.11096500
| 54> H                   4.55950900    1.98342300   -0.43475900
| 55> C                   4.84078100   -0.71276500   -0.14102100
| 56> C                   4.86923200   -1.95495900    0.50335400
| 57> C                   6.04922900   -0.24468200   -0.67036200
| 58> C                   6.03685000   -2.68544600    0.61210500
| 59> H                   3.96230800   -2.35379600    0.94081200
| 60> C                   7.21561100   -0.97650100   -0.56340900
| 61> H                   6.07437000    0.70556800   -1.18913500
| 62> C                   7.24251000   -2.21808800    0.08007100
| 63> H                   6.00838000   -3.64756400    1.10890300
| 64> H                   8.12914900   -0.56883700   -0.97882500
| 65> C                   8.48500700   -2.99905500    0.18939000
| 66> C                   8.69575200   -3.87865400    1.25699800
| 67> C                   9.49513700   -2.88708900   -0.77242100
| 68> C                   9.86576100   -4.61291700    1.35865300
| 69> H                   7.94181600   -3.97236900    2.02898800
| 70> C                  10.66473600   -3.62185200   -0.67084500
| 71> H                   9.35319700   -2.23121800   -1.62254300
| 72> C                  10.85740600   -4.48917500    0.39541600
| 73> H                  10.00665100   -5.28064900    2.19971700
| 74> H                  11.42706600   -3.52191500   -1.43373300
| 75> H                  11.77175500   -5.06351900    0.47480300
| 76> C                  -4.83306400   -0.72638000   -0.19976900
| 77> C                  -4.88328100   -2.07478100   -0.57130100
| 78> C                  -6.01848200   -0.15322100    0.27511300
| 79> C                  -6.05175900   -2.80607500   -0.47613000
| 80> H                  -3.99412900   -2.55906400   -0.95592400
| 81> C                  -7.18513600   -0.88568100    0.37337600
| 82> H                  -6.02355900    0.88365100    0.58764600
| 83> C                  -7.23473800   -2.23287900    0.00039400
| 84> H                  -6.04192000   -3.85004800   -0.76476200
| 85> H                  -8.08117500   -0.39762400    0.73700900
| 86> C                  -8.47747600   -3.01352100    0.10930100
| 87> C                  -8.73236700   -4.09330900   -0.74326900
| 88> C                  -9.44350500   -2.70019400    1.07186600
| 89> C                  -9.90257400   -4.82687200   -0.63782200
| 90> H                  -8.01349600   -4.34802500   -1.51238900
| 91> C                 -10.61287300   -3.43453800    1.17790300
| 92> H                  -9.26604400   -1.88310400    1.76027200
| 93> C                 -10.84975200   -4.50232700    0.32350500
| 94> H                 -10.07880000   -5.65279100   -1.31598500
| 95> H                 -11.34011200   -3.17583000    1.93767700
| 96> H                 -11.76406500   -5.07633400    0.40567900
| 97> O                   0.00409900   -0.53872400   -0.27868500
| 98> *
| 99>
|100>
|101>                          ****END OF INPUT****

CARTESIAN COORDINATES (ANGSTROEM)
---------------------------------
  C      3.617656    1.451292   -0.417108
  C      2.445175    2.181439   -0.525589
  C      1.203339    1.555326   -0.485525
  C      1.182287    0.165387   -0.321192
  C      2.346752   -0.558786   -0.210414
  C      3.601260    0.066109   -0.258219
  C     -1.175772    0.160285   -0.347511
  C     -1.199166    1.551070   -0.504450
  C     -2.442114    2.174009   -0.557583
  H     -2.488986    3.246853   -0.690373
  C     -3.613622    1.441165   -0.456778
  C     -3.594446    0.055594   -0.302273
  C     -2.339416   -0.567552   -0.251574
  H      2.490348    3.256500   -0.639694
  H      2.261942   -1.633053   -0.109583
  H     -4.557931    1.965134   -0.525068
  N      0.001742    2.249559   -0.596937
  C      0.000562    3.669335   -0.757263
  C     -0.012570    4.497923    0.392776
  C      0.012302    4.205806   -2.018076
  C     -0.024311    3.983920    1.707352
  C     -0.013601    5.912527    0.202000
  C      0.011231    5.599060   -2.196246
  H      0.022232    3.542555   -2.874107
  C     -0.036642    4.828593    2.785681
  H     -0.023408    2.911041    1.855071
  C     -0.026565    6.750758    1.338210
  C     -0.001541    6.432107   -1.110338
  H      0.020493    6.006742   -3.198740
  C     -0.037833    6.222861    2.601135
  H     -0.045500    4.421979    3.789090
  H     -0.027314    7.823906    1.187799
  H     -0.002543    7.507730   -1.241135
  H     -0.047629    6.877186    3.463638
  H     -2.253410   -1.637254   -0.110965
  H      4.559509    1.983423   -0.434759
  C      4.840781   -0.712765   -0.141021
  C      4.869232   -1.954959    0.503354
  C      6.049229   -0.244682   -0.670362
  C      6.036850   -2.685446    0.612105
  H      3.962308   -2.353796    0.940812
  C      7.215611   -0.976501   -0.563409
  H      6.074370    0.705568   -1.189135
  C      7.242510   -2.218088    0.080071
  H      6.008380   -3.647564    1.108903
  H      8.129149   -0.568837   -0.978825
  C      8.485007   -2.999055    0.189390
  C      8.695752   -3.878654    1.256998
  C      9.495137   -2.887089   -0.772421
  C      9.865761   -4.612917    1.358653
  H      7.941816   -3.972369    2.028988
  C     10.664736   -3.621852   -0.670845
  H      9.353197   -2.231218   -1.622543
  C     10.857406   -4.489175    0.395416
  H     10.006651   -5.280649    2.199717
  H     11.427066   -3.521915   -1.433733
  H     11.771755   -5.063519    0.474803
  C     -4.833064   -0.726380   -0.199769
  C     -4.883281   -2.074781   -0.571301
  C     -6.018482   -0.153221    0.275113
  C     -6.051759   -2.806075   -0.476130
  H     -3.994129   -2.559064   -0.955924
  C     -7.185136   -0.885681    0.373376
  H     -6.023559    0.883651    0.587646
  C     -7.234738   -2.232879    0.000394
  H     -6.041920   -3.850048   -0.764762
  H     -8.081175   -0.397624    0.737009
  C     -8.477476   -3.013521    0.109301
  C     -8.732367   -4.093309   -0.743269
  C     -9.443505   -2.700194    1.071866
  C     -9.902574   -4.826872   -0.637822
  H     -8.013496   -4.348025   -1.512389
  C    -10.612873   -3.434538    1.177903
  H     -9.266044   -1.883104    1.760272
  C    -10.849752   -4.502327    0.323505
  H    -10.078800   -5.652791   -1.315985
  H    -11.340112   -3.175830    1.937677
  H    -11.764065   -5.076334    0.405679
  O      0.004099   -0.538724   -0.278685

 Total Charge           Charge          ....    0
 Multiplicity           Mult            ....    1
 Number of Electrons    NEL             ....  322
 Basis Dimension        Dim             .... 1674

ORBITAL ENERGIES
----------------

  NO   OCC          E(Eh)            E(eV)
   0   2.0000     -19.773501      -538.0643
   1   2.0000     -14.877279      -404.8313
   2   2.0000     -10.685158      -290.7579
   3   2.0000     -10.685065      -290.7554
   4   2.0000     -10.670620      -290.3623
   5   2.0000     -10.670590      -290.3615
   6   2.0000     -10.660896      -290.0977
   7   2.0000     -10.632433      -289.3232
   8   2.0000     -10.630902      -289.2816
   9   2.0000     -10.628472      -289.2154
  10   2.0000     -10.628454      -289.2149
  11   2.0000     -10.628301      -289.2108
  12   2.0000     -10.628227      -289.2088
  13   2.0000     -10.626598      -289.1644
  14   2.0000     -10.626510      -289.1620
  15   2.0000     -10.626318      -289.1568
  16   2.0000     -10.626292      -289.1561
  17   2.0000     -10.622743      -289.0595
  18   2.0000     -10.621564      -289.0275
  19   2.0000     -10.619570      -288.9732
  20   2.0000     -10.619129      -288.9612
  21   2.0000     -10.618951      -288.9563
  22   2.0000     -10.618140      -288.9343
  23   2.0000     -10.617431      -288.9150
  24   2.0000     -10.617382      -288.9137
  25   2.0000     -10.617091      -288.9057
  26   2.0000     -10.617047      -288.9045
  27   2.0000     -10.616969      -288.9024
  28   2.0000     -10.615056      -288.8504
  29   2.0000     -10.614946      -288.8474
  30   2.0000     -10.614918      -288.8466
  31   2.0000     -10.614862      -288.8451
  32   2.0000     -10.614828      -288.8442
  33   2.0000     -10.614766      -288.8425
  34   2.0000     -10.614718      -288.8412
  35   2.0000     -10.614640      -288.8390
  36   2.0000     -10.614636      -288.8389
  37   2.0000     -10.614527      -288.8360
  38   2.0000     -10.614001      -288.8216
  39   2.0000     -10.613945      -288.8201
  40   2.0000     -10.613861      -288.8178
  41   2.0000     -10.613855      -288.8177
  42   2.0000     -10.613843      -288.8173
  43   2.0000     -10.613784      -288.8157
  44   2.0000     -10.613713      -288.8138
  45   2.0000     -10.613709      -288.8137
  46   2.0000     -10.612967      -288.7935
  47   2.0000     -10.612864      -288.7907
  48   2.0000      -1.241532       -33.7838
  49   2.0000      -1.115703       -30.3598
  50   2.0000      -1.008852       -27.4523
  51   2.0000      -1.008286       -27.4368
  52   2.0000      -1.002032       -27.2667
  53   2.0000      -0.995936       -27.1008
  54   2.0000      -0.984356       -26.7857
  55   2.0000      -0.974593       -26.5200
  56   2.0000      -0.964007       -26.2320
  57   2.0000      -0.948899       -25.8209
  58   2.0000      -0.915455       -24.9108
  59   2.0000      -0.906642       -24.6710
  60   2.0000      -0.893328       -24.3087
  61   2.0000      -0.887587       -24.1525
  62   2.0000      -0.874125       -23.7862
  63   2.0000      -0.865866       -23.5614
  64   2.0000      -0.864693       -23.5295
  65   2.0000      -0.860709       -23.4211
  66   2.0000      -0.858381       -23.3577
  67   2.0000      -0.855695       -23.2846
  68   2.0000      -0.855511       -23.2796
  69   2.0000      -0.846526       -23.0351
  70   2.0000      -0.834603       -22.7107
  71   2.0000      -0.825588       -22.4654
  72   2.0000      -0.801719       -21.8159
  73   2.0000      -0.755810       -20.5666
  74   2.0000      -0.753728       -20.5100
  75   2.0000      -0.726718       -19.7750
  76   2.0000      -0.721729       -19.6392
  77   2.0000      -0.721391       -19.6300
  78   2.0000      -0.716099       -19.4860
  79   2.0000      -0.711717       -19.3668
  80   2.0000      -0.711425       -19.3589
  81   2.0000      -0.696326       -18.9480
  82   2.0000      -0.685297       -18.6479
  83   2.0000      -0.674984       -18.3672
  84   2.0000      -0.674731       -18.3604
  85   2.0000      -0.672681       -18.3046
  86   2.0000      -0.669655       -18.2222
  87   2.0000      -0.651543       -17.7294
  88   2.0000      -0.643223       -17.5030
  89   2.0000      -0.617076       -16.7915
  90   2.0000      -0.610047       -16.6002
  91   2.0000      -0.609228       -16.5779
  92   2.0000      -0.600880       -16.3508
  93   2.0000      -0.585929       -15.9439
  94   2.0000      -0.584857       -15.9148
  95   2.0000      -0.578783       -15.7495
  96   2.0000      -0.572159       -15.5692
  97   2.0000      -0.565832       -15.3971
  98   2.0000      -0.550946       -14.9920
  99   2.0000      -0.549353       -14.9486
 100   2.0000      -0.546074       -14.8594
 101   2.0000      -0.542985       -14.7754
 102   2.0000      -0.542320       -14.7573
 103   2.0000      -0.536169       -14.5899
 104   2.0000      -0.522787       -14.2257
 105   2.0000      -0.522154       -14.2085
 106   2.0000      -0.517478       -14.0813
 107   2.0000      -0.513360       -13.9692
 108   2.0000      -0.511818       -13.9273
 109   2.0000      -0.507344       -13.8055
 110   2.0000      -0.504722       -13.7342
 111   2.0000      -0.503394       -13.6980
 112   2.0000      -0.501950       -13.6588
 113   2.0000      -0.499433       -13.5903
 114   2.0000      -0.497486       -13.5373
 115   2.0000      -0.496696       -13.5158
 116   2.0000      -0.492994       -13.4151
 117   2.0000      -0.492537       -13.4026
 118   2.0000      -0.480944       -13.0871
 119   2.0000      -0.480406       -13.0725
 120   2.0000      -0.473916       -12.8959
 121   2.0000      -0.472943       -12.8694
 122   2.0000      -0.460524       -12.5315
 123   2.0000      -0.457483       -12.4487
 124   2.0000      -0.456060       -12.4100
 125   2.0000      -0.455859       -12.4045
 126   2.0000      -0.451870       -12.2960
 127   2.0000      -0.447548       -12.1784
 128   2.0000      -0.443177       -12.0595
 129   2.0000      -0.440399       -11.9839
 130   2.0000      -0.431203       -11.7336
 131   2.0000      -0.430122       -11.7042
 132   2.0000      -0.425798       -11.5865
 133   2.0000      -0.420376       -11.4390
 134   2.0000      -0.419651       -11.4193
 135   2.0000      -0.414645       -11.2831
 136   2.0000      -0.408670       -11.1205
 137   2.0000      -0.407881       -11.0990
 138   2.0000      -0.405903       -11.0452
 139   2.0000      -0.402319       -10.9477
 140   2.0000      -0.401585       -10.9277
 141   2.0000      -0.394253       -10.7282
 142   2.0000      -0.389319       -10.5939
 143   2.0000      -0.386887       -10.5277
 144   2.0000      -0.386108       -10.5065
 145   2.0000      -0.384892       -10.4735
 146   2.0000      -0.343946        -9.3592
 147   2.0000      -0.336995        -9.1701
 148   2.0000      -0.324038        -8.8175
 149   2.0000      -0.307480        -8.3670
 150   2.0000      -0.298455        -8.1214
 151   2.0000      -0.296759        -8.0752
 152   2.0000      -0.296427        -8.0662
 153   2.0000      -0.293585        -7.9889
 154   2.0000      -0.293409        -7.9841
 155   2.0000      -0.286124        -7.7858
 156   2.0000      -0.279331        -7.6010
 157   2.0000      -0.259915        -7.0727
 158   2.0000      -0.257163        -6.9978
 159   2.0000      -0.245706        -6.6860
 160   2.0000      -0.206756        -5.6261
 161   0.0000      -0.008448        -0.2299
 162   0.0000      -0.002816        -0.0766
 163   0.0000       0.002777         0.0756
 164   0.0000       0.023513         0.6398
 165   0.0000       0.032060         0.8724

MULLIKEN ATOMIC CHARGES
-----------------------
   0 C :   -0.255480
   1 C :   -0.227500
   2 C :    0.054693
   3 C :    0.272191
   4 C :   -0.378034
   5 C :    0.211543
   6 C :    0.268342
   7 C :    0.055964
   8 C :   -0.224488
   9 H :    0.173976
  10 C :   -0.259576
  11 C :    0.207040
  12 C :   -0.377238
  13 H :    0.174143
  14 H :    0.145875
  15 H :    0.156799
  16 N :    0.018949
  17 C :    0.187033
  18 C :    0.020531
  19 C :   -0.211895
  20 C :   -0.319912
  21 C :    0.109397
  22 C :   -0.107300
  23 H :    0.157090
  24 C :   -0.112105
  25 H :    0.167325
  26 C :   -0.192576
  27 C :   -0.253859
  28 H :    0.159110
  29 C :   -0.161155
  30 H :    0.159881
  31 H :    0.157661
  32 H :    0.157510
  33 H :    0.158929
  34 H :    0.147201
  35 H :    0.155397
  36 C :    0.120743
  37 C :   -0.222916
  38 C :   -0.231340
  39 C :   -0.234215
  40 H :    0.154308
  41 C :   -0.229849
  42 H :    0.154348
  43 C :    0.208706
  44 H :    0.154665
  45 H :    0.154969
  46 C :    0.106803
  47 C :   -0.238685
  48 C :   -0.241007
  49 C :   -0.165951
  50 H :    0.157037
  51 C :   -0.163622
  52 H :    0.157656
  53 C :   -0.151842
  54 H :    0.155998
  55 H :    0.155469
  56 H :    0.157777
  57 C :    0.129734
  58 C :   -0.229966
  59 C :   -0.230699
  60 C :   -0.231581
  61 H :    0.155142
  62 C :   -0.231439
  63 H :    0.153714
  64 C :    0.206491
  65 H :    0.155225
  66 H :    0.156045
  67 C :    0.108120
  68 C :   -0.240166
  69 C :   -0.241866
  70 C :   -0.164759
  71 H :    0.157649
  72 C :   -0.163890
  73 H :    0.157333
  74 C :   -0.153241
  75 H :    0.155907
  76 H :    0.155894
  77 H :    0.158237
  78 O :   -0.316401
Sum of atomic charges:    0.0000000

LOEWDIN ATOMIC CHARGES
----------------------
   0 C :   -0.111381
   1 C :   -0.116529
   2 C :   -0.140704
   3 C :   -0.192488
   4 C :   -0.075187
   5 C :   -0.120336
   6 C :   -0.192393
   7 C :   -0.140638
   8 C :   -0.116363
   9 H :    0.162756
  10 C :   -0.111783
  11 C :   -0.120514
  12 C :   -0.075294
  13 H :    0.162698
  14 H :    0.161663
  15 H :    0.156860
  16 N :    0.283242
  17 C :   -0.133168
  18 C :   -0.068152
  19 C :   -0.090254
  20 C :   -0.098743
  21 C :   -0.096314
  22 C :   -0.138078
  23 H :    0.161209
  24 C :   -0.138011
  25 H :    0.159893
  26 C :   -0.100812
  27 C :   -0.093700
  28 H :    0.153948
  29 C :   -0.142320
  30 H :    0.152748
  31 H :    0.156706
  32 H :    0.157826
  33 H :    0.152211
  34 H :    0.161805
  35 H :    0.156839
  36 C :   -0.108977
  37 C :   -0.104638
  38 C :   -0.103998
  39 C :   -0.103537
  40 H :    0.155921
  41 C :   -0.103748
  42 H :    0.155918
  43 C :   -0.110512
  44 H :    0.156277
  45 H :    0.156256
  46 C :   -0.109659
  47 C :   -0.106014
  48 C :   -0.106115
  49 C :   -0.146907
  50 H :    0.155050
  51 C :   -0.146834
  52 H :    0.155091
  53 C :   -0.149442
  54 H :    0.151063
  55 H :    0.151050
  56 H :    0.149651
  57 C :   -0.108987
  58 C :   -0.104629
  59 C :   -0.104211
  60 C :   -0.103465
  61 H :    0.155956
  62 C :   -0.103608
  63 H :    0.155801
  64 C :   -0.110318
  65 H :    0.156300
  66 H :    0.156301
  67 C :   -0.109687
  68 C :   -0.106073
  69 C :   -0.106099
  70 C :   -0.146859
  71 H :    0.155111
  72 C :   -0.146925
  73 H :    0.155146
  74 C :   -0.149620
  75 H :    0.151098
  76 H :    0.151107
  77 H :    0.149693
  78 O :    0.300833

  Mayer bond orders larger than 0.100000
B(  0-C ,  1-C ) :   1.4241 B(  0-C ,  5-C ) :   1.3743 B(  0-C , 35-H ) :   0.9714
B(  1-C ,  2-C ) :   1.3616 B(  1-C , 13-H ) :   0.9686 B(  2-C ,  3-C ) :   1.3170
B(  2-C , 16-N ) :   1.0854 B(  3-C ,  4-C ) :   1.4779 B(  3-C , 78-O ) :   1.0028
B(  4-C ,  5-C ) :   1.3355 B(  4-C , 14-H ) :   0.9811 B(  5-C , 36-C ) :   0.9391
B(  6-C ,  7-C ) :   1.3209 B(  6-C , 12-C ) :   1.4732 B(  6-C , 78-O ) :   1.0038
B(  7-C ,  8-C ) :   1.3606 B(  7-C , 16-N ) :   1.0836 B(  8-C ,  9-H ) :   0.9680
B(  8-C , 10-C ) :   1.4258 B( 10-C , 11-C ) :   1.3756 B( 10-C , 15-H ) :   0.9694
B( 11-C , 12-C ) :   1.3363 B( 11-C , 57-C ) :   0.9385 B( 12-C , 34-H ) :   0.9829
B( 16-N , 17-C ) :   0.7144 B( 17-C , 18-C ) :   1.1656 B( 17-C , 19-C ) :   1.6190
B( 17-C , 21-C ) :  -0.1067 B( 18-C , 20-C ) :   1.2680 B( 18-C , 21-C ) :   1.2746
B( 19-C , 22-C ) :   1.2387 B( 19-C , 23-H ) :   0.9899 B( 20-C , 24-C ) :   1.5517
B( 20-C , 25-H ) :   0.9753 B( 21-C , 26-C ) :   1.2455 B( 21-C , 27-C ) :   1.2203
B( 22-C , 27-C ) :   1.5050 B( 22-C , 28-H ) :   0.9902 B( 24-C , 29-C ) :   1.2415
B( 24-C , 30-H ) :   0.9828 B( 26-C , 29-C ) :   1.5302 B( 26-C , 31-H ) :   0.9838
B( 27-C , 32-H ) :   0.9902 B( 29-C , 33-H ) :   0.9825 B( 36-C , 37-C ) :   1.3601
B( 36-C , 38-C ) :   1.3642 B( 37-C , 39-C ) :   1.4626 B( 37-C , 40-H ) :   0.9719
B( 38-C , 41-C ) :   1.4647 B( 38-C , 42-H ) :   0.9725 B( 39-C , 43-C ) :   1.3566
B( 39-C , 44-H ) :   0.9746 B( 41-C , 43-C ) :   1.3514 B( 41-C , 45-H ) :   0.9737
B( 43-C , 46-C ) :   0.9217 B( 46-C , 47-C ) :   1.3738 B( 46-C , 48-C ) :   1.3752
B( 47-C , 49-C ) :   1.4477 B( 47-C , 50-H ) :   0.9675 B( 48-C , 51-C ) :   1.4467
B( 48-C , 52-H ) :   0.9667 B( 49-C , 53-C ) :   1.3970 B( 49-C , 54-H ) :   0.9799
B( 51-C , 53-C ) :   1.3952 B( 51-C , 55-H ) :   0.9809 B( 53-C , 56-H ) :   0.9761
B( 57-C , 58-C ) :   1.3582 B( 57-C , 59-C ) :   1.3591 B( 58-C , 60-C ) :   1.4638
B( 58-C , 61-H ) :   0.9722 B( 59-C , 62-C ) :   1.4668 B( 59-C , 63-H ) :   0.9729
B( 60-C , 64-C ) :   1.3564 B( 60-C , 65-H ) :   0.9741 B( 62-C , 64-C ) :   1.3535
B( 62-C , 66-H ) :   0.9726 B( 64-C , 67-C ) :   0.9227 B( 67-C , 68-C ) :   1.3758
B( 67-C , 69-C ) :   1.3738 B( 68-C , 70-C ) :   1.4470 B( 68-C , 71-H ) :   0.9666
B( 69-C , 72-C ) :   1.4462 B( 69-C , 73-H ) :   0.9679 B( 70-C , 74-C ) :   1.3956
B( 70-C , 75-H ) :   0.9805 B( 72-C , 74-C ) :   1.3963 B( 72-C , 76-H ) :   0.9803
B( 74-C , 77-H ) :   0.9760

MP2 TOTAL ENERGY:    -1900.642479513 Eh

-----------------------------------------------------------------------------
         ABSORPTION SPECTRUM VIA TRANSITION ELECTRIC DIPOLE MOMENTS
-----------------------------------------------------------------------------
State   Energy    Wavelength  fosc         T2        TX        TY        TZ
        (cm-1)      (nm)                 (au**2)    (au)      (au)      (au)
-----------------------------------------------------------------------------
   1   24166.6    413.8   1.049028732  14.29051  -3.78017   0.02002  -0.02097
   2   24116.8    414.6   0.000212936   0.00291   0.02763   0.04611  -0.00410
   3   29436.1    339.7   0.712812732   7.97207   0.00528   2.81493  -0.21958
   4   29259.1    341.8   0.320582968   3.60707   1.89852   0.02539   0.04542
   5   32088.4    311.6   0.106660098   1.09428   0.05361  -1.03670   0.12907
   6   35545.2    281.3   0.096473048   0.89351   0.02432  -0.94248   0.06825
   7   34586.3    289.1   0.863379941   8.21815  -2.86666  -0.01944  -0.00184
   8   34782.1    287.5   0.000567085   0.00537   0.00852   0.01090  -0.07195
   9   33410.1    299.3   0.000838917   0.00827  -0.08730   0.02295  -0.01089
  10   34486.4    290.0   0.033872928   0.32336   0.00975   0.55966  -0.10020
  11   33999.5    294.1   0.013184523   0.12766  -0.35670  -0.01642  -0.01258
  12   34159.3    292.7   0.010674269   0.10287   0.00175   0.31434  -0.06372
  13   38550.6    259.4   0.000180130   0.00154  -0.00682  -0.02739  -0.02723
  14   38563.9    259.3   0.000091798   0.00078  -0.00945   0.02271  -0.01336
  15   35283.3    283.4   0.071291115   0.66518   0.81440   0.01008   0.04287
  16   38314.5    261.0   0.202603407   1.74084   1.31562   0.00533   0.09985
  17   41446.5    241.3   0.023815122   0.18916  -0.04278  -0.17506  -0.39584
  18   38522.2    259.6   0.100907977   0.86236   0.09830   0.39675   0.83384
  19   38611.1    259.0   0.011867225   0.10118   0.05809  -0.22827   0.21378
  20   39260.2    254.7   0.028811513   0.24160   0.02118   0.19769  -0.44952
  21   39424.0    253.7   0.113491148   0.94771  -0.95194   0.01168   0.20345
  22   43164.4    231.7   0.924504874   7.05114  -0.14264   1.06944   2.42633
  23   42247.2    236.7   0.122045152   0.95104   0.86044  -0.16144   0.42967
  24   40828.5    244.9   0.068036357   0.54860  -0.34332  -0.64945   0.09458
  25   38452.7    260.1   0.011387651   0.09750  -0.21750   0.00514   0.22397
  26   42914.3    233.0   0.017250297   0.13233  -0.00581   0.32415  -0.16500
  27   39738.3    251.6   0.059510232   0.49301  -0.40972   0.00917  -0.57014
  28   42315.9    236.3   0.264754667   2.05975   0.15715   0.15090  -1.41855
  29   43045.8    232.3   0.163878425   1.25333  -0.97142  -0.22676   0.50819
  30   42170.0    237.1   0.144473294   1.12787   0.48709  -0.58929  -0.73712

Dispersion correction           -0.097488114
FINAL SINGLE POINT ENERGY     -1898.149703972069

DIPOLE MOMENT
-------------
                                X             Y             Z
Electronic contribution:      0.01912       7.14504      -2.91741
Nuclear contribution   :     -0.02043      -5.63200       2.82928
                        -----------------------------------------
Total Dipole Moment    :     -0.00131       1.51304      -0.08813
                        -----------------------------------------
Magnitude (a.u.)       :      1.51560
Magnitude (Debye)      :      3.85235

Rotational constants in cm-1:     0.002297     0.000767     0.000599
Rotational constants in MHz :    68.851724    22.987264    17.972395

                             ****ORCA TERMINATED NORMALLY****
TOTAL RUN TIME: 0 days 11 hours 54 minutes 14 seconds 301 msec
