                         Program Version 5.0.2 -  RELEASE  -
|  1> %maxcore 3200
|  2> %pal
|  3>  nprocs= 8
|  4> end
|  5> ! RI-wB2PLYP def2-TZVP def2/J def2-TZVP/C RIJCOSX CPCM TightSCF
|  6> %TDDFT DCORR 1
|  7>    NROOTS   30
|  8>
|  9>    TDA      FALSE
| 10> END
| 11>
| 12> %CPCM
| 13>    SMD          TRUE
| 14>    SMDsolvent   "N,N-DIMETHYLACETAMIDE"
| 15> END
| 16>
| 17>
| 18> * xyz 0 1
| 19> C                   3.61765600    1.45129200   -0.41710800
| 20> C                   2.44517500    2.18143900   -0.52558900
| 21> C                   1.20333900    1.55532600   -0.48552500
| 22> C                   1.18228700    0.16538700   -0.32119200
| 23> C                   2.34675200   -0.55878600   -0.21041400
| 24> C                   3.60126000    0.06610900   -0.25821900
| 25> C                  -1.17577200    0.16028500   -0.34751100
| 26> C                  -1.19916600    1.55107000   -0.50445000
| 27> C                  -2.44211400    2.17400900   -0.55758300
| 28> H                  -2.48898600    3.24685300   -0.69037300
| 29> C                  -3.61362200    1.44116500   -0.45677800
| 30> C                  -3.59444600    0.05559400   -0.30227300
| 31> C                  -2.33941600   -0.56755200   -0.25157400
| 32> H                   2.49034800    3.25650000   -0.63969400
| 33> H                   2.26194200   -1.63305300   -0.10958300
| 34> H                  -4.55793100    1.96513400   -0.52506800
| 35> N                   0.00174200    2.24955900   -0.59693700
| 36> C                   0.00056200    3.66933500   -0.75726300
| 37> C                  -0.01257000    4.49792300    0.39277600
| 38> C                   0.01230200    4.20580600   -2.01807600
| 39> C                  -0.02431100    3.98392000    1.70735200
| 40> C                  -0.01360100    5.91252700    0.20200000
| 41> C                   0.01123100    5.59906000   -2.19624600
| 42> H                   0.02223200    3.54255500   -2.87410700
| 43> C                  -0.03664200    4.82859300    2.78568100
| 44> H                  -0.02340800    2.91104100    1.85507100
| 45> C                  -0.02656500    6.75075800    1.33821000
| 46> C                  -0.00154100    6.43210700   -1.11033800
| 47> H                   0.02049300    6.00674200   -3.19874000
| 48> C                  -0.03783300    6.22286100    2.60113500
| 49> H                  -0.04550000    4.42197900    3.78909000
| 50> H                  -0.02731400    7.82390600    1.18779900
| 51> H                  -0.00254300    7.50773000   -1.24113500
| 52> H                  -0.04762900    6.87718600    3.46363800
| 53> H                  -2.25341000   -1.63725400   -0.11096500
| 54> H                   4.55950900    1.98342300   -0.43475900
| 55> C                   4.84078100   -0.71276500   -0.14102100
| 56> C                   4.86923200   -1.95495900    0.50335400
| 57> C                   6.04922900   -0.24468200   -0.67036200
| 58> C                   6.03685000   -2.68544600    0.61210500
| 59> H                   3.96230800   -2.35379600    0.94081200
| 60> C                   7.21561100   -0.97650100   -0.56340900
| 61> H                   6.07437000    0.70556800   -1.18913500
| 62> C                   7.24251000   -2.21808800    0.08007100
| 63> H                   6.00838000   -3.64756400    1.10890300
| 64> H                   8.12914900   -0.56883700   -0.97882500
| 65> C                   8.48500700   -2.99905500    0.18939000
| 66> C                   8.69575200   -3.87865400    1.25699800
| 67> C                   9.49513700   -2.88708900   -0.77242100
| 68> C                   9.86576100   -4.61291700    1.35865300
| 69> H                   7.94181600   -3.97236900    2.02898800
| 70> C                  10.66473600   -3.62185200   -0.67084500
| 71> H                   9.35319700   -2.23121800   -1.62254300
| 72> C                  10.85740600   -4.48917500    0.39541600
| 73> H                  10.00665100   -5.28064900    2.19971700
| 74> H                  11.42706600   -3.52191500   -1.43373300
| 75> H                  11.77175500   -5.06351900    0.47480300
| 76> C                  -4.83306400   -0.72638000   -0.19976900
| 77> C                  -4.88328100   -2.07478100   -0.57130100
| 78> C                  -6.01848200   -0.15322100    0.27511300
| 79> C                  -6.05175900   -2.80607500   -0.47613000
| 80> H                  -3.99412900   -2.55906400   -0.95592400
| 81> C                  -7.18513600   -0.88568100    0.37337600
| 82> H                  -6.02355900    0.88365100    0.58764600
| 83> C                  -7.23473800   -2.23287900    0.00039400
| 84> H                  -6.04192000   -3.85004800   -0.76476200
| 85> H                  -8.08117500   -0.39762400    0.73700900
| 86> C                  -8.47747600   -3.01352100    0.10930100
| 87> C                  -8.73236700   -4.09330900   -0.74326900
| 88> C                  -9.44350500   -2.70019400    1.07186600
| 89> C                  -9.90257400   -4.82687200   -0.63782200
| 90> H                  -8.01349600   -4.34802500   -1.51238900
| 91> C                 -10.61287300   -3.43453800    1.17790300
| 92> H                  -9.26604400   -1.88310400    1.76027200
| 93> C                 -10.84975200   -4.50232700    0.32350500
| 94> H                 -10.07880000   -5.65279100   -1.31598500
| 95> H                 -11.34011200   -3.17583000    1.93767700
| 96> H                 -11.76406500   -5.07633400    0.40567900
| 97> O                   0.00409900   -0.53872400   -0.27868500
| 98> *
| 99>
|100>
|101>                          ****END OF INPUT****

CARTESIAN COORDINATES (ANGSTROEM)
---------------------------------
  C      3.617656    1.451292   -0.417108
  C      2.445175    2.181439   -0.525589
  C      1.203339    1.555326   -0.485525
  C      1.182287    0.165387   -0.321192
  C      2.346752   -0.558786   -0.210414
  C      3.601260    0.066109   -0.258219
  C     -1.175772    0.160285   -0.347511
  C     -1.199166    1.551070   -0.504450
  C     -2.442114    2.174009   -0.557583
  H     -2.488986    3.246853   -0.690373
  C     -3.613622    1.441165   -0.456778
  C     -3.594446    0.055594   -0.302273
  C     -2.339416   -0.567552   -0.251574
  H      2.490348    3.256500   -0.639694
  H      2.261942   -1.633053   -0.109583
  H     -4.557931    1.965134   -0.525068
  N      0.001742    2.249559   -0.596937
  C      0.000562    3.669335   -0.757263
  C     -0.012570    4.497923    0.392776
  C      0.012302    4.205806   -2.018076
  C     -0.024311    3.983920    1.707352
  C     -0.013601    5.912527    0.202000
  C      0.011231    5.599060   -2.196246
  H      0.022232    3.542555   -2.874107
  C     -0.036642    4.828593    2.785681
  H     -0.023408    2.911041    1.855071
  C     -0.026565    6.750758    1.338210
  C     -0.001541    6.432107   -1.110338
  H      0.020493    6.006742   -3.198740
  C     -0.037833    6.222861    2.601135
  H     -0.045500    4.421979    3.789090
  H     -0.027314    7.823906    1.187799
  H     -0.002543    7.507730   -1.241135
  H     -0.047629    6.877186    3.463638
  H     -2.253410   -1.637254   -0.110965
  H      4.559509    1.983423   -0.434759
  C      4.840781   -0.712765   -0.141021
  C      4.869232   -1.954959    0.503354
  C      6.049229   -0.244682   -0.670362
  C      6.036850   -2.685446    0.612105
  H      3.962308   -2.353796    0.940812
  C      7.215611   -0.976501   -0.563409
  H      6.074370    0.705568   -1.189135
  C      7.242510   -2.218088    0.080071
  H      6.008380   -3.647564    1.108903
  H      8.129149   -0.568837   -0.978825
  C      8.485007   -2.999055    0.189390
  C      8.695752   -3.878654    1.256998
  C      9.495137   -2.887089   -0.772421
  C      9.865761   -4.612917    1.358653
  H      7.941816   -3.972369    2.028988
  C     10.664736   -3.621852   -0.670845
  H      9.353197   -2.231218   -1.622543
  C     10.857406   -4.489175    0.395416
  H     10.006651   -5.280649    2.199717
  H     11.427066   -3.521915   -1.433733
  H     11.771755   -5.063519    0.474803
  C     -4.833064   -0.726380   -0.199769
  C     -4.883281   -2.074781   -0.571301
  C     -6.018482   -0.153221    0.275113
  C     -6.051759   -2.806075   -0.476130
  H     -3.994129   -2.559064   -0.955924
  C     -7.185136   -0.885681    0.373376
  H     -6.023559    0.883651    0.587646
  C     -7.234738   -2.232879    0.000394
  H     -6.041920   -3.850048   -0.764762
  H     -8.081175   -0.397624    0.737009
  C     -8.477476   -3.013521    0.109301
  C     -8.732367   -4.093309   -0.743269
  C     -9.443505   -2.700194    1.071866
  C     -9.902574   -4.826872   -0.637822
  H     -8.013496   -4.348025   -1.512389
  C    -10.612873   -3.434538    1.177903
  H     -9.266044   -1.883104    1.760272
  C    -10.849752   -4.502327    0.323505
  H    -10.078800   -5.652791   -1.315985
  H    -11.340112   -3.175830    1.937677
  H    -11.764065   -5.076334    0.405679
  O      0.004099   -0.538724   -0.278685

 Total Charge           Charge          ....    0
 Multiplicity           Mult            ....    1
 Number of Electrons    NEL             ....  322
 Basis Dimension        Dim             .... 1674

ORBITAL ENERGIES
----------------

  NO   OCC          E(Eh)            E(eV)
   0   2.0000     -19.846218      -540.0431
   1   2.0000     -14.947801      -406.7504
   2   2.0000     -10.758196      -292.7454
   3   2.0000     -10.758096      -292.7427
   4   2.0000     -10.744045      -292.3603
   5   2.0000     -10.744013      -292.3595
   6   2.0000     -10.732873      -292.0563
   7   2.0000     -10.704531      -291.2851
   8   2.0000     -10.702895      -291.2406
   9   2.0000     -10.701163      -291.1935
  10   2.0000     -10.701138      -291.1928
  11   2.0000     -10.700603      -291.1782
  12   2.0000     -10.700521      -291.1760
  13   2.0000     -10.699220      -291.1406
  14   2.0000     -10.699135      -291.1383
  15   2.0000     -10.699073      -291.1366
  16   2.0000     -10.699050      -291.1359
  17   2.0000     -10.694452      -291.0108
  18   2.0000     -10.693355      -290.9810
  19   2.0000     -10.690967      -290.9160
  20   2.0000     -10.690709      -290.9090
  21   2.0000     -10.690544      -290.9045
  22   2.0000     -10.690107      -290.8926
  23   2.0000     -10.690061      -290.8913
  24   2.0000     -10.689705      -290.8817
  25   2.0000     -10.689238      -290.8690
  26   2.0000     -10.689152      -290.8666
  27   2.0000     -10.688452      -290.8476
  28   2.0000     -10.687112      -290.8111
  29   2.0000     -10.687036      -290.8090
  30   2.0000     -10.686993      -290.8079
  31   2.0000     -10.686975      -290.8074
  32   2.0000     -10.686925      -290.8060
  33   2.0000     -10.686876      -290.8047
  34   2.0000     -10.686405      -290.7919
  35   2.0000     -10.686299      -290.7890
  36   2.0000     -10.686296      -290.7889
  37   2.0000     -10.686217      -290.7867
  38   2.0000     -10.686082      -290.7831
  39   2.0000     -10.685930      -290.7789
  40   2.0000     -10.685921      -290.7787
  41   2.0000     -10.685782      -290.7749
  42   2.0000     -10.685568      -290.7691
  43   2.0000     -10.685475      -290.7666
  44   2.0000     -10.685374      -290.7638
  45   2.0000     -10.685289      -290.7615
  46   2.0000     -10.684415      -290.7377
  47   2.0000     -10.684304      -290.7347
  48   2.0000      -1.324239       -36.0344
  49   2.0000      -1.198998       -32.6264
  50   2.0000      -1.094146       -29.7732
  51   2.0000      -1.092943       -29.7405
  52   2.0000      -1.087088       -29.5812
  53   2.0000      -1.080749       -29.4087
  54   2.0000      -1.068874       -29.0855
  55   2.0000      -1.058818       -28.8119
  56   2.0000      -1.047958       -28.5164
  57   2.0000      -1.032166       -28.0867
  58   2.0000      -0.998389       -27.1676
  59   2.0000      -0.989030       -26.9129
  60   2.0000      -0.975185       -26.5361
  61   2.0000      -0.969395       -26.3786
  62   2.0000      -0.955572       -26.0024
  63   2.0000      -0.947345       -25.7786
  64   2.0000      -0.946025       -25.7427
  65   2.0000      -0.941240       -25.6125
  66   2.0000      -0.939286       -25.5593
  67   2.0000      -0.936410       -25.4810
  68   2.0000      -0.936229       -25.4761
  69   2.0000      -0.926838       -25.2206
  70   2.0000      -0.914559       -24.8864
  71   2.0000      -0.905299       -24.6344
  72   2.0000      -0.880398       -23.9568
  73   2.0000      -0.833498       -22.6806
  74   2.0000      -0.831774       -22.6337
  75   2.0000      -0.804076       -21.8800
  76   2.0000      -0.798628       -21.7318
  77   2.0000      -0.798103       -21.7175
  78   2.0000      -0.792453       -21.5637
  79   2.0000      -0.788247       -21.4493
  80   2.0000      -0.788117       -21.4457
  81   2.0000      -0.772209       -21.0129
  82   2.0000      -0.760656       -20.6985
  83   2.0000      -0.750057       -20.4101
  84   2.0000      -0.749291       -20.3892
  85   2.0000      -0.747544       -20.3417
  86   2.0000      -0.744777       -20.2664
  87   2.0000      -0.725995       -19.7553
  88   2.0000      -0.717525       -19.5248
  89   2.0000      -0.691019       -18.8036
  90   2.0000      -0.684584       -18.6285
  91   2.0000      -0.683522       -18.5996
  92   2.0000      -0.673421       -18.3247
  93   2.0000      -0.657607       -17.8944
  94   2.0000      -0.657361       -17.8877
  95   2.0000      -0.651433       -17.7264
  96   2.0000      -0.644747       -17.5445
  97   2.0000      -0.637394       -17.3444
  98   2.0000      -0.622955       -16.9515
  99   2.0000      -0.620767       -16.8919
 100   2.0000      -0.619881       -16.8678
 101   2.0000      -0.613151       -16.6847
 102   2.0000      -0.612492       -16.6668
 103   2.0000      -0.606933       -16.5155
 104   2.0000      -0.592986       -16.1360
 105   2.0000      -0.592438       -16.1210
 106   2.0000      -0.587007       -15.9733
 107   2.0000      -0.582459       -15.8495
 108   2.0000      -0.581043       -15.8110
 109   2.0000      -0.576379       -15.6841
 110   2.0000      -0.573884       -15.6162
 111   2.0000      -0.572085       -15.5672
 112   2.0000      -0.570302       -15.5187
 113   2.0000      -0.567530       -15.4433
 114   2.0000      -0.565870       -15.3981
 115   2.0000      -0.565553       -15.3895
 116   2.0000      -0.561378       -15.2759
 117   2.0000      -0.560950       -15.2642
 118   2.0000      -0.548666       -14.9300
 119   2.0000      -0.548198       -14.9172
 120   2.0000      -0.541847       -14.7444
 121   2.0000      -0.539726       -14.6867
 122   2.0000      -0.533193       -14.5089
 123   2.0000      -0.530618       -14.4388
 124   2.0000      -0.524900       -14.2833
 125   2.0000      -0.523193       -14.2368
 126   2.0000      -0.521872       -14.2009
 127   2.0000      -0.515976       -14.0404
 128   2.0000      -0.512717       -13.9517
 129   2.0000      -0.509801       -13.8724
 130   2.0000      -0.498545       -13.5661
 131   2.0000      -0.496555       -13.5119
 132   2.0000      -0.493836       -13.4380
 133   2.0000      -0.490966       -13.3599
 134   2.0000      -0.485071       -13.1995
 135   2.0000      -0.479449       -13.0465
 136   2.0000      -0.473165       -12.8755
 137   2.0000      -0.471770       -12.8375
 138   2.0000      -0.470276       -12.7969
 139   2.0000      -0.466251       -12.6873
 140   2.0000      -0.465643       -12.6708
 141   2.0000      -0.457450       -12.4479
 142   2.0000      -0.456609       -12.4250
 143   2.0000      -0.452669       -12.3177
 144   2.0000      -0.449199       -12.2233
 145   2.0000      -0.448801       -12.2125
 146   2.0000      -0.405999       -11.0478
 147   2.0000      -0.398672       -10.8484
 148   2.0000      -0.384623       -10.4661
 149   2.0000      -0.366424        -9.9709
 150   2.0000      -0.355853        -9.6833
 151   2.0000      -0.354278        -9.6404
 152   2.0000      -0.353950        -9.6315
 153   2.0000      -0.350995        -9.5511
 154   2.0000      -0.350840        -9.5468
 155   2.0000      -0.339724        -9.2444
 156   2.0000      -0.335848        -9.1389
 157   2.0000      -0.314877        -8.5682
 158   2.0000      -0.309763        -8.4291
 159   2.0000      -0.297523        -8.0960
 160   2.0000      -0.257791        -7.0148
 161   0.0000       0.029755         0.8097
 162   0.0000       0.037476         1.0198
 163   0.0000       0.041600         1.1320
 164   0.0000       0.063460         1.7268
 165   0.0000       0.073313         1.9949

MULLIKEN ATOMIC CHARGES
-----------------------
   0 C :   -0.252549
   1 C :   -0.246891
   2 C :    0.053790
   3 C :    0.224961
   4 C :   -0.348333
   5 C :    0.172378
   6 C :    0.222235
   7 C :    0.055196
   8 C :   -0.243909
   9 H :    0.198087
  10 C :   -0.257653
  11 C :    0.166633
  12 C :   -0.347709
  13 H :    0.198358
  14 H :    0.173480
  15 H :    0.180892
  16 N :   -0.002780
  17 C :    0.073024
  18 C :    0.039465
  19 C :   -0.210031
  20 C :   -0.325560
  21 C :    0.094859
  22 C :   -0.129729
  23 H :    0.179906
  24 C :   -0.139648
  25 H :    0.191907
  26 C :   -0.195886
  27 C :   -0.246888
  28 H :    0.181407
  29 C :   -0.186892
  30 H :    0.182046
  31 H :    0.180029
  32 H :    0.180732
  33 H :    0.180768
  34 H :    0.175103
  35 H :    0.179202
  36 C :    0.114519
  37 C :   -0.239934
  38 C :   -0.246495
  39 C :   -0.248651
  40 H :    0.177894
  41 C :   -0.245282
  42 H :    0.178226
  43 C :    0.176274
  44 H :    0.179364
  45 H :    0.179643
  46 C :    0.103013
  47 C :   -0.246930
  48 C :   -0.248861
  49 C :   -0.195060
  50 H :    0.180846
  51 C :   -0.192924
  52 H :    0.181504
  53 C :   -0.171336
  54 H :    0.178380
  55 H :    0.177778
  56 H :    0.179717
  57 C :    0.124190
  58 C :   -0.247248
  59 C :   -0.245919
  60 C :   -0.246135
  61 H :    0.178880
  62 C :   -0.246738
  63 H :    0.177817
  64 C :    0.173612
  65 H :    0.179973
  66 H :    0.180693
  67 C :    0.104899
  68 C :   -0.248224
  69 C :   -0.249728
  70 C :   -0.194247
  71 H :    0.181463
  72 C :   -0.193244
  73 H :    0.181268
  74 C :   -0.172638
  75 H :    0.178159
  76 H :    0.178143
  77 H :    0.180143
  78 O :   -0.296808
Sum of atomic charges:   -0.0000000

LOEWDIN ATOMIC CHARGES
----------------------
   0 C :   -0.113126
   1 C :   -0.119153
   2 C :   -0.141902
   3 C :   -0.195237
   4 C :   -0.076134
   5 C :   -0.122171
   6 C :   -0.195122
   7 C :   -0.141840
   8 C :   -0.118975
   9 H :    0.166787
  10 C :   -0.113536
  11 C :   -0.122379
  12 C :   -0.076250
  13 H :    0.166726
  14 H :    0.166044
  15 H :    0.161064
  16 N :    0.278794
  17 C :   -0.138933
  18 C :   -0.070457
  19 C :   -0.092507
  20 C :   -0.102815
  21 C :   -0.098985
  22 C :   -0.141737
  23 H :    0.165594
  24 C :   -0.140942
  25 H :    0.163671
  26 C :   -0.103942
  27 C :   -0.096268
  28 H :    0.158037
  29 C :   -0.146007
  30 H :    0.156890
  31 H :    0.160875
  32 H :    0.162059
  33 H :    0.156287
  34 H :    0.166205
  35 H :    0.161033
  36 C :   -0.110777
  37 C :   -0.107380
  38 C :   -0.106766
  39 C :   -0.106277
  40 H :    0.160043
  41 C :   -0.106498
  42 H :    0.160044
  43 C :   -0.112451
  44 H :    0.160418
  45 H :    0.160400
  46 C :   -0.112010
  47 C :   -0.109413
  48 C :   -0.109516
  49 C :   -0.150118
  50 H :    0.159024
  51 C :   -0.150047
  52 H :    0.159057
  53 C :   -0.152620
  54 H :    0.155197
  55 H :    0.155187
  56 H :    0.153751
  57 C :   -0.110808
  58 C :   -0.107344
  59 C :   -0.106971
  60 C :   -0.106223
  61 H :    0.160084
  62 C :   -0.106359
  63 H :    0.159929
  64 C :   -0.112255
  65 H :    0.160440
  66 H :    0.160438
  67 C :   -0.112032
  68 C :   -0.109499
  69 C :   -0.109522
  70 C :   -0.150065
  71 H :    0.159087
  72 C :   -0.150131
  73 H :    0.159118
  74 C :   -0.152807
  75 H :    0.155235
  76 H :    0.155241
  77 H :    0.153796
  78 O :    0.299755

  Mayer bond orders larger than 0.100000
B(  0-C ,  1-C ) :   1.4531 B(  0-C ,  5-C ) :   1.3889 B(  0-C , 35-H ) :   0.9549
B(  1-C ,  2-C ) :   1.3603 B(  1-C , 13-H ) :   0.9575 B(  2-C ,  3-C ) :   1.3148
B(  2-C , 16-N ) :   1.0790 B(  3-C ,  4-C ) :   1.5237 B(  3-C , 78-O ) :   1.0134
B(  4-C ,  5-C ) :   1.3580 B(  4-C , 14-H ) :   0.9436 B(  5-C , 36-C ) :   0.9300
B(  6-C ,  7-C ) :   1.3191 B(  6-C , 12-C ) :   1.5175 B(  6-C , 78-O ) :   1.0147
B(  7-C ,  8-C ) :   1.3581 B(  7-C , 16-N ) :   1.0774 B(  8-C ,  9-H ) :   0.9570
B(  8-C , 10-C ) :   1.4566 B( 10-C , 11-C ) :   1.3896 B( 10-C , 15-H ) :   0.9530
B( 11-C , 12-C ) :   1.3597 B( 11-C , 57-C ) :   0.9295 B( 12-C , 34-H ) :   0.9455
B( 16-N , 17-C ) :   0.7209 B( 17-C , 18-C ) :   1.1431 B( 17-C , 19-C ) :   1.6579
B( 18-C , 20-C ) :   1.2455 B( 18-C , 21-C ) :   1.2748 B( 19-C , 22-C ) :   1.2316
B( 19-C , 23-H ) :   0.9782 B( 20-C , 24-C ) :   1.5825 B( 20-C , 25-H ) :   0.9635
B( 21-C , 26-C ) :   1.2413 B( 21-C , 27-C ) :   1.2229 B( 22-C , 27-C ) :   1.5377
B( 22-C , 28-H ) :   0.9818 B( 24-C , 29-C ) :   1.2395 B( 24-C , 30-H ) :   0.9750
B( 26-C , 29-C ) :   1.5555 B( 26-C , 31-H ) :   0.9681 B( 27-C , 32-H ) :   0.9700
B( 29-C , 33-H ) :   0.9765 B( 36-C , 37-C ) :   1.3647 B( 36-C , 38-C ) :   1.3683
B( 37-C , 39-C ) :   1.4830 B( 37-C , 40-H ) :   0.9609 B( 38-C , 41-C ) :   1.4847
B( 38-C , 42-H ) :   0.9613 B( 39-C , 43-C ) :   1.3655 B( 39-C , 44-H ) :   0.9622
B( 41-C , 43-C ) :   1.3605 B( 41-C , 45-H ) :   0.9617 B( 43-C , 46-C ) :   0.9153
B( 46-C , 47-C ) :   1.3727 B( 46-C , 48-C ) :   1.3742 B( 47-C , 49-C ) :   1.4542
B( 47-C , 50-H ) :   0.9592 B( 48-C , 51-C ) :   1.4532 B( 48-C , 52-H ) :   0.9585
B( 49-C , 53-C ) :   1.4024 B( 49-C , 54-H ) :   0.9734 B( 51-C , 53-C ) :   1.4002
B( 51-C , 55-H ) :   0.9746 B( 53-C , 56-H ) :   0.9708 B( 57-C , 58-C ) :   1.3618
B( 57-C , 59-C ) :   1.3636 B( 58-C , 60-C ) :   1.4848 B( 58-C , 61-H ) :   0.9610
B( 59-C , 62-C ) :   1.4873 B( 59-C , 63-H ) :   0.9615 B( 60-C , 64-C ) :   1.3651
B( 60-C , 65-H ) :   0.9618 B( 62-C , 64-C ) :   1.3627 B( 62-C , 66-H ) :   0.9606
B( 64-C , 67-C ) :   0.9158 B( 67-C , 68-C ) :   1.3742 B( 67-C , 69-C ) :   1.3723
B( 68-C , 70-C ) :   1.4536 B( 68-C , 71-H ) :   0.9584 B( 69-C , 72-C ) :   1.4531
B( 69-C , 73-H ) :   0.9596 B( 70-C , 74-C ) :   1.4006 B( 70-C , 75-H ) :   0.9743
B( 72-C , 74-C ) :   1.4014 B( 72-C , 76-H ) :   0.9739 B( 74-C , 77-H ) :   0.9708

MP2 TOTAL ENERGY:    -1898.451987658 Eh

-----------------------------------------------------------------------------
         ABSORPTION SPECTRUM VIA TRANSITION ELECTRIC DIPOLE MOMENTS
-----------------------------------------------------------------------------
State   Energy    Wavelength  fosc         T2        TX        TY        TZ
        (cm-1)      (nm)                 (au**2)    (au)      (au)      (au)
-----------------------------------------------------------------------------
   1   28750.7    347.8   1.185311807  13.57252  -3.68396   0.02351  -0.02035
   2   34357.8    291.1   0.880884362   8.44051   0.00409   2.89642  -0.22640
   3   33509.8    298.4   0.349969249   3.43822  -1.85360  -0.02466  -0.04207
   4   32682.4    306.0   0.050261449   0.50629  -0.69298  -0.16144   0.00122
   5   37541.2    266.4   0.004096964   0.03593   0.00598  -0.18774  -0.02540
   6   35645.9    280.5   0.144095084   1.33081  -0.13313   1.13878  -0.12755
   7   36410.0    274.7   0.001070963   0.00968  -0.00936  -0.03676  -0.09080
   8   37997.6    263.2   0.706633012   6.12229   2.47423   0.02206  -0.00211
   9   38936.8    256.8   0.002239130   0.01893   0.00349  -0.12969   0.04584
  10   38897.9    257.1   0.005920303   0.05011   0.22242   0.00340   0.02500
  11   41405.9    241.5   0.000839621   0.00668  -0.00110   0.07801   0.02427
  12   41390.4    241.6   0.000183054   0.00146  -0.02712  -0.01164  -0.02419
  13   43507.5    229.8   0.008977188   0.06793  -0.00014  -0.12541  -0.22847
  14   43576.2    229.5   0.329297305   2.48780  -1.57383  -0.02138  -0.10200
  15   42336.7    236.2   0.133819853   1.04059  -0.99320   0.08106   0.21813
  16   46268.7    216.1   1.366626874   9.72384  -0.11803  -0.91328  -2.97923
  17   45939.4    217.7   0.050865675   0.36451  -0.09103   0.11392  -0.58588
  18   47070.4    212.4   0.120517284   0.84290  -0.73171   0.08298   0.54828
  19   47281.4    211.5   0.029329604   0.20422  -0.01311   0.01767   0.45137
  20   48152.8    207.7   1.078470831   7.37331  -2.71455   0.04043  -0.05386
  21   47429.7    210.8   0.094654444   0.65700  -0.09902  -0.78639   0.16968
  22   49348.4    202.6   0.400032060   2.66869  -0.05220  -1.59381   0.35460
  23   48786.3    205.0   0.104276407   0.70366  -0.73385   0.23774   0.32955
  24   49427.2    202.3   0.616952929   4.10924  -0.06482  -1.94406   0.57066
  25   51254.1    195.1   0.081193423   0.52152   0.00970  -0.72197   0.01353
  26   49053.0    203.9   0.078720054   0.52832   0.08753  -0.71834  -0.06809
  27   51760.0    193.2   0.494605370   3.14586  -0.00362   1.71709  -0.44435
  28   51578.5    193.9   0.660014932   4.21270  -1.65559  -0.60370  -1.05227
  29   51073.7    195.8   1.307536703   8.42814   2.29686  -1.26821  -1.24266
  30   50525.1    197.9   0.876373462   5.71028   0.95516   1.89136  -1.10486

FINAL SINGLE POINT ENERGY     -1896.090125277983

DIPOLE MOMENT
-------------
                                X             Y             Z
Electronic contribution:      0.01981       7.08955      -2.91587
Nuclear contribution   :     -0.02043      -5.63200       2.82928
                        -----------------------------------------
Total Dipole Moment    :     -0.00061       1.45754      -0.08658
                        -----------------------------------------
Magnitude (a.u.)       :      1.46011
Magnitude (Debye)      :      3.71131

Rotational constants in cm-1:     0.002297     0.000767     0.000599
Rotational constants in MHz :    68.851724    22.987264    17.972395

                             ****ORCA TERMINATED NORMALLY****
TOTAL RUN TIME: 0 days 11 hours 28 minutes 59 seconds 52 msec
