                         Program Version 5.0.2 -  RELEASE  -
|  1> %maxcore 20000
|  2> %pal
|  3>  nprocs= 6
|  4> end
|  5> ! RI-SCS-PBE-QIDH   def2-TZVP def2/J def2-TZVP/C RIJCOSX CPCM TightSCF
|  6> %TDDFT
|  7>    NROOTS   30
|  8>    dcorr 4
|  9>    doscs true
| 10>    TDA      FALSE
| 11> END
| 12>
| 13> %CPCM
| 14>    SMD          TRUE
| 15>    SMDsolvent   "N,N-DIMETHYLACETAMIDE"
| 16> END
| 17>
| 18>
| 19> * xyz 0 1
| 20> C                   3.61765600    1.45129200   -0.41710800
| 21> C                   2.44517500    2.18143900   -0.52558900
| 22> C                   1.20333900    1.55532600   -0.48552500
| 23> C                   1.18228700    0.16538700   -0.32119200
| 24> C                   2.34675200   -0.55878600   -0.21041400
| 25> C                   3.60126000    0.06610900   -0.25821900
| 26> C                  -1.17577200    0.16028500   -0.34751100
| 27> C                  -1.19916600    1.55107000   -0.50445000
| 28> C                  -2.44211400    2.17400900   -0.55758300
| 29> H                  -2.48898600    3.24685300   -0.69037300
| 30> C                  -3.61362200    1.44116500   -0.45677800
| 31> C                  -3.59444600    0.05559400   -0.30227300
| 32> C                  -2.33941600   -0.56755200   -0.25157400
| 33> H                   2.49034800    3.25650000   -0.63969400
| 34> H                   2.26194200   -1.63305300   -0.10958300
| 35> H                  -4.55793100    1.96513400   -0.52506800
| 36> N                   0.00174200    2.24955900   -0.59693700
| 37> C                   0.00056200    3.66933500   -0.75726300
| 38> C                  -0.01257000    4.49792300    0.39277600
| 39> C                   0.01230200    4.20580600   -2.01807600
| 40> C                  -0.02431100    3.98392000    1.70735200
| 41> C                  -0.01360100    5.91252700    0.20200000
| 42> C                   0.01123100    5.59906000   -2.19624600
| 43> H                   0.02223200    3.54255500   -2.87410700
| 44> C                  -0.03664200    4.82859300    2.78568100
| 45> H                  -0.02340800    2.91104100    1.85507100
| 46> C                  -0.02656500    6.75075800    1.33821000
| 47> C                  -0.00154100    6.43210700   -1.11033800
| 48> H                   0.02049300    6.00674200   -3.19874000
| 49> C                  -0.03783300    6.22286100    2.60113500
| 50> H                  -0.04550000    4.42197900    3.78909000
| 51> H                  -0.02731400    7.82390600    1.18779900
| 52> H                  -0.00254300    7.50773000   -1.24113500
| 53> H                  -0.04762900    6.87718600    3.46363800
| 54> H                  -2.25341000   -1.63725400   -0.11096500
| 55> H                   4.55950900    1.98342300   -0.43475900
| 56> C                   4.84078100   -0.71276500   -0.14102100
| 57> C                   4.86923200   -1.95495900    0.50335400
| 58> C                   6.04922900   -0.24468200   -0.67036200
| 59> C                   6.03685000   -2.68544600    0.61210500
| 60> H                   3.96230800   -2.35379600    0.94081200
| 61> C                   7.21561100   -0.97650100   -0.56340900
| 62> H                   6.07437000    0.70556800   -1.18913500
| 63> C                   7.24251000   -2.21808800    0.08007100
| 64> H                   6.00838000   -3.64756400    1.10890300
| 65> H                   8.12914900   -0.56883700   -0.97882500
| 66> C                   8.48500700   -2.99905500    0.18939000
| 67> C                   8.69575200   -3.87865400    1.25699800
| 68> C                   9.49513700   -2.88708900   -0.77242100
| 69> C                   9.86576100   -4.61291700    1.35865300
| 70> H                   7.94181600   -3.97236900    2.02898800
| 71> C                  10.66473600   -3.62185200   -0.67084500
| 72> H                   9.35319700   -2.23121800   -1.62254300
| 73> C                  10.85740600   -4.48917500    0.39541600
| 74> H                  10.00665100   -5.28064900    2.19971700
| 75> H                  11.42706600   -3.52191500   -1.43373300
| 76> H                  11.77175500   -5.06351900    0.47480300
| 77> C                  -4.83306400   -0.72638000   -0.19976900
| 78> C                  -4.88328100   -2.07478100   -0.57130100
| 79> C                  -6.01848200   -0.15322100    0.27511300
| 80> C                  -6.05175900   -2.80607500   -0.47613000
| 81> H                  -3.99412900   -2.55906400   -0.95592400
| 82> C                  -7.18513600   -0.88568100    0.37337600
| 83> H                  -6.02355900    0.88365100    0.58764600
| 84> C                  -7.23473800   -2.23287900    0.00039400
| 85> H                  -6.04192000   -3.85004800   -0.76476200
| 86> H                  -8.08117500   -0.39762400    0.73700900
| 87> C                  -8.47747600   -3.01352100    0.10930100
| 88> C                  -8.73236700   -4.09330900   -0.74326900
| 89> C                  -9.44350500   -2.70019400    1.07186600
| 90> C                  -9.90257400   -4.82687200   -0.63782200
| 91> H                  -8.01349600   -4.34802500   -1.51238900
| 92> C                 -10.61287300   -3.43453800    1.17790300
| 93> H                  -9.26604400   -1.88310400    1.76027200
| 94> C                 -10.84975200   -4.50232700    0.32350500
| 95> H                 -10.07880000   -5.65279100   -1.31598500
| 96> H                 -11.34011200   -3.17583000    1.93767700
| 97> H                 -11.76406500   -5.07633400    0.40567900
| 98> O                   0.00409900   -0.53872400   -0.27868500
| 99> *
|100>
|101>
|102>                          ****END OF INPUT****

CARTESIAN COORDINATES (ANGSTROEM)
---------------------------------
  C      3.617656    1.451292   -0.417108
  C      2.445175    2.181439   -0.525589
  C      1.203339    1.555326   -0.485525
  C      1.182287    0.165387   -0.321192
  C      2.346752   -0.558786   -0.210414
  C      3.601260    0.066109   -0.258219
  C     -1.175772    0.160285   -0.347511
  C     -1.199166    1.551070   -0.504450
  C     -2.442114    2.174009   -0.557583
  H     -2.488986    3.246853   -0.690373
  C     -3.613622    1.441165   -0.456778
  C     -3.594446    0.055594   -0.302273
  C     -2.339416   -0.567552   -0.251574
  H      2.490348    3.256500   -0.639694
  H      2.261942   -1.633053   -0.109583
  H     -4.557931    1.965134   -0.525068
  N      0.001742    2.249559   -0.596937
  C      0.000562    3.669335   -0.757263
  C     -0.012570    4.497923    0.392776
  C      0.012302    4.205806   -2.018076
  C     -0.024311    3.983920    1.707352
  C     -0.013601    5.912527    0.202000
  C      0.011231    5.599060   -2.196246
  H      0.022232    3.542555   -2.874107
  C     -0.036642    4.828593    2.785681
  H     -0.023408    2.911041    1.855071
  C     -0.026565    6.750758    1.338210
  C     -0.001541    6.432107   -1.110338
  H      0.020493    6.006742   -3.198740
  C     -0.037833    6.222861    2.601135
  H     -0.045500    4.421979    3.789090
  H     -0.027314    7.823906    1.187799
  H     -0.002543    7.507730   -1.241135
  H     -0.047629    6.877186    3.463638
  H     -2.253410   -1.637254   -0.110965
  H      4.559509    1.983423   -0.434759
  C      4.840781   -0.712765   -0.141021
  C      4.869232   -1.954959    0.503354
  C      6.049229   -0.244682   -0.670362
  C      6.036850   -2.685446    0.612105
  H      3.962308   -2.353796    0.940812
  C      7.215611   -0.976501   -0.563409
  H      6.074370    0.705568   -1.189135
  C      7.242510   -2.218088    0.080071
  H      6.008380   -3.647564    1.108903
  H      8.129149   -0.568837   -0.978825
  C      8.485007   -2.999055    0.189390
  C      8.695752   -3.878654    1.256998
  C      9.495137   -2.887089   -0.772421
  C      9.865761   -4.612917    1.358653
  H      7.941816   -3.972369    2.028988
  C     10.664736   -3.621852   -0.670845
  H      9.353197   -2.231218   -1.622543
  C     10.857406   -4.489175    0.395416
  H     10.006651   -5.280649    2.199717
  H     11.427066   -3.521915   -1.433733
  H     11.771755   -5.063519    0.474803
  C     -4.833064   -0.726380   -0.199769
  C     -4.883281   -2.074781   -0.571301
  C     -6.018482   -0.153221    0.275113
  C     -6.051759   -2.806075   -0.476130
  H     -3.994129   -2.559064   -0.955924
  C     -7.185136   -0.885681    0.373376
  H     -6.023559    0.883651    0.587646
  C     -7.234738   -2.232879    0.000394
  H     -6.041920   -3.850048   -0.764762
  H     -8.081175   -0.397624    0.737009
  C     -8.477476   -3.013521    0.109301
  C     -8.732367   -4.093309   -0.743269
  C     -9.443505   -2.700194    1.071866
  C     -9.902574   -4.826872   -0.637822
  H     -8.013496   -4.348025   -1.512389
  C    -10.612873   -3.434538    1.177903
  H     -9.266044   -1.883104    1.760272
  C    -10.849752   -4.502327    0.323505
  H    -10.078800   -5.652791   -1.315985
  H    -11.340112   -3.175830    1.937677
  H    -11.764065   -5.076334    0.405679
  O      0.004099   -0.538724   -0.278685

 Total Charge           Charge          ....    0
 Multiplicity           Mult            ....    1
 Number of Electrons    NEL             ....  322
 Basis Dimension        Dim             .... 1674

ORBITAL ENERGIES
----------------

  NO   OCC          E(Eh)            E(eV)
   0   2.0000     -20.055906      -545.7489
   1   2.0000     -15.124232      -411.5513
   2   2.0000     -10.892519      -296.4005
   3   2.0000     -10.892424      -296.3979
   4   2.0000     -10.878644      -296.0229
   5   2.0000     -10.878616      -296.0222
   6   2.0000     -10.868297      -295.7414
   7   2.0000     -10.839453      -294.9565
   8   2.0000     -10.837615      -294.9065
   9   2.0000     -10.835997      -294.8625
  10   2.0000     -10.835968      -294.8617
  11   2.0000     -10.835261      -294.8424
  12   2.0000     -10.835168      -294.8399
  13   2.0000     -10.833930      -294.8062
  14   2.0000     -10.833900      -294.8054
  15   2.0000     -10.833870      -294.8046
  16   2.0000     -10.833844      -294.8039
  17   2.0000     -10.828913      -294.6697
  18   2.0000     -10.827629      -294.6348
  19   2.0000     -10.825151      -294.5673
  20   2.0000     -10.824961      -294.5622
  21   2.0000     -10.824745      -294.5563
  22   2.0000     -10.824280      -294.5436
  23   2.0000     -10.824240      -294.5425
  24   2.0000     -10.823830      -294.5314
  25   2.0000     -10.823563      -294.5241
  26   2.0000     -10.823482      -294.5219
  27   2.0000     -10.822570      -294.4971
  28   2.0000     -10.821410      -294.4655
  29   2.0000     -10.821408      -294.4655
  30   2.0000     -10.821305      -294.4627
  31   2.0000     -10.821291      -294.4623
  32   2.0000     -10.821271      -294.4618
  33   2.0000     -10.821175      -294.4591
  34   2.0000     -10.820583      -294.4430
  35   2.0000     -10.820475      -294.4401
  36   2.0000     -10.820469      -294.4399
  37   2.0000     -10.820385      -294.4376
  38   2.0000     -10.820260      -294.4342
  39   2.0000     -10.820113      -294.4302
  40   2.0000     -10.820112      -294.4302
  41   2.0000     -10.819976      -294.4265
  42   2.0000     -10.819694      -294.4188
  43   2.0000     -10.819592      -294.4161
  44   2.0000     -10.819405      -294.4110
  45   2.0000     -10.819308      -294.4083
  46   2.0000     -10.818427      -294.3844
  47   2.0000     -10.818307      -294.3811
  48   2.0000      -1.324727       -36.0476
  49   2.0000      -1.193278       -32.4707
  50   2.0000      -1.082811       -29.4648
  51   2.0000      -1.081784       -29.4368
  52   2.0000      -1.075667       -29.2704
  53   2.0000      -1.069046       -29.0902
  54   2.0000      -1.056914       -28.7601
  55   2.0000      -1.046569       -28.4786
  56   2.0000      -1.035469       -28.1765
  57   2.0000      -1.019116       -27.7316
  58   2.0000      -0.984249       -26.7828
  59   2.0000      -0.974806       -26.5258
  60   2.0000      -0.960613       -26.1396
  61   2.0000      -0.954224       -25.9658
  62   2.0000      -0.940498       -25.5922
  63   2.0000      -0.931895       -25.3582
  64   2.0000      -0.930603       -25.3230
  65   2.0000      -0.926056       -25.1993
  66   2.0000      -0.923937       -25.1416
  67   2.0000      -0.921119       -25.0649
  68   2.0000      -0.920991       -25.0614
  69   2.0000      -0.911455       -24.8019
  70   2.0000      -0.898666       -24.4540
  71   2.0000      -0.889346       -24.2003
  72   2.0000      -0.864014       -23.5110
  73   2.0000      -0.814044       -22.1513
  74   2.0000      -0.811862       -22.0919
  75   2.0000      -0.783482       -21.3196
  76   2.0000      -0.778461       -21.1830
  77   2.0000      -0.777839       -21.1661
  78   2.0000      -0.772239       -21.0137
  79   2.0000      -0.767532       -20.8856
  80   2.0000      -0.767309       -20.8795
  81   2.0000      -0.751418       -20.4471
  82   2.0000      -0.739644       -20.1267
  83   2.0000      -0.728820       -19.8322
  84   2.0000      -0.728439       -19.8218
  85   2.0000      -0.726612       -19.7721
  86   2.0000      -0.722376       -19.6568
  87   2.0000      -0.702039       -19.1035
  88   2.0000      -0.695162       -18.9163
  89   2.0000      -0.665974       -18.1221
  90   2.0000      -0.658489       -17.9184
  91   2.0000      -0.657686       -17.8965
  92   2.0000      -0.649841       -17.6831
  93   2.0000      -0.633777       -17.2459
  94   2.0000      -0.633136       -17.2285
  95   2.0000      -0.626095       -17.0369
  96   2.0000      -0.619212       -16.8496
  97   2.0000      -0.612111       -16.6564
  98   2.0000      -0.596982       -16.2447
  99   2.0000      -0.595446       -16.2029
 100   2.0000      -0.594050       -16.1649
 101   2.0000      -0.588567       -16.0157
 102   2.0000      -0.587905       -15.9977
 103   2.0000      -0.581785       -15.8312
 104   2.0000      -0.566926       -15.4268
 105   2.0000      -0.566448       -15.4138
 106   2.0000      -0.561453       -15.2779
 107   2.0000      -0.556884       -15.1536
 108   2.0000      -0.555015       -15.1027
 109   2.0000      -0.550462       -14.9788
 110   2.0000      -0.547920       -14.9097
 111   2.0000      -0.546235       -14.8638
 112   2.0000      -0.544561       -14.8183
 113   2.0000      -0.541715       -14.7408
 114   2.0000      -0.539937       -14.6924
 115   2.0000      -0.539196       -14.6723
 116   2.0000      -0.534557       -14.5460
 117   2.0000      -0.534081       -14.5331
 118   2.0000      -0.522052       -14.2058
 119   2.0000      -0.521487       -14.1904
 120   2.0000      -0.516330       -14.0500
 121   2.0000      -0.514154       -13.9908
 122   2.0000      -0.501422       -13.6444
 123   2.0000      -0.498858       -13.5746
 124   2.0000      -0.497605       -13.5405
 125   2.0000      -0.496152       -13.5010
 126   2.0000      -0.493371       -13.4253
 127   2.0000      -0.488466       -13.2918
 128   2.0000      -0.483350       -13.1526
 129   2.0000      -0.480599       -13.0778
 130   2.0000      -0.470188       -12.7945
 131   2.0000      -0.468826       -12.7574
 132   2.0000      -0.464790       -12.6476
 133   2.0000      -0.458703       -12.4819
 134   2.0000      -0.458540       -12.4775
 135   2.0000      -0.452746       -12.3198
 136   2.0000      -0.446021       -12.1369
 137   2.0000      -0.445047       -12.1103
 138   2.0000      -0.443176       -12.0594
 139   2.0000      -0.439300       -11.9540
 140   2.0000      -0.438596       -11.9348
 141   2.0000      -0.430797       -11.7226
 142   2.0000      -0.425337       -11.5740
 143   2.0000      -0.423462       -11.5230
 144   2.0000      -0.422374       -11.4934
 145   2.0000      -0.421811       -11.4781
 146   2.0000      -0.376058       -10.2331
 147   2.0000      -0.368684       -10.0324
 148   2.0000      -0.355340        -9.6693
 149   2.0000      -0.337232        -9.1765
 150   2.0000      -0.327327        -8.9070
 151   2.0000      -0.325337        -8.8529
 152   2.0000      -0.324990        -8.8434
 153   2.0000      -0.321937        -8.7604
 154   2.0000      -0.321770        -8.7558
 155   2.0000      -0.312641        -8.5074
 156   2.0000      -0.308168        -8.3857
 157   2.0000      -0.287750        -7.8301
 158   2.0000      -0.282759        -7.6943
 159   2.0000      -0.271034        -7.3752
 160   2.0000      -0.232523        -6.3273
 161   0.0000       0.004505         0.1226
 162   0.0000       0.011966         0.3256
 163   0.0000       0.016250         0.4422
 164   0.0000       0.038431         1.0458
 165   0.0000       0.048149         1.3102

MULLIKEN ATOMIC CHARGES
-----------------------
   0 C :   -0.270331
   1 C :   -0.263746
   2 C :    0.058314
   3 C :    0.276877
   4 C :   -0.427754
   5 C :    0.242371
   6 C :    0.271874
   7 C :    0.059332
   8 C :   -0.260148
   9 H :    0.185019
  10 C :   -0.274885
  11 C :    0.237045
  12 C :   -0.425970
  13 H :    0.185149
  14 H :    0.159603
  15 H :    0.171672
  16 N :    0.087598
  17 C :    0.146503
  18 C :    0.068812
  19 C :   -0.217238
  20 C :   -0.376645
  21 C :    0.126299
  22 C :   -0.114777
  23 H :    0.171122
  24 C :   -0.109030
  25 H :    0.178226
  26 C :   -0.228236
  27 C :   -0.300625
  28 H :    0.173416
  29 C :   -0.172130
  30 H :    0.173406
  31 H :    0.174311
  32 H :    0.173466
  33 H :    0.172872
  34 H :    0.161123
  35 H :    0.170009
  36 C :    0.126330
  37 C :   -0.241539
  38 C :   -0.253077
  39 C :   -0.255281
  40 H :    0.168909
  41 C :   -0.249972
  42 H :    0.168850
  43 C :    0.237553
  44 H :    0.169576
  45 H :    0.169978
  46 C :    0.103858
  47 C :   -0.263146
  48 C :   -0.266028
  49 C :   -0.179058
  50 H :    0.171366
  51 C :   -0.176307
  52 H :    0.172200
  53 C :   -0.160527
  54 H :    0.169891
  55 H :    0.169111
  56 H :    0.171656
  57 C :    0.137089
  58 C :   -0.250663
  59 C :   -0.251830
  60 C :   -0.252119
  61 H :    0.169905
  62 C :   -0.251652
  63 H :    0.168157
  64 C :    0.233793
  65 H :    0.170141
  66 H :    0.171271
  67 C :    0.105991
  68 C :   -0.264718
  69 C :   -0.266881
  70 C :   -0.177937
  71 H :    0.172283
  72 C :   -0.176743
  73 H :    0.171792
  74 C :   -0.162001
  75 H :    0.169663
  76 H :    0.169674
  77 H :    0.172145
  78 O :   -0.294607
Sum of atomic charges:    0.0000000

LOEWDIN ATOMIC CHARGES
----------------------
   0 C :   -0.111686
   1 C :   -0.117881
   2 C :   -0.142453
   3 C :   -0.192696
   4 C :   -0.074422
   5 C :   -0.124584
   6 C :   -0.192590
   7 C :   -0.142392
   8 C :   -0.117713
   9 H :    0.166247
  10 C :   -0.112106
  11 C :   -0.124757
  12 C :   -0.074526
  13 H :    0.166189
  14 H :    0.165690
  15 H :    0.160655
  16 N :    0.278295
  17 C :   -0.139155
  18 C :   -0.071881
  19 C :   -0.090576
  20 C :   -0.101687
  21 C :   -0.100585
  22 C :   -0.140189
  23 H :    0.165056
  24 C :   -0.139534
  25 H :    0.163218
  26 C :   -0.102863
  27 C :   -0.094930
  28 H :    0.157422
  29 C :   -0.144554
  30 H :    0.156224
  31 H :    0.160286
  32 H :    0.161468
  33 H :    0.155622
  34 H :    0.165846
  35 H :    0.160611
  36 C :   -0.113197
  37 C :   -0.106088
  38 C :   -0.105420
  39 C :   -0.104967
  40 H :    0.159499
  41 C :   -0.105205
  42 H :    0.159518
  43 C :   -0.114631
  44 H :    0.159889
  45 H :    0.159871
  46 C :   -0.114584
  47 C :   -0.108020
  48 C :   -0.108138
  49 C :   -0.149285
  50 H :    0.158462
  51 C :   -0.149201
  52 H :    0.158513
  53 C :   -0.151273
  54 H :    0.154496
  55 H :    0.154478
  56 H :    0.153076
  57 C :   -0.113192
  58 C :   -0.106045
  59 C :   -0.105648
  60 C :   -0.104907
  61 H :    0.159552
  62 C :   -0.105045
  63 H :    0.159399
  64 C :   -0.114454
  65 H :    0.159906
  66 H :    0.159914
  67 C :   -0.114628
  68 C :   -0.108115
  69 C :   -0.108133
  70 C :   -0.149236
  71 H :    0.158535
  72 C :   -0.149305
  73 H :    0.158569
  74 C :   -0.151466
  75 H :    0.154539
  76 H :    0.154543
  77 H :    0.153126
  78 O :    0.295230

  Mayer bond orders larger than 0.100000
B(  0-C ,  1-C ) :   1.4196 B(  0-C ,  5-C ) :   1.3762 B(  0-C , 35-H ) :   0.9714
B(  1-C ,  2-C ) :   1.3906 B(  1-C , 13-H ) :   0.9698 B(  2-C ,  3-C ) :   1.3601
B(  2-C , 16-N ) :   1.0884 B(  3-C ,  4-C ) :   1.4658 B(  3-C , 78-O ) :   1.0176
B(  4-C ,  5-C ) :   1.3188 B(  4-C , 14-H ) :   0.9874 B(  5-C , 36-C ) :   0.9157
B(  6-C ,  7-C ) :   1.3639 B(  6-C , 12-C ) :   1.4617 B(  6-C , 78-O ) :   1.0190
B(  7-C ,  8-C ) :   1.3899 B(  7-C , 16-N ) :   1.0868 B(  8-C ,  9-H ) :   0.9690
B(  8-C , 10-C ) :   1.4223 B( 10-C , 11-C ) :   1.3773 B( 10-C , 15-H ) :   0.9691
B( 11-C , 12-C ) :   1.3195 B( 11-C , 57-C ) :   0.9153 B( 12-C , 34-H ) :   0.9889
B( 16-N , 17-C ) :   0.7331 B( 17-C , 18-C ) :   1.1876 B( 17-C , 19-C ) :   1.6644
B( 17-C , 20-C ) :  -0.1177 B( 17-C , 21-C ) :  -0.1225 B( 18-C , 20-C ) :   1.2806
B( 18-C , 21-C ) :   1.2949 B( 19-C , 22-C ) :   1.2397 B( 19-C , 23-H ) :   0.9830
B( 20-C , 24-C ) :   1.5627 B( 20-C , 25-H ) :   0.9799 B( 21-C , 26-C ) :   1.2557
B( 21-C , 27-C ) :   1.2293 B( 22-C , 27-C ) :   1.5031 B( 22-C , 28-H ) :   0.9852
B( 24-C , 29-C ) :   1.2364 B( 24-C , 30-H ) :   0.9788 B( 26-C , 29-C ) :   1.5350
B( 26-C , 31-H ) :   0.9843 B( 27-C , 32-H ) :   0.9923 B( 29-C , 33-H ) :   0.9797
B( 36-C , 37-C ) :   1.3653 B( 36-C , 38-C ) :   1.3707 B( 37-C , 39-C ) :   1.4666
B( 37-C , 40-H ) :   0.9713 B( 38-C , 41-C ) :   1.4689 B( 38-C , 42-H ) :   0.9726
B( 39-C , 43-C ) :   1.3638 B( 39-C , 44-H ) :   0.9738 B( 41-C , 43-C ) :   1.3586
B( 41-C , 45-H ) :   0.9726 B( 43-C , 46-C ) :   0.8983 B( 46-C , 47-C ) :   1.3830
B( 46-C , 48-C ) :   1.3849 B( 47-C , 49-C ) :   1.4594 B( 47-C , 50-H ) :   0.9679
B( 48-C , 51-C ) :   1.4581 B( 48-C , 52-H ) :   0.9669 B( 49-C , 53-C ) :   1.4049
B( 49-C , 54-H ) :   0.9760 B( 51-C , 53-C ) :   1.4028 B( 51-C , 55-H ) :   0.9774
B( 53-C , 56-H ) :   0.9737 B( 57-C , 58-C ) :   1.3632 B( 57-C , 59-C ) :   1.3646
B( 58-C , 60-C ) :   1.4686 B( 58-C , 61-H ) :   0.9713 B( 59-C , 62-C ) :   1.4715
B( 59-C , 63-H ) :   0.9727 B( 60-C , 64-C ) :   1.3636 B( 60-C , 65-H ) :   0.9732
B( 62-C , 64-C ) :   1.3613 B( 62-C , 66-H ) :   0.9712 B( 64-C , 67-C ) :   0.8993
B( 67-C , 68-C ) :   1.3852 B( 67-C , 69-C ) :   1.3833 B( 68-C , 70-C ) :   1.4585
B( 68-C , 71-H ) :   0.9667 B( 69-C , 72-C ) :   1.4575 B( 69-C , 73-H ) :   0.9684
B( 70-C , 74-C ) :   1.4033 B( 70-C , 75-H ) :   0.9770 B( 72-C , 74-C ) :   1.4041
B( 72-C , 76-H ) :   0.9766 B( 74-C , 77-H ) :   0.9736

MP2 TOTAL ENERGY:    -1899.719304174 Eh

-----------------------------------------------------------------------------
         ABSORPTION SPECTRUM VIA TRANSITION ELECTRIC DIPOLE MOMENTS
-----------------------------------------------------------------------------
State   Energy    Wavelength  fosc         T2        TX        TY        TZ
        (cm-1)      (nm)                 (au**2)    (au)      (au)      (au)
-----------------------------------------------------------------------------
   1   26149.8    382.4   1.162197066  14.63141   3.82498  -0.02309   0.02107
   2   32011.9    312.4   0.855504871   8.79804  -0.00607  -2.95674   0.23600
   3   27757.1    360.3   0.002857701   0.03389   0.12682   0.13327  -0.00691
   4   30769.1    325.0   0.377281772   4.03670  -2.00846  -0.02914  -0.04417
   5   36448.9    274.4   0.023040938   0.20811   0.00093  -0.45617   0.00415
   6   32822.7    304.7   0.102259782   1.02567   0.07600  -1.00257   0.12147
   7   35780.1    279.5   0.642303010   5.90981  -2.43091  -0.02223   0.00245
   8   33604.6    297.6   0.000739082   0.00724   0.04275  -0.01730  -0.07151
   9   35670.0    280.3   0.003713187   0.03427   0.00481   0.17463  -0.06124
  10   35510.8    281.6   0.004509034   0.04180  -0.20290   0.00136  -0.02510
  11   38293.1    261.1   0.003538894   0.03042   0.00193  -0.04135  -0.16944
  12   37829.7    264.3   0.000119186   0.00104   0.00196  -0.00127   0.03212
  13   38208.8    261.7   0.000570657   0.00492   0.00109   0.06163  -0.03343
  14   36028.8    277.6   0.000083483   0.00076   0.02593   0.00595  -0.00741
  15   41003.6    243.9   0.402875144   3.23463  -1.79547  -0.01231  -0.10376
  16   41564.7    240.6   0.006331349   0.05015   0.10973  -0.04784   0.18926
  17   44597.4    224.2   1.285265868   9.48765   0.11920   0.87299   2.95150
  18   41329.9    242.0   0.152046263   1.21112  -1.03745   0.06808   0.36082
  19   42897.5    233.1   0.021401550   0.16424   0.05310  -0.40095  -0.02581
  20   43514.7    229.8   0.019641026   0.14859  -0.21230   0.08359   0.31070
  21   45591.8    219.3   0.454172074   3.27951  -1.81020   0.03114   0.04149
  22   45820.4    218.2   0.084908211   0.61005   0.01995  -0.77910  -0.05151
  23   46648.3    214.4   0.155223923   1.09546   0.08231   1.04134   0.06560
  24   45466.5    219.9   0.217121022   1.57212  -0.54790   0.53492  -0.99287
  25   44540.3    224.5   0.047831831   0.35354   0.12202   0.53086  -0.23842
  26   46655.2    214.3   0.497555832   3.51089  -1.09346   1.47125   0.38815
  27   46990.8    212.8   0.656600411   4.60007  -1.29889  -1.46164   0.88122
  28   44580.1    224.3   0.059361618   0.43837   0.29144  -0.52663   0.27585
  29   46331.5    215.8   0.552160785   3.92342  -0.22267   1.95439   0.23281
  30   46825.0    213.6   0.373507268   2.62601   0.66295   0.46463  -1.40379

FINAL SINGLE POINT ENERGY     -1896.785910537787

DIPOLE MOMENT
-------------
                                X             Y             Z
Electronic contribution:      0.01966       7.10499      -2.91370
Nuclear contribution   :     -0.02043      -5.63200       2.82928
                        -----------------------------------------
Total Dipole Moment    :     -0.00077       1.47299      -0.08441
                        -----------------------------------------
Magnitude (a.u.)       :      1.47540
Magnitude (Debye)      :      3.75018

Rotational constants in cm-1:     0.002297     0.000767     0.000599
Rotational constants in MHz :    68.851724    22.987264    17.972395

                             ****ORCA TERMINATED NORMALLY****
TOTAL RUN TIME: 4 days 9 hours 36 minutes 31 seconds 939 msec
