                         Program Version 5.0.2 -  RELEASE  -
|  1> %maxcore 20000
|  2> %pal
|  3>  nprocs= 4
|  4> end
|  5> ! RI-wPBEPP86   def2-TZVP def2/J def2-TZVP/C RIJCOSX CPCM TightSCF
|  6> %TDDFT
|  7>    NROOTS   30
|  8>    dcorr 1
|  9>    TDA      FALSE
| 10> END
| 11>
| 12> %CPCM
| 13>    SMD          TRUE
| 14>    SMDsolvent   "N,N-DIMETHYLACETAMIDE"
| 15> END
| 16>
| 17>
| 18> * xyz 0 1
| 19> C                   3.61765600    1.45129200   -0.41710800
| 20> C                   2.44517500    2.18143900   -0.52558900
| 21> C                   1.20333900    1.55532600   -0.48552500
| 22> C                   1.18228700    0.16538700   -0.32119200
| 23> C                   2.34675200   -0.55878600   -0.21041400
| 24> C                   3.60126000    0.06610900   -0.25821900
| 25> C                  -1.17577200    0.16028500   -0.34751100
| 26> C                  -1.19916600    1.55107000   -0.50445000
| 27> C                  -2.44211400    2.17400900   -0.55758300
| 28> H                  -2.48898600    3.24685300   -0.69037300
| 29> C                  -3.61362200    1.44116500   -0.45677800
| 30> C                  -3.59444600    0.05559400   -0.30227300
| 31> C                  -2.33941600   -0.56755200   -0.25157400
| 32> H                   2.49034800    3.25650000   -0.63969400
| 33> H                   2.26194200   -1.63305300   -0.10958300
| 34> H                  -4.55793100    1.96513400   -0.52506800
| 35> N                   0.00174200    2.24955900   -0.59693700
| 36> C                   0.00056200    3.66933500   -0.75726300
| 37> C                  -0.01257000    4.49792300    0.39277600
| 38> C                   0.01230200    4.20580600   -2.01807600
| 39> C                  -0.02431100    3.98392000    1.70735200
| 40> C                  -0.01360100    5.91252700    0.20200000
| 41> C                   0.01123100    5.59906000   -2.19624600
| 42> H                   0.02223200    3.54255500   -2.87410700
| 43> C                  -0.03664200    4.82859300    2.78568100
| 44> H                  -0.02340800    2.91104100    1.85507100
| 45> C                  -0.02656500    6.75075800    1.33821000
| 46> C                  -0.00154100    6.43210700   -1.11033800
| 47> H                   0.02049300    6.00674200   -3.19874000
| 48> C                  -0.03783300    6.22286100    2.60113500
| 49> H                  -0.04550000    4.42197900    3.78909000
| 50> H                  -0.02731400    7.82390600    1.18779900
| 51> H                  -0.00254300    7.50773000   -1.24113500
| 52> H                  -0.04762900    6.87718600    3.46363800
| 53> H                  -2.25341000   -1.63725400   -0.11096500
| 54> H                   4.55950900    1.98342300   -0.43475900
| 55> C                   4.84078100   -0.71276500   -0.14102100
| 56> C                   4.86923200   -1.95495900    0.50335400
| 57> C                   6.04922900   -0.24468200   -0.67036200
| 58> C                   6.03685000   -2.68544600    0.61210500
| 59> H                   3.96230800   -2.35379600    0.94081200
| 60> C                   7.21561100   -0.97650100   -0.56340900
| 61> H                   6.07437000    0.70556800   -1.18913500
| 62> C                   7.24251000   -2.21808800    0.08007100
| 63> H                   6.00838000   -3.64756400    1.10890300
| 64> H                   8.12914900   -0.56883700   -0.97882500
| 65> C                   8.48500700   -2.99905500    0.18939000
| 66> C                   8.69575200   -3.87865400    1.25699800
| 67> C                   9.49513700   -2.88708900   -0.77242100
| 68> C                   9.86576100   -4.61291700    1.35865300
| 69> H                   7.94181600   -3.97236900    2.02898800
| 70> C                  10.66473600   -3.62185200   -0.67084500
| 71> H                   9.35319700   -2.23121800   -1.62254300
| 72> C                  10.85740600   -4.48917500    0.39541600
| 73> H                  10.00665100   -5.28064900    2.19971700
| 74> H                  11.42706600   -3.52191500   -1.43373300
| 75> H                  11.77175500   -5.06351900    0.47480300
| 76> C                  -4.83306400   -0.72638000   -0.19976900
| 77> C                  -4.88328100   -2.07478100   -0.57130100
| 78> C                  -6.01848200   -0.15322100    0.27511300
| 79> C                  -6.05175900   -2.80607500   -0.47613000
| 80> H                  -3.99412900   -2.55906400   -0.95592400
| 81> C                  -7.18513600   -0.88568100    0.37337600
| 82> H                  -6.02355900    0.88365100    0.58764600
| 83> C                  -7.23473800   -2.23287900    0.00039400
| 84> H                  -6.04192000   -3.85004800   -0.76476200
| 85> H                  -8.08117500   -0.39762400    0.73700900
| 86> C                  -8.47747600   -3.01352100    0.10930100
| 87> C                  -8.73236700   -4.09330900   -0.74326900
| 88> C                  -9.44350500   -2.70019400    1.07186600
| 89> C                  -9.90257400   -4.82687200   -0.63782200
| 90> H                  -8.01349600   -4.34802500   -1.51238900
| 91> C                 -10.61287300   -3.43453800    1.17790300
| 92> H                  -9.26604400   -1.88310400    1.76027200
| 93> C                 -10.84975200   -4.50232700    0.32350500
| 94> H                 -10.07880000   -5.65279100   -1.31598500
| 95> H                 -11.34011200   -3.17583000    1.93767700
| 96> H                 -11.76406500   -5.07633400    0.40567900
| 97> O                   0.00409900   -0.53872400   -0.27868500
| 98> *
| 99>
|100>
|101>                          ****END OF INPUT****

CARTESIAN COORDINATES (ANGSTROEM)
---------------------------------
  C      3.617656    1.451292   -0.417108
  C      2.445175    2.181439   -0.525589
  C      1.203339    1.555326   -0.485525
  C      1.182287    0.165387   -0.321192
  C      2.346752   -0.558786   -0.210414
  C      3.601260    0.066109   -0.258219
  C     -1.175772    0.160285   -0.347511
  C     -1.199166    1.551070   -0.504450
  C     -2.442114    2.174009   -0.557583
  H     -2.488986    3.246853   -0.690373
  C     -3.613622    1.441165   -0.456778
  C     -3.594446    0.055594   -0.302273
  C     -2.339416   -0.567552   -0.251574
  H      2.490348    3.256500   -0.639694
  H      2.261942   -1.633053   -0.109583
  H     -4.557931    1.965134   -0.525068
  N      0.001742    2.249559   -0.596937
  C      0.000562    3.669335   -0.757263
  C     -0.012570    4.497923    0.392776
  C      0.012302    4.205806   -2.018076
  C     -0.024311    3.983920    1.707352
  C     -0.013601    5.912527    0.202000
  C      0.011231    5.599060   -2.196246
  H      0.022232    3.542555   -2.874107
  C     -0.036642    4.828593    2.785681
  H     -0.023408    2.911041    1.855071
  C     -0.026565    6.750758    1.338210
  C     -0.001541    6.432107   -1.110338
  H      0.020493    6.006742   -3.198740
  C     -0.037833    6.222861    2.601135
  H     -0.045500    4.421979    3.789090
  H     -0.027314    7.823906    1.187799
  H     -0.002543    7.507730   -1.241135
  H     -0.047629    6.877186    3.463638
  H     -2.253410   -1.637254   -0.110965
  H      4.559509    1.983423   -0.434759
  C      4.840781   -0.712765   -0.141021
  C      4.869232   -1.954959    0.503354
  C      6.049229   -0.244682   -0.670362
  C      6.036850   -2.685446    0.612105
  H      3.962308   -2.353796    0.940812
  C      7.215611   -0.976501   -0.563409
  H      6.074370    0.705568   -1.189135
  C      7.242510   -2.218088    0.080071
  H      6.008380   -3.647564    1.108903
  H      8.129149   -0.568837   -0.978825
  C      8.485007   -2.999055    0.189390
  C      8.695752   -3.878654    1.256998
  C      9.495137   -2.887089   -0.772421
  C      9.865761   -4.612917    1.358653
  H      7.941816   -3.972369    2.028988
  C     10.664736   -3.621852   -0.670845
  H      9.353197   -2.231218   -1.622543
  C     10.857406   -4.489175    0.395416
  H     10.006651   -5.280649    2.199717
  H     11.427066   -3.521915   -1.433733
  H     11.771755   -5.063519    0.474803
  C     -4.833064   -0.726380   -0.199769
  C     -4.883281   -2.074781   -0.571301
  C     -6.018482   -0.153221    0.275113
  C     -6.051759   -2.806075   -0.476130
  H     -3.994129   -2.559064   -0.955924
  C     -7.185136   -0.885681    0.373376
  H     -6.023559    0.883651    0.587646
  C     -7.234738   -2.232879    0.000394
  H     -6.041920   -3.850048   -0.764762
  H     -8.081175   -0.397624    0.737009
  C     -8.477476   -3.013521    0.109301
  C     -8.732367   -4.093309   -0.743269
  C     -9.443505   -2.700194    1.071866
  C     -9.902574   -4.826872   -0.637822
  H     -8.013496   -4.348025   -1.512389
  C    -10.612873   -3.434538    1.177903
  H     -9.266044   -1.883104    1.760272
  C    -10.849752   -4.502327    0.323505
  H    -10.078800   -5.652791   -1.315985
  H    -11.340112   -3.175830    1.937677
  H    -11.764065   -5.076334    0.405679
  O      0.004099   -0.538724   -0.278685

 Total Charge           Charge          ....    0
 Multiplicity           Mult            ....    1
 Number of Electrons    NEL             ....  322
 Basis Dimension        Dim             .... 1674

ORBITAL ENERGIES
----------------

  NO   OCC          E(Eh)            E(eV)
   0   2.0000     -20.109973      -547.2202
   1   2.0000     -15.173247      -412.8850
   2   2.0000     -10.939319      -297.6740
   3   2.0000     -10.939222      -297.6714
   4   2.0000     -10.925467      -297.2971
   5   2.0000     -10.925438      -297.2963
   6   2.0000     -10.914431      -296.9968
   7   2.0000     -10.885689      -296.2147
   8   2.0000     -10.883750      -296.1619
   9   2.0000     -10.882431      -296.1260
  10   2.0000     -10.882400      -296.1251
  11   2.0000     -10.881479      -296.1001
  12   2.0000     -10.881385      -296.0975
  13   2.0000     -10.880422      -296.0713
  14   2.0000     -10.880393      -296.0705
  15   2.0000     -10.880321      -296.0686
  16   2.0000     -10.880235      -296.0662
  17   2.0000     -10.874975      -295.9231
  18   2.0000     -10.873667      -295.8875
  19   2.0000     -10.870990      -295.8147
  20   2.0000     -10.870976      -295.8143
  21   2.0000     -10.870840      -295.8106
  22   2.0000     -10.870801      -295.8095
  23   2.0000     -10.870717      -295.8073
  24   2.0000     -10.869982      -295.7872
  25   2.0000     -10.869898      -295.7850
  26   2.0000     -10.869820      -295.7828
  27   2.0000     -10.868389      -295.7439
  28   2.0000     -10.867798      -295.7278
  29   2.0000     -10.867693      -295.7249
  30   2.0000     -10.867664      -295.7242
  31   2.0000     -10.867542      -295.7209
  32   2.0000     -10.867528      -295.7205
  33   2.0000     -10.867427      -295.7177
  34   2.0000     -10.866529      -295.6933
  35   2.0000     -10.866508      -295.6927
  36   2.0000     -10.866411      -295.6901
  37   2.0000     -10.866398      -295.6897
  38   2.0000     -10.866384      -295.6893
  39   2.0000     -10.866376      -295.6891
  40   2.0000     -10.866330      -295.6879
  41   2.0000     -10.866241      -295.6855
  42   2.0000     -10.865604      -295.6681
  43   2.0000     -10.865499      -295.6653
  44   2.0000     -10.865304      -295.6600
  45   2.0000     -10.865205      -295.6573
  46   2.0000     -10.864227      -295.6306
  47   2.0000     -10.864105      -295.6273
  48   2.0000      -1.364818       -37.1386
  49   2.0000      -1.232860       -33.5478
  50   2.0000      -1.122635       -30.5485
  51   2.0000      -1.121319       -30.5126
  52   2.0000      -1.115321       -30.3494
  53   2.0000      -1.108633       -30.1674
  54   2.0000      -1.096395       -29.8344
  55   2.0000      -1.085955       -29.5503
  56   2.0000      -1.074867       -29.2486
  57   2.0000      -1.058185       -28.7947
  58   2.0000      -1.023372       -27.8474
  59   2.0000      -1.013724       -27.5848
  60   2.0000      -0.999337       -27.1933
  61   2.0000      -0.993120       -27.0242
  62   2.0000      -0.979163       -26.6444
  63   2.0000      -0.970458       -26.4075
  64   2.0000      -0.969095       -26.3704
  65   2.0000      -0.964324       -26.2406
  66   2.0000      -0.962357       -26.1871
  67   2.0000      -0.959433       -26.1075
  68   2.0000      -0.959259       -26.1028
  69   2.0000      -0.949821       -25.8460
  70   2.0000      -0.936859       -25.4932
  71   2.0000      -0.927519       -25.2391
  72   2.0000      -0.901995       -24.5445
  73   2.0000      -0.851791       -23.1784
  74   2.0000      -0.849677       -23.1209
  75   2.0000      -0.821026       -22.3412
  76   2.0000      -0.815778       -22.1984
  77   2.0000      -0.815045       -22.1785
  78   2.0000      -0.809358       -22.0237
  79   2.0000      -0.804745       -21.8982
  80   2.0000      -0.804548       -21.8929
  81   2.0000      -0.788393       -21.4533
  82   2.0000      -0.776409       -21.1272
  83   2.0000      -0.765272       -20.8241
  84   2.0000      -0.765205       -20.8223
  85   2.0000      -0.763247       -20.7690
  86   2.0000      -0.759264       -20.6606
  87   2.0000      -0.738971       -20.1084
  88   2.0000      -0.731877       -19.9154
  89   2.0000      -0.702485       -19.1156
  90   2.0000      -0.695149       -18.9160
  91   2.0000      -0.694278       -18.8923
  92   2.0000      -0.685701       -18.6589
  93   2.0000      -0.669510       -18.2183
  94   2.0000      -0.669373       -18.2146
  95   2.0000      -0.662265       -18.0212
  96   2.0000      -0.655475       -17.8364
  97   2.0000      -0.647862       -17.6292
  98   2.0000      -0.633201       -17.2303
  99   2.0000      -0.630983       -17.1699
 100   2.0000      -0.630626       -17.1602
 101   2.0000      -0.623785       -16.9740
 102   2.0000      -0.623207       -16.9583
 103   2.0000      -0.617508       -16.8032
 104   2.0000      -0.602397       -16.3921
 105   2.0000      -0.601929       -16.3793
 106   2.0000      -0.596617       -16.2348
 107   2.0000      -0.591741       -16.1021
 108   2.0000      -0.589880       -16.0515
 109   2.0000      -0.585472       -15.9315
 110   2.0000      -0.582924       -15.8622
 111   2.0000      -0.580943       -15.8083
 112   2.0000      -0.579134       -15.7590
 113   2.0000      -0.576175       -15.6785
 114   2.0000      -0.574725       -15.6391
 115   2.0000      -0.574310       -15.6278
 116   2.0000      -0.569179       -15.4881
 117   2.0000      -0.568730       -15.4759
 118   2.0000      -0.556361       -15.1393
 119   2.0000      -0.555812       -15.1244
 120   2.0000      -0.551068       -14.9953
 121   2.0000      -0.548182       -14.9168
 122   2.0000      -0.537404       -14.6235
 123   2.0000      -0.534790       -14.5524
 124   2.0000      -0.532227       -14.4826
 125   2.0000      -0.530568       -14.4375
 126   2.0000      -0.528926       -14.3928
 127   2.0000      -0.523529       -14.2459
 128   2.0000      -0.517167       -14.0728
 129   2.0000      -0.516509       -14.0549
 130   2.0000      -0.504084       -13.7168
 131   2.0000      -0.503203       -13.6928
 132   2.0000      -0.499751       -13.5989
 133   2.0000      -0.494336       -13.4516
 134   2.0000      -0.492262       -13.3951
 135   2.0000      -0.486446       -13.2369
 136   2.0000      -0.479435       -13.0461
 137   2.0000      -0.478282       -13.0147
 138   2.0000      -0.476660       -12.9706
 139   2.0000      -0.472773       -12.8648
 140   2.0000      -0.472175       -12.8485
 141   2.0000      -0.463937       -12.6244
 142   2.0000      -0.459754       -12.5105
 143   2.0000      -0.457589       -12.4516
 144   2.0000      -0.455344       -12.3905
 145   2.0000      -0.455190       -12.3863
 146   2.0000      -0.409148       -11.1335
 147   2.0000      -0.401337       -10.9209
 148   2.0000      -0.387858       -10.5542
 149   2.0000      -0.369136       -10.0447
 150   2.0000      -0.358658        -9.7596
 151   2.0000      -0.356621        -9.7042
 152   2.0000      -0.356262        -9.6944
 153   2.0000      -0.353041        -9.6067
 154   2.0000      -0.352878        -9.6023
 155   2.0000      -0.342386        -9.3168
 156   2.0000      -0.339058        -9.2262
 157   2.0000      -0.318077        -8.6553
 158   2.0000      -0.312197        -8.4953
 159   2.0000      -0.300030        -8.1642
 160   2.0000      -0.261379        -7.1125
 161   0.0000       0.022555         0.6137
 162   0.0000       0.030851         0.8395
 163   0.0000       0.034649         0.9429
 164   0.0000       0.056806         1.5458
 165   0.0000       0.066809         1.8180

MULLIKEN ATOMIC CHARGES
-----------------------
   0 C :   -0.269943
   1 C :   -0.272266
   2 C :    0.057478
   3 C :    0.250886
   4 C :   -0.395541
   5 C :    0.207066
   6 C :    0.247057
   7 C :    0.058571
   8 C :   -0.268636
   9 H :    0.205067
  10 C :   -0.275276
  11 C :    0.201003
  12 C :   -0.394081
  13 H :    0.205334
  14 H :    0.182549
  15 H :    0.189010
  16 N :    0.042477
  17 C :    0.062600
  18 C :    0.062902
  19 C :   -0.218133
  20 C :   -0.369923
  21 C :    0.109450
  22 C :   -0.126654
  23 H :    0.185497
  24 C :   -0.131298
  25 H :    0.200618
  26 C :   -0.216726
  27 C :   -0.278559
  28 H :    0.187934
  29 C :   -0.190386
  30 H :    0.188013
  31 H :    0.187619
  32 H :    0.187088
  33 H :    0.187133
  34 H :    0.184275
  35 H :    0.187085
  36 C :    0.122063
  37 C :   -0.253557
  38 C :   -0.262746
  39 C :   -0.264831
  40 H :    0.186000
  41 C :   -0.260548
  42 H :    0.186126
  43 C :    0.208142
  44 H :    0.187389
  45 H :    0.187834
  46 C :    0.103411
  47 C :   -0.266747
  48 C :   -0.269455
  49 C :   -0.199860
  50 H :    0.188964
  51 C :   -0.197106
  52 H :    0.189867
  53 C :   -0.174934
  54 H :    0.184950
  55 H :    0.184138
  56 H :    0.186425
  57 C :    0.133163
  58 C :   -0.262658
  59 C :   -0.261887
  60 C :   -0.261816
  61 H :    0.187192
  62 C :   -0.262109
  63 H :    0.185603
  64 C :    0.204399
  65 H :    0.187985
  66 H :    0.189096
  67 C :    0.105692
  68 C :   -0.268287
  69 C :   -0.270364
  70 C :   -0.198840
  71 H :    0.189890
  72 C :   -0.197549
  73 H :    0.189457
  74 C :   -0.176346
  75 H :    0.184661
  76 H :    0.184681
  77 H :    0.186897
  78 O :   -0.303671
Sum of atomic charges:   -0.0000000

LOEWDIN ATOMIC CHARGES
----------------------
   0 C :   -0.113080
   1 C :   -0.119770
   2 C :   -0.143699
   3 C :   -0.193987
   4 C :   -0.075318
   5 C :   -0.125621
   6 C :   -0.193875
   7 C :   -0.143636
   8 C :   -0.119598
   9 H :    0.168764
  10 C :   -0.113506
  11 C :   -0.125826
  12 C :   -0.075423
  13 H :    0.168706
  14 H :    0.168341
  15 H :    0.163241
  16 N :    0.276769
  17 C :   -0.142552
  18 C :   -0.073319
  19 C :   -0.092456
  20 C :   -0.104625
  21 C :   -0.102001
  22 C :   -0.142260
  23 H :    0.167986
  24 C :   -0.141153
  25 H :    0.165558
  26 C :   -0.104639
  27 C :   -0.096476
  28 H :    0.160185
  29 C :   -0.146766
  30 H :    0.159019
  31 H :    0.163022
  32 H :    0.164227
  33 H :    0.158365
  34 H :    0.168515
  35 H :    0.163187
  36 C :   -0.114349
  37 C :   -0.107842
  38 C :   -0.107191
  39 C :   -0.106766
  40 H :    0.162042
  41 C :   -0.107008
  42 H :    0.162057
  43 C :   -0.115869
  44 H :    0.162443
  45 H :    0.162427
  46 C :   -0.116046
  47 C :   -0.110372
  48 C :   -0.110495
  49 C :   -0.151289
  50 H :    0.160902
  51 C :   -0.151203
  52 H :    0.160948
  53 C :   -0.153461
  54 H :    0.157248
  55 H :    0.157230
  56 H :    0.155797
  57 C :   -0.114363
  58 C :   -0.107795
  59 C :   -0.107415
  60 C :   -0.106714
  61 H :    0.162105
  62 C :   -0.106851
  63 H :    0.161941
  64 C :   -0.115688
  65 H :    0.162459
  66 H :    0.162466
  67 C :   -0.116088
  68 C :   -0.110476
  69 C :   -0.110494
  70 C :   -0.151236
  71 H :    0.160977
  72 C :   -0.151302
  73 H :    0.161004
  74 C :   -0.153656
  75 H :    0.157290
  76 H :    0.157295
  77 H :    0.155846
  78 O :    0.295191

  Mayer bond orders larger than 0.100000
B(  0-C ,  1-C ) :   1.4485 B(  0-C ,  5-C ) :   1.3797 B(  0-C , 35-H ) :   0.9547
B(  1-C ,  2-C ) :   1.3772 B(  1-C , 13-H ) :   0.9588 B(  2-C ,  3-C ) :   1.3519
B(  2-C , 16-N ) :   1.0867 B(  3-C ,  4-C ) :   1.5127 B(  3-C , 78-O ) :   1.0145
B(  4-C ,  5-C ) :   1.3418 B(  4-C , 14-H ) :   0.9450 B(  5-C , 36-C ) :   0.9244
B(  6-C ,  7-C ) :   1.3562 B(  6-C , 12-C ) :   1.5068 B(  6-C , 78-O ) :   1.0159
B(  7-C ,  8-C ) :   1.3753 B(  7-C , 16-N ) :   1.0853 B(  8-C ,  9-H ) :   0.9583
B(  8-C , 10-C ) :   1.4525 B( 10-C , 11-C ) :   1.3807 B( 10-C , 15-H ) :   0.9524
B( 11-C , 12-C ) :   1.3431 B( 11-C , 57-C ) :   0.9239 B( 12-C , 34-H ) :   0.9468
B( 16-N , 17-C ) :   0.7365 B( 17-C , 18-C ) :   1.1798 B( 17-C , 19-C ) :   1.6739
B( 17-C , 21-C ) :  -0.1117 B( 18-C , 20-C ) :   1.2590 B( 18-C , 21-C ) :   1.2935
B( 19-C , 22-C ) :   1.2273 B( 19-C , 23-H ) :   0.9789 B( 20-C , 24-C ) :   1.5715
B( 20-C , 25-H ) :   0.9670 B( 21-C , 26-C ) :   1.2553 B( 21-C , 27-C ) :   1.2314
B( 22-C , 27-C ) :   1.5115 B( 22-C , 28-H ) :   0.9817 B( 24-C , 29-C ) :   1.2327
B( 24-C , 30-H ) :   0.9754 B( 26-C , 29-C ) :   1.5383 B( 26-C , 31-H ) :   0.9717
B( 27-C , 32-H ) :   0.9760 B( 29-C , 33-H ) :   0.9773 B( 36-C , 37-C ) :   1.3648
B( 36-C , 38-C ) :   1.3697 B( 37-C , 39-C ) :   1.4840 B( 37-C , 40-H ) :   0.9596
B( 38-C , 41-C ) :   1.4859 B( 38-C , 42-H ) :   0.9606 B( 39-C , 43-C ) :   1.3657
B( 39-C , 44-H ) :   0.9613 B( 41-C , 43-C ) :   1.3606 B( 41-C , 45-H ) :   0.9603
B( 43-C , 46-C ) :   0.9097 B( 46-C , 47-C ) :   1.3770 B( 46-C , 48-C ) :   1.3789
B( 47-C , 49-C ) :   1.4591 B( 47-C , 50-H ) :   0.9591 B( 48-C , 51-C ) :   1.4579
B( 48-C , 52-H ) :   0.9580 B( 49-C , 53-C ) :   1.4015 B( 49-C , 54-H ) :   0.9730
B( 51-C , 53-C ) :   1.3992 B( 51-C , 55-H ) :   0.9745 B( 53-C , 56-H ) :   0.9715
B( 57-C , 58-C ) :   1.3620 B( 57-C , 59-C ) :   1.3638 B( 58-C , 60-C ) :   1.4862
B( 58-C , 61-H ) :   0.9596 B( 59-C , 62-C ) :   1.4888 B( 59-C , 63-H ) :   0.9607
B( 60-C , 64-C ) :   1.3654 B( 60-C , 65-H ) :   0.9608 B( 62-C , 64-C ) :   1.3634
B( 62-C , 66-H ) :   0.9590 B( 64-C , 67-C ) :   0.9104 B( 67-C , 68-C ) :   1.3790
B( 67-C , 69-C ) :   1.3770 B( 68-C , 70-C ) :   1.4583 B( 68-C , 71-H ) :   0.9579
B( 69-C , 72-C ) :   1.4574 B( 69-C , 73-H ) :   0.9595 B( 70-C , 74-C ) :   1.3996
B( 70-C , 75-H ) :   0.9741 B( 72-C , 74-C ) :   1.4004 B( 72-C , 76-H ) :   0.9737
B( 74-C , 77-H ) :   0.9714

MP2 TOTAL ENERGY:    -1900.749126647 Eh

-----------------------------------------------------------------------------
         ABSORPTION SPECTRUM VIA TRANSITION ELECTRIC DIPOLE MOMENTS
-----------------------------------------------------------------------------
State   Energy    Wavelength  fosc         T2        TX        TY        TZ
        (cm-1)      (nm)                 (au**2)    (au)      (au)      (au)
-----------------------------------------------------------------------------
   1   27622.6    362.0   1.196201198  14.25656  -3.77564   0.02509  -0.02098
   2   33820.0    295.7   0.903740418   8.79724   0.01064   2.95672  -0.23441
   3   31235.2    320.2   0.302543390   3.18874  -1.78519  -0.01534  -0.03987
   4   37155.7    269.1   0.029958346   0.26544   0.26109   0.44415   0.00104
   5   29894.5    334.5   0.082312212   0.90646  -0.95114   0.04044  -0.01224
   6   33831.6    295.6   0.087694195   0.85334   0.11743  -0.90859   0.11841
   7   35212.4    284.0   0.000818528   0.00765   0.02163   0.03341   0.07790
   8   37100.6    269.5   0.583573381   5.17833  -2.27549  -0.02143   0.00567
   9   37467.8    266.9   0.001655317   0.01454   0.00964  -0.10886   0.05100
  10   37380.6    267.5   0.006864964   0.06046  -0.24425  -0.00657  -0.02752
  11   40402.2    247.5   0.002802735   0.02284  -0.00160  -0.12900  -0.07871
  12   40065.5    249.6   0.000313904   0.00258  -0.02322  -0.00979  -0.04409
  13   42464.8    235.5   0.006373583   0.04941   0.00011  -0.09738  -0.19982
  14   41290.0    242.2   0.266623307   2.12583   1.45465   0.02180   0.09668
  15   38956.6    256.7   0.150443170   1.27136  -1.12555   0.03261   0.05859
  16   45319.9    220.7   1.353589491   9.83271  -0.06021  -0.93732  -2.99174
  17   43523.8    229.8   0.064544975   0.48821  -0.11712   0.09468  -0.68230
  18   46369.8    215.7   0.077387883   0.54943  -0.65141   0.04614   0.35067
  19   47157.3    212.1   1.100701200   7.68415  -2.77127   0.06426   0.01014
  20   44765.5    223.4   0.081822674   0.60174   0.12114   0.71498  -0.27543
  21   45983.3    217.5   0.039170297   0.28044  -0.28979  -0.23552  -0.37548
  22   49164.1    203.4   0.276676170   1.85267  -0.03428  -1.32825   0.29539
  23   47262.8    211.6   0.122701472   0.85468  -0.67422   0.39061   0.49752
  24   48476.6    206.3   0.716123008   4.86330  -0.12251  -2.09428   0.67992
  25   50611.4    197.6   0.101855078   0.66254   0.01304  -0.81297   0.03810
  26   47226.7    211.7   0.099247710   0.69184  -0.12414   0.81912   0.07401
  27   51105.5    195.7   0.562487140   3.62344   0.04411   1.82899  -0.52564
  28   48569.8    205.9   0.781805398   5.29917   0.98002  -1.41487  -1.52868
  29   51093.1    195.7   1.052774739   6.78342   2.53086  -0.50495   0.35096
  30   48644.0    205.6   0.894220765   6.05189  -1.50307  -1.65395   1.02817

FINAL SINGLE POINT ENERGY     -1896.717307707876

DIPOLE MOMENT
-------------
                                X             Y             Z
Electronic contribution:      0.01990       7.08756      -2.91175
Nuclear contribution   :     -0.02043      -5.63200       2.82928
                        -----------------------------------------
Total Dipole Moment    :     -0.00052       1.45555      -0.08247
                        -----------------------------------------
Magnitude (a.u.)       :      1.45789
Magnitude (Debye)      :      3.70566

Rotational constants in cm-1:     0.002297     0.000767     0.000599
Rotational constants in MHz :    68.851724    22.987264    17.972395

                             ****ORCA TERMINATED NORMALLY****
TOTAL RUN TIME: 1 days 22 hours 33 minutes 6 seconds 33 msec
