                         Program Version 5.0.2 -  RELEASE  -
|  1> %maxcore 20000
|  2> %pal
|  3>  nprocs= 4
|  4> end
|  5> ! RI-B2GP-PLYP   def2-TZVP def2/J def2-TZVP/C RIJCOSX CPCM TightSCF
|  6> %TDDFT
|  7>    NROOTS   30
|  8>    dcorr 4
|  9>    TDA      FALSE
| 10> END
| 11>
| 12> %CPCM
| 13>    SMD          TRUE
| 14>    SMDsolvent   "N,N-DIMETHYLACETAMIDE"
| 15> END
| 16>
| 17>
| 18> * xyz 0 1
| 19> C                   3.61765600    1.45129200   -0.41710800
| 20> C                   2.44517500    2.18143900   -0.52558900
| 21> C                   1.20333900    1.55532600   -0.48552500
| 22> C                   1.18228700    0.16538700   -0.32119200
| 23> C                   2.34675200   -0.55878600   -0.21041400
| 24> C                   3.60126000    0.06610900   -0.25821900
| 25> C                  -1.17577200    0.16028500   -0.34751100
| 26> C                  -1.19916600    1.55107000   -0.50445000
| 27> C                  -2.44211400    2.17400900   -0.55758300
| 28> H                  -2.48898600    3.24685300   -0.69037300
| 29> C                  -3.61362200    1.44116500   -0.45677800
| 30> C                  -3.59444600    0.05559400   -0.30227300
| 31> C                  -2.33941600   -0.56755200   -0.25157400
| 32> H                   2.49034800    3.25650000   -0.63969400
| 33> H                   2.26194200   -1.63305300   -0.10958300
| 34> H                  -4.55793100    1.96513400   -0.52506800
| 35> N                   0.00174200    2.24955900   -0.59693700
| 36> C                   0.00056200    3.66933500   -0.75726300
| 37> C                  -0.01257000    4.49792300    0.39277600
| 38> C                   0.01230200    4.20580600   -2.01807600
| 39> C                  -0.02431100    3.98392000    1.70735200
| 40> C                  -0.01360100    5.91252700    0.20200000
| 41> C                   0.01123100    5.59906000   -2.19624600
| 42> H                   0.02223200    3.54255500   -2.87410700
| 43> C                  -0.03664200    4.82859300    2.78568100
| 44> H                  -0.02340800    2.91104100    1.85507100
| 45> C                  -0.02656500    6.75075800    1.33821000
| 46> C                  -0.00154100    6.43210700   -1.11033800
| 47> H                   0.02049300    6.00674200   -3.19874000
| 48> C                  -0.03783300    6.22286100    2.60113500
| 49> H                  -0.04550000    4.42197900    3.78909000
| 50> H                  -0.02731400    7.82390600    1.18779900
| 51> H                  -0.00254300    7.50773000   -1.24113500
| 52> H                  -0.04762900    6.87718600    3.46363800
| 53> H                  -2.25341000   -1.63725400   -0.11096500
| 54> H                   4.55950900    1.98342300   -0.43475900
| 55> C                   4.84078100   -0.71276500   -0.14102100
| 56> C                   4.86923200   -1.95495900    0.50335400
| 57> C                   6.04922900   -0.24468200   -0.67036200
| 58> C                   6.03685000   -2.68544600    0.61210500
| 59> H                   3.96230800   -2.35379600    0.94081200
| 60> C                   7.21561100   -0.97650100   -0.56340900
| 61> H                   6.07437000    0.70556800   -1.18913500
| 62> C                   7.24251000   -2.21808800    0.08007100
| 63> H                   6.00838000   -3.64756400    1.10890300
| 64> H                   8.12914900   -0.56883700   -0.97882500
| 65> C                   8.48500700   -2.99905500    0.18939000
| 66> C                   8.69575200   -3.87865400    1.25699800
| 67> C                   9.49513700   -2.88708900   -0.77242100
| 68> C                   9.86576100   -4.61291700    1.35865300
| 69> H                   7.94181600   -3.97236900    2.02898800
| 70> C                  10.66473600   -3.62185200   -0.67084500
| 71> H                   9.35319700   -2.23121800   -1.62254300
| 72> C                  10.85740600   -4.48917500    0.39541600
| 73> H                  10.00665100   -5.28064900    2.19971700
| 74> H                  11.42706600   -3.52191500   -1.43373300
| 75> H                  11.77175500   -5.06351900    0.47480300
| 76> C                  -4.83306400   -0.72638000   -0.19976900
| 77> C                  -4.88328100   -2.07478100   -0.57130100
| 78> C                  -6.01848200   -0.15322100    0.27511300
| 79> C                  -6.05175900   -2.80607500   -0.47613000
| 80> H                  -3.99412900   -2.55906400   -0.95592400
| 81> C                  -7.18513600   -0.88568100    0.37337600
| 82> H                  -6.02355900    0.88365100    0.58764600
| 83> C                  -7.23473800   -2.23287900    0.00039400
| 84> H                  -6.04192000   -3.85004800   -0.76476200
| 85> H                  -8.08117500   -0.39762400    0.73700900
| 86> C                  -8.47747600   -3.01352100    0.10930100
| 87> C                  -8.73236700   -4.09330900   -0.74326900
| 88> C                  -9.44350500   -2.70019400    1.07186600
| 89> C                  -9.90257400   -4.82687200   -0.63782200
| 90> H                  -8.01349600   -4.34802500   -1.51238900
| 91> C                 -10.61287300   -3.43453800    1.17790300
| 92> H                  -9.26604400   -1.88310400    1.76027200
| 93> C                 -10.84975200   -4.50232700    0.32350500
| 94> H                 -10.07880000   -5.65279100   -1.31598500
| 95> H                 -11.34011200   -3.17583000    1.93767700
| 96> H                 -11.76406500   -5.07633400    0.40567900
| 97> O                   0.00409900   -0.53872400   -0.27868500
| 98> *
| 99>
|100>
|101>                          ****END OF INPUT****

CARTESIAN COORDINATES (ANGSTROEM)
---------------------------------
  C      3.617656    1.451292   -0.417108
  C      2.445175    2.181439   -0.525589
  C      1.203339    1.555326   -0.485525
  C      1.182287    0.165387   -0.321192
  C      2.346752   -0.558786   -0.210414
  C      3.601260    0.066109   -0.258219
  C     -1.175772    0.160285   -0.347511
  C     -1.199166    1.551070   -0.504450
  C     -2.442114    2.174009   -0.557583
  H     -2.488986    3.246853   -0.690373
  C     -3.613622    1.441165   -0.456778
  C     -3.594446    0.055594   -0.302273
  C     -2.339416   -0.567552   -0.251574
  H      2.490348    3.256500   -0.639694
  H      2.261942   -1.633053   -0.109583
  H     -4.557931    1.965134   -0.525068
  N      0.001742    2.249559   -0.596937
  C      0.000562    3.669335   -0.757263
  C     -0.012570    4.497923    0.392776
  C      0.012302    4.205806   -2.018076
  C     -0.024311    3.983920    1.707352
  C     -0.013601    5.912527    0.202000
  C      0.011231    5.599060   -2.196246
  H      0.022232    3.542555   -2.874107
  C     -0.036642    4.828593    2.785681
  H     -0.023408    2.911041    1.855071
  C     -0.026565    6.750758    1.338210
  C     -0.001541    6.432107   -1.110338
  H      0.020493    6.006742   -3.198740
  C     -0.037833    6.222861    2.601135
  H     -0.045500    4.421979    3.789090
  H     -0.027314    7.823906    1.187799
  H     -0.002543    7.507730   -1.241135
  H     -0.047629    6.877186    3.463638
  H     -2.253410   -1.637254   -0.110965
  H      4.559509    1.983423   -0.434759
  C      4.840781   -0.712765   -0.141021
  C      4.869232   -1.954959    0.503354
  C      6.049229   -0.244682   -0.670362
  C      6.036850   -2.685446    0.612105
  H      3.962308   -2.353796    0.940812
  C      7.215611   -0.976501   -0.563409
  H      6.074370    0.705568   -1.189135
  C      7.242510   -2.218088    0.080071
  H      6.008380   -3.647564    1.108903
  H      8.129149   -0.568837   -0.978825
  C      8.485007   -2.999055    0.189390
  C      8.695752   -3.878654    1.256998
  C      9.495137   -2.887089   -0.772421
  C      9.865761   -4.612917    1.358653
  H      7.941816   -3.972369    2.028988
  C     10.664736   -3.621852   -0.670845
  H      9.353197   -2.231218   -1.622543
  C     10.857406   -4.489175    0.395416
  H     10.006651   -5.280649    2.199717
  H     11.427066   -3.521915   -1.433733
  H     11.771755   -5.063519    0.474803
  C     -4.833064   -0.726380   -0.199769
  C     -4.883281   -2.074781   -0.571301
  C     -6.018482   -0.153221    0.275113
  C     -6.051759   -2.806075   -0.476130
  H     -3.994129   -2.559064   -0.955924
  C     -7.185136   -0.885681    0.373376
  H     -6.023559    0.883651    0.587646
  C     -7.234738   -2.232879    0.000394
  H     -6.041920   -3.850048   -0.764762
  H     -8.081175   -0.397624    0.737009
  C     -8.477476   -3.013521    0.109301
  C     -8.732367   -4.093309   -0.743269
  C     -9.443505   -2.700194    1.071866
  C     -9.902574   -4.826872   -0.637822
  H     -8.013496   -4.348025   -1.512389
  C    -10.612873   -3.434538    1.177903
  H     -9.266044   -1.883104    1.760272
  C    -10.849752   -4.502327    0.323505
  H    -10.078800   -5.652791   -1.315985
  H    -11.340112   -3.175830    1.937677
  H    -11.764065   -5.076334    0.405679
  O      0.004099   -0.538724   -0.278685

 Total Charge           Charge          ....    0
 Multiplicity           Mult            ....    1
 Number of Electrons    NEL             ....  322
 Basis Dimension        Dim             .... 1674

ORBITAL ENERGIES
----------------

  NO   OCC          E(Eh)            E(eV)
   0   2.0000     -19.988603      -543.9176
   1   2.0000     -15.064205      -409.9178
   2   2.0000     -10.846301      -295.1428
   3   2.0000     -10.846203      -295.1402
   4   2.0000     -10.831950      -294.7523
   5   2.0000     -10.831921      -294.7515
   6   2.0000     -10.821414      -294.4656
   7   2.0000     -10.792775      -293.6863
   8   2.0000     -10.791205      -293.6436
   9   2.0000     -10.789244      -293.5903
  10   2.0000     -10.789224      -293.5897
  11   2.0000     -10.788939      -293.5820
  12   2.0000     -10.788860      -293.5798
  13   2.0000     -10.787274      -293.5367
  14   2.0000     -10.787187      -293.5343
  15   2.0000     -10.787047      -293.5305
  16   2.0000     -10.787021      -293.5298
  17   2.0000     -10.783078      -293.4225
  18   2.0000     -10.782039      -293.3942
  19   2.0000     -10.779762      -293.3322
  20   2.0000     -10.779530      -293.3259
  21   2.0000     -10.779348      -293.3210
  22   2.0000     -10.778414      -293.2956
  23   2.0000     -10.778258      -293.2913
  24   2.0000     -10.778212      -293.2901
  25   2.0000     -10.777590      -293.2731
  26   2.0000     -10.777508      -293.2709
  27   2.0000     -10.777327      -293.2660
  28   2.0000     -10.775655      -293.2205
  29   2.0000     -10.775539      -293.2173
  30   2.0000     -10.775515      -293.2167
  31   2.0000     -10.775420      -293.2141
  32   2.0000     -10.775378      -293.2129
  33   2.0000     -10.775347      -293.2121
  34   2.0000     -10.775272      -293.2100
  35   2.0000     -10.775247      -293.2094
  36   2.0000     -10.775184      -293.2077
  37   2.0000     -10.775104      -293.2055
  38   2.0000     -10.774506      -293.1892
  39   2.0000     -10.774354      -293.1851
  40   2.0000     -10.774349      -293.1849
  41   2.0000     -10.774347      -293.1849
  42   2.0000     -10.774261      -293.1826
  43   2.0000     -10.774211      -293.1812
  44   2.0000     -10.774155      -293.1797
  45   2.0000     -10.774077      -293.1775
  46   2.0000     -10.773284      -293.1560
  47   2.0000     -10.773176      -293.1530
  48   2.0000      -1.295947       -35.2645
  49   2.0000      -1.165638       -31.7186
  50   2.0000      -1.056750       -28.7556
  51   2.0000      -1.055929       -28.7333
  52   2.0000      -1.049891       -28.5690
  53   2.0000      -1.043425       -28.3930
  54   2.0000      -1.031525       -28.0692
  55   2.0000      -1.021373       -27.7930
  56   2.0000      -1.010319       -27.4922
  57   2.0000      -0.994467       -27.0608
  58   2.0000      -0.960066       -26.1247
  59   2.0000      -0.950861       -25.8743
  60   2.0000      -0.937016       -25.4975
  61   2.0000      -0.930606       -25.3231
  62   2.0000      -0.917217       -24.9587
  63   2.0000      -0.908987       -24.7348
  64   2.0000      -0.907761       -24.7014
  65   2.0000      -0.903285       -24.5796
  66   2.0000      -0.901149       -24.5215
  67   2.0000      -0.898426       -24.4474
  68   2.0000      -0.898325       -24.4447
  69   2.0000      -0.888732       -24.1836
  70   2.0000      -0.876288       -23.8450
  71   2.0000      -0.867076       -23.5943
  72   2.0000      -0.842224       -22.9181
  73   2.0000      -0.792900       -21.5759
  74   2.0000      -0.790860       -21.5204
  75   2.0000      -0.763228       -20.7685
  76   2.0000      -0.758407       -20.6373
  77   2.0000      -0.757841       -20.6219
  78   2.0000      -0.752352       -20.4725
  79   2.0000      -0.747707       -20.3461
  80   2.0000      -0.747535       -20.3415
  81   2.0000      -0.732030       -19.9196
  82   2.0000      -0.720436       -19.6041
  83   2.0000      -0.709868       -19.3165
  84   2.0000      -0.709401       -19.3038
  85   2.0000      -0.707643       -19.2560
  86   2.0000      -0.703379       -19.1399
  87   2.0000      -0.683010       -18.5856
  88   2.0000      -0.676637       -18.4122
  89   2.0000      -0.647831       -17.6284
  90   2.0000      -0.640677       -17.4337
  91   2.0000      -0.639895       -17.4124
  92   2.0000      -0.632391       -17.2082
  93   2.0000      -0.616366       -16.7722
  94   2.0000      -0.615651       -16.7527
  95   2.0000      -0.608884       -16.5686
  96   2.0000      -0.602165       -16.3857
  97   2.0000      -0.595615       -16.2075
  98   2.0000      -0.580389       -15.7932
  99   2.0000      -0.579303       -15.7636
 100   2.0000      -0.575943       -15.6722
 101   2.0000      -0.572500       -15.5785
 102   2.0000      -0.571565       -15.5531
 103   2.0000      -0.565439       -15.3864
 104   2.0000      -0.551209       -14.9992
 105   2.0000      -0.550639       -14.9837
 106   2.0000      -0.545973       -14.8567
 107   2.0000      -0.541819       -14.7436
 108   2.0000      -0.540035       -14.6951
 109   2.0000      -0.535375       -14.5683
 110   2.0000      -0.532816       -14.4987
 111   2.0000      -0.531327       -14.4581
 112   2.0000      -0.529858       -14.4182
 113   2.0000      -0.527088       -14.3428
 114   2.0000      -0.525181       -14.2909
 115   2.0000      -0.524250       -14.2656
 116   2.0000      -0.520487       -14.1632
 117   2.0000      -0.519993       -14.1497
 118   2.0000      -0.508045       -13.8246
 119   2.0000      -0.507454       -13.8085
 120   2.0000      -0.501251       -13.6397
 121   2.0000      -0.499960       -13.6046
 122   2.0000      -0.484595       -13.1865
 123   2.0000      -0.483569       -13.1586
 124   2.0000      -0.482115       -13.1190
 125   2.0000      -0.480907       -13.0861
 126   2.0000      -0.476726       -12.9724
 127   2.0000      -0.472926       -12.8690
 128   2.0000      -0.469009       -12.7624
 129   2.0000      -0.463797       -12.6206
 130   2.0000      -0.456937       -12.4339
 131   2.0000      -0.455198       -12.3866
 132   2.0000      -0.448926       -12.2159
 133   2.0000      -0.445630       -12.1262
 134   2.0000      -0.442393       -12.0381
 135   2.0000      -0.439584       -11.9617
 136   2.0000      -0.433361       -11.7923
 137   2.0000      -0.432695       -11.7742
 138   2.0000      -0.430458       -11.7134
 139   2.0000      -0.426990       -11.6190
 140   2.0000      -0.426273       -11.5995
 141   2.0000      -0.418573       -11.3899
 142   2.0000      -0.411605       -11.2003
 143   2.0000      -0.410410       -11.1678
 144   2.0000      -0.408922       -11.1273
 145   2.0000      -0.406777       -11.0690
 146   2.0000      -0.361301        -9.8315
 147   2.0000      -0.354113        -9.6359
 148   2.0000      -0.340947        -9.2776
 149   2.0000      -0.323249        -8.7960
 150   2.0000      -0.313485        -8.5304
 151   2.0000      -0.311825        -8.4852
 152   2.0000      -0.311478        -8.4758
 153   2.0000      -0.308531        -8.3955
 154   2.0000      -0.308357        -8.3908
 155   2.0000      -0.299406        -8.1473
 156   2.0000      -0.294559        -8.0153
 157   2.0000      -0.274432        -7.4677
 158   2.0000      -0.269984        -7.3466
 159   2.0000      -0.258106        -7.0234
 160   2.0000      -0.219990        -5.9862
 161   0.0000       0.007242         0.1971
 162   0.0000       0.013942         0.3794
 163   0.0000       0.018596         0.5060
 164   0.0000       0.040114         1.0916
 165   0.0000       0.048885         1.3302

MULLIKEN ATOMIC CHARGES
-----------------------
   0 C :   -0.258068
   1 C :   -0.237263
   2 C :    0.063013
   3 C :    0.279500
   4 C :   -0.390175
   5 C :    0.220551
   6 C :    0.275353
   7 C :    0.064228
   8 C :   -0.234058
   9 H :    0.177100
  10 C :   -0.262618
  11 C :    0.215304
  12 C :   -0.388658
  13 H :    0.177291
  14 H :    0.150867
  15 H :    0.161615
  16 N :    0.012058
  17 C :    0.194069
  18 C :    0.031526
  19 C :   -0.219942
  20 C :   -0.341379
  21 C :    0.109249
  22 C :   -0.107285
  23 H :    0.161849
  24 C :   -0.110277
  25 H :    0.170967
  26 C :   -0.199308
  27 C :   -0.266826
  28 H :    0.163737
  29 C :   -0.166196
  30 H :    0.164273
  31 H :    0.162998
  32 H :    0.162786
  33 H :    0.163191
  34 H :    0.152266
  35 H :    0.160068
  36 C :    0.120187
  37 C :   -0.227446
  38 C :   -0.237338
  39 C :   -0.239815
  40 H :    0.158820
  41 C :   -0.234862
  42 H :    0.158896
  43 C :    0.218845
  44 H :    0.159102
  45 H :    0.159518
  46 C :    0.104874
  47 C :   -0.247434
  48 C :   -0.250139
  49 C :   -0.169528
  50 H :    0.161157
  51 C :   -0.166778
  52 H :    0.161942
  53 C :   -0.154978
  54 H :    0.160387
  55 H :    0.159708
  56 H :    0.162122
  57 C :    0.130540
  58 C :   -0.235687
  59 C :   -0.236326
  60 C :   -0.236822
  61 H :    0.159713
  62 C :   -0.236662
  63 H :    0.158073
  64 C :    0.215925
  65 H :    0.159697
  66 H :    0.160740
  67 C :    0.106749
  68 C :   -0.249144
  69 C :   -0.251100
  70 C :   -0.168321
  71 H :    0.161971
  72 C :   -0.167121
  73 H :    0.161543
  74 C :   -0.156435
  75 H :    0.160202
  76 H :    0.160229
  77 H :    0.162595
  78 O :   -0.329409
Sum of atomic charges:   -0.0000000

LOEWDIN ATOMIC CHARGES
----------------------
   0 C :   -0.110556
   1 C :   -0.116351
   2 C :   -0.139167
   3 C :   -0.190079
   4 C :   -0.073868
   5 C :   -0.120478
   6 C :   -0.189974
   7 C :   -0.139104
   8 C :   -0.116177
   9 H :    0.162797
  10 C :   -0.110969
  11 C :   -0.120658
  12 C :   -0.073978
  13 H :    0.162738
  14 H :    0.161957
  15 H :    0.157109
  16 N :    0.277048
  17 C :   -0.133177
  18 C :   -0.068513
  19 C :   -0.089647
  20 C :   -0.099230
  21 C :   -0.096993
  22 C :   -0.138480
  23 H :    0.161344
  24 C :   -0.137926
  25 H :    0.159927
  26 C :   -0.100989
  27 C :   -0.093633
  28 H :    0.154034
  29 C :   -0.142601
  30 H :    0.152883
  31 H :    0.156859
  32 H :    0.157998
  33 H :    0.152310
  34 H :    0.162102
  35 H :    0.157081
  36 C :   -0.109099
  37 C :   -0.104574
  38 C :   -0.103937
  39 C :   -0.103349
  40 H :    0.156087
  41 C :   -0.103560
  42 H :    0.156102
  43 C :   -0.110699
  44 H :    0.156456
  45 H :    0.156436
  46 C :   -0.109962
  47 C :   -0.106131
  48 C :   -0.106243
  49 C :   -0.146785
  50 H :    0.155168
  51 C :   -0.146706
  52 H :    0.155217
  53 C :   -0.149406
  54 H :    0.151229
  55 H :    0.151212
  56 H :    0.149807
  57 C :   -0.109103
  58 C :   -0.104567
  59 C :   -0.104145
  60 C :   -0.103279
  61 H :    0.156125
  62 C :   -0.103414
  63 H :    0.155969
  64 C :   -0.110500
  65 H :    0.156476
  66 H :    0.156482
  67 C :   -0.109984
  68 C :   -0.106203
  69 C :   -0.106227
  70 C :   -0.146737
  71 H :    0.155235
  72 C :   -0.146803
  73 H :    0.155273
  74 C :   -0.149598
  75 H :    0.151265
  76 H :    0.151272
  77 H :    0.149851
  78 O :    0.291708

  Mayer bond orders larger than 0.100000
B(  0-C ,  1-C ) :   1.4242 B(  0-C ,  5-C ) :   1.3797 B(  0-C , 35-H ) :   0.9721
B(  1-C ,  2-C ) :   1.3768 B(  1-C , 13-H ) :   0.9700 B(  2-C ,  3-C ) :   1.3300
B(  2-C , 16-N ) :   1.0845 B(  3-C ,  4-C ) :   1.4831 B(  3-C , 78-O ) :   1.0009
B(  4-C ,  5-C ) :   1.3368 B(  4-C , 14-H ) :   0.9808 B(  5-C , 36-C ) :   0.9269
B(  6-C ,  7-C ) :   1.3339 B(  6-C , 12-C ) :   1.4786 B(  6-C , 78-O ) :   1.0021
B(  7-C ,  8-C ) :   1.3757 B(  7-C , 16-N ) :   1.0828 B(  8-C ,  9-H ) :   0.9694
B(  8-C , 10-C ) :   1.4265 B( 10-C , 11-C ) :   1.3809 B( 10-C , 15-H ) :   0.9701
B( 11-C , 12-C ) :   1.3376 B( 11-C , 57-C ) :   0.9264 B( 12-C , 34-H ) :   0.9824
B( 16-N , 17-C ) :   0.7124 B( 17-C , 18-C ) :   1.1713 B( 17-C , 19-C ) :   1.6389
B( 17-C , 20-C ) :  -0.1020 B( 17-C , 21-C ) :  -0.1166 B( 18-C , 20-C ) :   1.2705
B( 18-C , 21-C ) :   1.2898 B( 19-C , 22-C ) :   1.2372 B( 19-C , 23-H ) :   0.9877
B( 20-C , 24-C ) :   1.5625 B( 20-C , 25-H ) :   0.9771 B( 21-C , 26-C ) :   1.2534
B( 21-C , 27-C ) :   1.2270 B( 22-C , 27-C ) :   1.5116 B( 22-C , 28-H ) :   0.9895
B( 24-C , 29-C ) :   1.2383 B( 24-C , 30-H ) :   0.9825 B( 26-C , 29-C ) :   1.5385
B( 26-C , 31-H ) :   0.9828 B( 27-C , 32-H ) :   0.9888 B( 29-C , 33-H ) :   0.9828
B( 36-C , 37-C ) :   1.3657 B( 36-C , 38-C ) :   1.3706 B( 37-C , 39-C ) :   1.4639
B( 37-C , 40-H ) :   0.9731 B( 38-C , 41-C ) :   1.4662 B( 38-C , 42-H ) :   0.9740
B( 39-C , 43-C ) :   1.3630 B( 39-C , 44-H ) :   0.9760 B( 41-C , 43-C ) :   1.3575
B( 41-C , 45-H ) :   0.9749 B( 43-C , 46-C ) :   0.9098 B( 46-C , 47-C ) :   1.3800
B( 46-C , 48-C ) :   1.3818 B( 47-C , 49-C ) :   1.4537 B( 47-C , 50-H ) :   0.9691
B( 48-C , 51-C ) :   1.4525 B( 48-C , 52-H ) :   0.9682 B( 49-C , 53-C ) :   1.4020
B( 49-C , 54-H ) :   0.9799 B( 51-C , 53-C ) :   1.4000 B( 51-C , 55-H ) :   0.9811
B( 53-C , 56-H ) :   0.9764 B( 57-C , 58-C ) :   1.3635 B( 57-C , 59-C ) :   1.3648
B( 58-C , 60-C ) :   1.4655 B( 58-C , 61-H ) :   0.9733 B( 59-C , 62-C ) :   1.4686
B( 59-C , 63-H ) :   0.9744 B( 60-C , 64-C ) :   1.3626 B( 60-C , 65-H ) :   0.9754
B( 62-C , 64-C ) :   1.3601 B( 62-C , 66-H ) :   0.9736 B( 64-C , 67-C ) :   0.9108
B( 67-C , 68-C ) :   1.3822 B( 67-C , 69-C ) :   1.3802 B( 68-C , 70-C ) :   1.4529
B( 68-C , 71-H ) :   0.9679 B( 69-C , 72-C ) :   1.4518 B( 69-C , 73-H ) :   0.9696
B( 70-C , 74-C ) :   1.4004 B( 70-C , 75-H ) :   0.9807 B( 72-C , 74-C ) :   1.4012
B( 72-C , 76-H ) :   0.9804 B( 74-C , 77-H ) :   0.9763

MP2 TOTAL ENERGY:    -1900.255386630 Eh

-----------------------------------------------------------------------------
         ABSORPTION SPECTRUM VIA TRANSITION ELECTRIC DIPOLE MOMENTS
-----------------------------------------------------------------------------
State   Energy    Wavelength  fosc         T2        TX        TY        TZ
        (cm-1)      (nm)                 (au**2)    (au)      (au)      (au)
-----------------------------------------------------------------------------
   1   25793.7    387.7   1.146278874  14.63025   3.82482  -0.02305   0.02122
   2   26396.7    378.8   0.056002070   0.69844   0.07109  -0.82983   0.06907
   3   31170.4    320.8   0.751661631   7.93883   0.03314   2.80848  -0.22394
   4   30667.6    326.1   0.361477771   3.88041  -1.96913  -0.02829  -0.04623
   5   35915.7    278.4   0.006087916   0.05580  -0.01497  -0.23517  -0.01655
   6   33483.3    298.7   0.132302384   1.30081  -0.06725   1.13157  -0.12584
   7   35743.5    279.8   0.667019444   6.14351   2.47853   0.02023  -0.00287
   8   34979.1    285.9   0.000691584   0.00651  -0.01983   0.01074   0.07746
   9   36208.5    276.2   0.006035859   0.05488  -0.05911  -0.21866   0.05976
  10   36079.0    277.2   0.004392734   0.04008   0.18471  -0.06788   0.03684
  11   36866.6    271.2   0.002427475   0.02168  -0.00290  -0.02535   0.14500
  12   34673.2    288.4   0.001461946   0.01388  -0.11755   0.00367  -0.00695
  13   39281.8    254.6   0.000309175   0.00259  -0.01355   0.04562  -0.01806
  14   39105.8    255.7   0.000193871   0.00163   0.03848   0.01135  -0.00476
  15   40548.6    246.6   0.375193937   3.04618   1.74269   0.00916   0.09558
  16   41459.3    241.2   0.011268288   0.08948   0.19795   0.01656   0.22364
  17   38573.8    259.2   0.040727100   0.34759   0.58814  -0.00245  -0.04089
  18   43932.1    227.6   1.131009909   8.47539   0.14985   0.88437   2.76963
  19   42055.5    237.8   0.017967011   0.14065  -0.01926  -0.32289   0.18979
  20   42835.4    233.5   0.161043454   1.23770   0.78739  -0.20139  -0.75971
  21   45681.8    218.9   0.378515030   2.72782  -1.64650   0.03846   0.12398
  22   43893.6    227.8   0.069430825   0.52075  -0.54330   0.00910  -0.47486
  23   43185.6    231.6   0.137904006   1.05127  -0.18558  -0.68061  -0.74404
  24   43008.2    232.5   0.141201953   1.08085   0.13104  -1.03126   0.01365
  25   42234.6    236.8   0.044530069   0.34710  -0.04783   0.31733   0.49408
  26   45549.1    219.5   0.264337117   1.91053  -0.06047   1.11333  -0.81693
  27   45439.2    220.1   0.362194982   2.62414   1.53235   0.11273  -0.51315
  28   47442.5    210.8   0.407495989   2.82769  -0.04684   1.60728  -0.49208
  29   44852.0    223.0   0.285102481   2.09264   0.54828  -1.07928  -0.79194
  30   44817.2    223.1   0.296370053   2.17704  -0.65129  -0.75843   1.08519

FINAL SINGLE POINT ENERGY     -1897.007776865712

DIPOLE MOMENT
-------------
                                X             Y             Z
Electronic contribution:      0.01942       7.11631      -2.91823
Nuclear contribution   :     -0.02043      -5.63200       2.82928
                        -----------------------------------------
Total Dipole Moment    :     -0.00100       1.48430      -0.08894
                        -----------------------------------------
Magnitude (a.u.)       :      1.48696
Magnitude (Debye)      :      3.77956

Rotational constants in cm-1:     0.002297     0.000767     0.000599
Rotational constants in MHz :    68.851724    22.987264    17.972395

                             ****ORCA TERMINATED NORMALLY****
TOTAL RUN TIME: 6 days 10 hours 46 minutes 36 seconds 928 msec
